 Gaussian 16, Revision A.03,
 Gaussian 16:  ES64L-G16RevA.03 25-Dec-2016

 --------------------------
 # td=(NStates=1) B3LYP/SVP
 --------------------------

 --
 TD
 --
 Symbolic Z-matrix:
 Charge =  0 Multiplicity = 1

                         Standard orientation:
 ---------------------------------------------------------------------
 Center     Atomic      Atomic             Coordinates (Angstroms)
 Number     Number       Type             X           Y           Z
 ---------------------------------------------------------------------
      1          8           0        5.415974    0.213362   -3.079338
      2          8           0       -3.274216   -2.783141    3.059153
      3          8           0       -3.537701   -0.614800    2.770715
      4          8           0       -1.689646    7.195515    1.505870
      5          8           0       -1.043872    7.199229   -0.638712
      6          8           0       -1.480453   -4.019653    0.022083
      7          7           0        2.286502    0.835844    0.608565
      8          7           0        4.351631   -0.610752   -1.190518
      9          7           0       -1.822707    0.692668   -0.295868
     10          7           0       -2.447929   -1.916340   -0.452764
     11          6           0        4.773521   -1.243697   -0.008408
     12          6           0        4.309714   -0.506281    1.261621
     13          6           0        2.834840   -0.086079    1.365756
     14          6           0        1.881595   -0.620204    2.158823
     15          6           0        0.639136   -0.026352    1.823330
     16          6           0        0.936063    0.965465    0.792445
     17          6           0        6.277050   -1.333133   -0.146471
     18          6           0       -0.642439   -0.190539    2.520855
     19          6           0        6.672757   -0.771969   -1.283588
     20          6           0        0.243422    2.001747    0.185785
     21          6           0       -1.064419    1.848847   -0.296289
     22          6           0        5.470710   -0.203641   -2.000377
     23          6           0       -1.991640    2.810068   -0.829905
     24          6           0        1.988017   -1.725141    3.206065
     25          6           0        7.129949   -1.861692    0.942323
     26          6           0       -3.054015    2.216597   -1.296240
     27          6           0       -1.315385   -1.569114    2.530888
     28          6           0       -2.999282    0.778333   -0.982915
     29          6           0       -1.521360    4.343546   -0.960700
     30          6           0        7.995490   -0.554197   -1.876025
     31          6           0       -1.780996    5.144571    0.416463
     32          6           0       -4.197557    2.941593   -2.057484
     33          6           0       -3.918519   -0.190317   -1.422717
     34          6           0       -2.845665   -1.545619    2.799801
     35          6           0       -3.618525   -1.492254   -1.096867
     36          6           0        9.226585   -0.833536   -1.380214
     37          6           0       -1.379280    6.570327    0.393185
     38          6           0       -4.420193   -2.746556   -1.418848
     39          6           0       -3.712130   -3.860157   -1.010146
     40          6           0       -2.451743   -3.354454   -0.401410
     41          6           0       -5.701753   -2.555287   -2.238438
     42          6           0       -4.006068   -5.275634   -1.056024
     43          6           0       -6.456593   -3.645087   -2.603699
     44          1           0        4.179813   -2.286339   -0.135817
     45          1           0        4.843553    0.410452    1.155153
     46          1           0        4.662270   -1.346248    1.973294
     47          1           0        2.617911    1.296031   -0.144216
     48          1           0        3.350712   -0.717297   -1.871821
     49          1           0       -0.443267    0.375637    3.518169
     50          1           0       -1.360577    0.534638    2.216056
     51          1           0        0.950152    2.903147   -0.331057
     52          1           0        2.988596   -1.961905    3.559694
     53          1           0        1.548573   -1.532845    4.163014
     54          1           0        1.486194   -2.801470    2.757680
     55          1           0        6.672740   -2.511356    1.563830
     56          1           0        7.322519   -1.238258    1.650972
     57          1           0        8.048085   -2.446814    0.551517
     58          1           0       -1.272734   -2.095311    1.504952
     59          1           0       -0.884716   -2.350456    3.076476
     60          1           0       -1.433247   -0.234760    0.111440
     61          1           0       -1.983184    5.068079   -1.776256
     62          1           0       -0.345455    4.290685   -1.305387
     63          1           0        8.010274    0.067569   -2.811921
     64          1           0       -1.473884    4.568106    1.144157
     65          1           0       -2.796925    5.081110    0.774919
     66          1           0       -3.875906    4.020163   -2.057499
     67          1           0       -5.132304    2.708842   -1.493038
     68          1           0       -4.416312    2.533213   -3.042177
     69          1           0       -4.958744    0.129870   -1.796529
     70          1           0        9.651863   -1.110237   -0.392581
     71          1           0       10.130582   -0.617983   -2.139996
     72          1           0       -4.271211   -2.798299    3.093045
     73          1           0       -6.136381   -1.595003   -2.435212
     74          1           0       -4.851470   -5.607788   -0.442631
     75          1           0       -4.232233   -5.769272   -1.902168
     76          1           0       -3.010043   -5.841741   -0.739170
     77          1           0       -1.265327    8.195087    1.438716
     78          1           0       -7.420727   -3.677918   -2.948200
     79          1           0       -6.400099   -4.756335   -2.474926
 ---------------------------------------------------------------------

 SCF Done:  E(RB3LYP) =  -1947.79952574     A.U. after   17 cycles

 Excitation energies and oscillator strengths:

 Excited State   1:      Singlet-A      1.9750 eV  627.76 nm  f=0.3225  <S**2>=0.000
     154 ->156         0.22684
     155 ->156         0.66525
     155 <-156        -0.11207
 This state for optimization and/or second-order correction.
 Total Energy, E(TD-HF/TD-DFT) =  -1947.72694463
 Copying the excited state density for this state as the 1-particle RhoCI density.

 The electronic state is 1-A.
 Alpha  occ. eigenvalues --  -19.19914 -19.16417 -19.12291 -19.11349 -19.11002
 Alpha  occ. eigenvalues --  -19.09991 -14.38090 -14.37239 -14.35524 -14.28160
 Alpha  occ. eigenvalues --  -10.32551 -10.29841 -10.28506 -10.26052 -10.25455
 Alpha  occ. eigenvalues --  -10.25023 -10.24075 -10.23515 -10.23498 -10.23270
 Alpha  occ. eigenvalues --  -10.22831 -10.22784 -10.22337 -10.22119 -10.21342
 Alpha  occ. eigenvalues --  -10.21177 -10.21075 -10.20627 -10.20373 -10.20321
 Alpha  occ. eigenvalues --  -10.20285 -10.20230 -10.20194 -10.20001 -10.19889
 Alpha  occ. eigenvalues --  -10.19784 -10.19378 -10.19366 -10.19291 -10.19139
 Alpha  occ. eigenvalues --  -10.18865 -10.18077 -10.17561  -1.09896  -1.09229
 Alpha  occ. eigenvalues --   -1.06145  -1.01408  -1.00396  -0.99028  -0.98579
 Alpha  occ. eigenvalues --   -0.98541  -0.94364  -0.88981  -0.82389  -0.82198
 Alpha  occ. eigenvalues --   -0.82021  -0.81345  -0.79589  -0.78632  -0.77900
 Alpha  occ. eigenvalues --   -0.77514  -0.76258  -0.75703  -0.74726  -0.72429
 Alpha  occ. eigenvalues --   -0.72056  -0.70698  -0.69720  -0.68791  -0.67878
 Alpha  occ. eigenvalues --   -0.66927  -0.65755  -0.63871  -0.61263  -0.60484
 Alpha  occ. eigenvalues --   -0.60079  -0.59412  -0.58732  -0.58593  -0.57447
 Alpha  occ. eigenvalues --   -0.56804  -0.55723  -0.55256  -0.54270  -0.53622
 Alpha  occ. eigenvalues --   -0.51973  -0.51307  -0.51191  -0.50690  -0.49428
 Alpha  occ. eigenvalues --   -0.48783  -0.48435  -0.47603  -0.47247  -0.46944
 Alpha  occ. eigenvalues --   -0.46826  -0.46499  -0.46245  -0.46230  -0.45570
 Alpha  occ. eigenvalues --   -0.45411  -0.45069  -0.44869  -0.44582  -0.44365
 Alpha  occ. eigenvalues --   -0.43808  -0.42972  -0.42711  -0.42290  -0.42216
 Alpha  occ. eigenvalues --   -0.41944  -0.41821  -0.41400  -0.40984  -0.40863
 Alpha  occ. eigenvalues --   -0.40539  -0.40179  -0.39706  -0.39518  -0.39432
 Alpha  occ. eigenvalues --   -0.39385  -0.38903  -0.38867  -0.38823  -0.38229
 Alpha  occ. eigenvalues --   -0.38109  -0.37895  -0.37604  -0.37340  -0.36501
 Alpha  occ. eigenvalues --   -0.36085  -0.35305  -0.35090  -0.34388  -0.33651
 Alpha  occ. eigenvalues --   -0.33465  -0.33268  -0.32169  -0.31819  -0.31781
 Alpha  occ. eigenvalues --   -0.31388  -0.30899  -0.28474  -0.28069  -0.26772
 Alpha  occ. eigenvalues --   -0.26736  -0.26523  -0.25830  -0.25581  -0.24778
 Alpha  occ. eigenvalues --   -0.24580  -0.24151  -0.23261  -0.21581  -0.18852
 Alpha virt. eigenvalues --   -0.10926  -0.06551  -0.06119  -0.01103  -0.00965
 Alpha virt. eigenvalues --   -0.00200   0.01130   0.01435   0.01847   0.02470
 Alpha virt. eigenvalues --    0.03377   0.04125   0.04678   0.04833   0.05587

 Mulliken charges:
               1
     1  O   -0.149777
     2  O   -0.193978
     3  O   -0.178506
     4  O   -0.207070
     5  O   -0.278445
     6  O   -0.247421
     7  N    0.063274
     8  N   -0.334412
     9  N   -0.106068
    10  N   -0.370755
    11  C    0.034931
    12  C    0.243676
    13  C   -0.094393
    14  C   -0.120619
    15  C   -0.093057
    16  C    0.010194
    17  C   -0.184147
    18  C    0.102625
    19  C   -0.034691
    20  C   -0.120355
    21  C    0.048250
    22  C    0.135732
    23  C   -0.043978
    24  C    0.055984
    25  C    0.218532
    26  C   -0.174769
    27  C    0.002767
    28  C    0.162244
    29  C   -0.030494
    30  C    0.002727
    31  C    0.091843
    32  C    0.111077
    33  C   -0.155762
    34  C    0.094354
    35  C    0.114274
    36  C   -0.099050
    37  C    0.163425
    38  C    0.037486
    39  C   -0.158393
    40  C    0.188469
    41  C    0.035958
    42  C    0.096586
    43  C   -0.033351
    44  H    0.037300
    45  H   -0.032215
    46  H    0.023010
    47  H    0.066185
    48  H    0.198376
    49  H    0.015631
    50  H   -0.017923
    51  H    0.047759
    52  H   -0.011792
    53  H    0.012903
    54  H    0.067053
    55  H   -0.041911
    56  H   -0.030254
    57  H    0.049253
    58  H    0.080964
    59  H   -0.008956
    60  H    0.192710
    61  H    0.054001
    62  H    0.045699
    63  H    0.032252
    64  H   -0.032669
    65  H    0.026756
    66  H    0.031883
    67  H    0.023668
    68  H    0.021113
    69  H    0.018762
    70  H    0.035858
    71  H    0.038946
    72  H    0.185481
    73  H   -0.005964
    74  H    0.015561
    75  H   -0.014921
    76  H    0.034769
    77  H    0.238807
    78  H   -0.014452
    79  H    0.011440
 Sum of Mulliken charges =  -0.00000

 Dipole moment (field-independent basis, Debye):
    X=              1.1636    Y=              1.5051    Z=              3.2714  Tot=              3.7843
 Quadrupole moment (field-independent basis, Debye-Ang):
   XX=           -212.9480   YY=           -250.5226   ZZ=           -260.4596
   XY=             -2.5061   XZ=             27.7413   YZ=             10.4134

 Normal termination of Gaussian 16 at Mon Sep 16 02:00:19 2019.
