 Gaussian 16, Revision A.03,
 Gaussian 16:  ES64L-G16RevA.03 25-Dec-2016

 --------------------------
 # td=(NStates=1) B3LYP/SVP
 --------------------------

 --
 TD
 --
 Symbolic Z-matrix:
 Charge =  0 Multiplicity = 1

                         Standard orientation:
 ---------------------------------------------------------------------
 Center     Atomic      Atomic             Coordinates (Angstroms)
 Number     Number       Type             X           Y           Z
 ---------------------------------------------------------------------
      1          8           0       -3.338958   -1.694015   -2.763654
      2          8           0        2.920233    3.388755    3.014667
      3          8           0        3.960511    1.474914    4.023115
      4          8           0        7.637287   -1.619217   -0.523229
      5          8           0        6.675732   -3.128276   -1.954461
      6          8           0       -2.770273    1.633626    1.198929
      7          7           0       -0.244478   -2.401133    1.148351
      8          7           0       -2.658494   -1.275317   -0.528669
      9          7           0        1.064157   -0.103821   -0.781309
     10          7           0       -1.100945    1.300053   -0.413070
     11          6           0       -3.443249   -1.365246    0.715558
     12          6           0       -2.642129   -2.262115    1.684783
     13          6           0       -1.160425   -1.861823    1.921393
     14          6           0       -0.583534   -0.964538    2.790450
     15          6           0        0.820500   -0.912320    2.488564
     16          6           0        0.953931   -1.808365    1.323982
     17          6           0       -4.863369   -1.817571    0.406864
     18          6           0        1.841691   -0.112310    3.124789
     19          6           0       -4.965825   -2.115922   -0.926730
     20          6           0        2.143115   -2.020414    0.383620
     21          6           0        2.165112   -0.984152   -0.588589
     22          6           0       -3.540443   -1.727907   -1.571724
     23          6           0        3.103591   -0.767881   -1.710718
     24          6           0       -1.259931   -0.162340    3.850506
     25          6           0       -5.970028   -1.784834    1.361506
     26          6           0        2.608440    0.344075   -2.447236
     27          6           0        1.838930    1.347372    2.732951
     28          6           0        1.323535    0.697231   -1.810594
     29          6           0        4.270161   -1.667406   -1.917300
     30          6           0       -5.914535   -2.574996   -1.801607
     31          6           0        5.373916   -1.336120   -0.982861
     32          6           0        3.130902    0.812385   -3.691566
     33          6           0        0.667205    1.889073   -2.110538
     34          6           0        2.934633    2.068758    3.331176
     35          6           0       -0.541482    2.203772   -1.414081
     36          6           0       -7.127937   -3.214932   -1.438979
     37          6           0        6.585673   -2.172851   -1.233945
     38          6           0       -1.335919    3.472498   -1.429543
     39          6           0       -2.140607    3.448949   -0.440724
     40          6           0       -2.077764    2.017263    0.260817
     41          6           0       -1.109602    4.555385   -2.387072
     42          6           0       -3.136548    4.479598    0.002136
     43          6           0       -1.591923    5.832385   -2.406126
     44          1           0       -3.537047   -0.350738    1.110424
     45          1           0       -2.733786   -3.130111    1.260568
     46          1           0       -3.234564   -2.338570    2.630686
     47          1           0       -0.378408   -3.147408    0.487277
     48          1           0       -1.965815   -0.561635   -0.652021
     49          1           0        1.618103   -0.343880    4.210886
     50          1           0        2.832525   -0.517186    2.898106
     51          1           0        3.038812   -2.587586    0.747135
     52          1           0       -2.029130   -0.791338    4.687120
     53          1           0       -0.528762    0.337481    4.434145
     54          1           0       -1.864745    0.711322    3.466515
     55          1           0       -5.787902   -1.033928    2.224890
     56          1           0       -6.192732   -2.832900    1.891861
     57          1           0       -6.883277   -1.254231    0.896967
     58          1           0        1.844507    1.310959    1.480133
     59          1           0        1.001254    1.727391    2.975172
     60          1           0        0.187089    0.107678   -0.395504
     61          1           0        4.413029   -1.704300   -2.980295
     62          1           0        3.999512   -2.846331   -1.560365
     63          1           0       -5.640085   -2.279207   -2.863001
     64          1           0        4.993075   -1.554017    0.036025
     65          1           0        5.738530   -0.432770   -0.889509
     66          1           0        3.850587    0.148362   -4.304480
     67          1           0        3.584125    1.888024   -3.317445
     68          1           0        2.164756    0.791411   -4.411607
     69          1           0        0.786535    2.461892   -3.056819
     70          1           0       -7.688819   -3.207582   -0.397905
     71          1           0       -7.925693   -3.569472   -2.195989
     72          1           0        3.720578    3.676909    3.370541
     73          1           0       -0.673496    4.153779   -3.403522
     74          1           0       -3.786410    4.896751   -0.838745
     75          1           0       -4.020528    4.069185    0.588826
     76          1           0       -2.451517    5.325803    0.550540
     77          1           0        8.426842   -2.302432   -0.436549
     78          1           0       -1.224615    6.443065   -3.306144
     79          1           0       -1.886965    6.442620   -1.292942
 ---------------------------------------------------------------------

 SCF Done:  E(RB3LYP) =  -1947.77114136     A.U. after   18 cycles

 Excitation energies and oscillator strengths:

 Excited State   1:      Singlet-A      0.9622 eV 1288.61 nm  f=0.0002  <S**2>=0.000
     155 ->156         0.70196
 This state for optimization and/or second-order correction.
 Total Energy, E(TD-HF/TD-DFT) =  -1947.73578281
 Copying the excited state density for this state as the 1-particle RhoCI density.

 The electronic state is 1-A.
 Alpha  occ. eigenvalues --  -19.20007 -19.19116 -19.14399 -19.12517 -19.12385
 Alpha  occ. eigenvalues --  -19.08898 -14.38229 -14.37102 -14.31931 -14.31821
 Alpha  occ. eigenvalues --  -10.33240 -10.33157 -10.28807 -10.27333 -10.27114
 Alpha  occ. eigenvalues --  -10.26925 -10.26795 -10.24121 -10.24113 -10.23336
 Alpha  occ. eigenvalues --  -10.23295 -10.22999 -10.22710 -10.22474 -10.21904
 Alpha  occ. eigenvalues --  -10.21394 -10.21217 -10.21154 -10.20885 -10.20846
 Alpha  occ. eigenvalues --  -10.20750 -10.20590 -10.20144 -10.20109 -10.19976
 Alpha  occ. eigenvalues --  -10.19685 -10.19277 -10.18598 -10.18392 -10.18138
 Alpha  occ. eigenvalues --  -10.18003 -10.17320 -10.16471  -1.10340  -1.09303
 Alpha  occ. eigenvalues --   -1.02601  -1.01355  -1.00898  -1.00654  -0.98578
 Alpha  occ. eigenvalues --   -0.94509  -0.92008  -0.90099  -0.85287  -0.82814
 Alpha  occ. eigenvalues --   -0.82050  -0.81784  -0.80497  -0.80321  -0.77895
 Alpha  occ. eigenvalues --   -0.77211  -0.76007  -0.75141  -0.74265  -0.72979
 Alpha  occ. eigenvalues --   -0.70847  -0.70484  -0.70240  -0.67936  -0.67677
 Alpha  occ. eigenvalues --   -0.67328  -0.65346  -0.62172  -0.61144  -0.60686
 Alpha  occ. eigenvalues --   -0.60392  -0.59383  -0.58864  -0.57826  -0.56801
 Alpha  occ. eigenvalues --   -0.55541  -0.55279  -0.55174  -0.53898  -0.52591
 Alpha  occ. eigenvalues --   -0.52312  -0.51564  -0.50798  -0.50597  -0.49964
 Alpha  occ. eigenvalues --   -0.49519  -0.48905  -0.48766  -0.48178  -0.47998
 Alpha  occ. eigenvalues --   -0.47664  -0.47462  -0.46891  -0.45958  -0.45470
 Alpha  occ. eigenvalues --   -0.45239  -0.45018  -0.44234  -0.44001  -0.43958
 Alpha  occ. eigenvalues --   -0.43685  -0.43314  -0.42765  -0.42649  -0.42275
 Alpha  occ. eigenvalues --   -0.41964  -0.41549  -0.41515  -0.41338  -0.40992
 Alpha  occ. eigenvalues --   -0.40674  -0.40505  -0.39710  -0.39494  -0.39049
 Alpha  occ. eigenvalues --   -0.38806  -0.38517  -0.38164  -0.37737  -0.37456
 Alpha  occ. eigenvalues --   -0.37214  -0.37023  -0.36969  -0.36584  -0.36061
 Alpha  occ. eigenvalues --   -0.35936  -0.35525  -0.35202  -0.35001  -0.34438
 Alpha  occ. eigenvalues --   -0.34071  -0.33606  -0.32893  -0.32255  -0.31714
 Alpha  occ. eigenvalues --   -0.30248  -0.30175  -0.29838  -0.29461  -0.28679
 Alpha  occ. eigenvalues --   -0.27265  -0.27006  -0.25748  -0.24930  -0.24290
 Alpha  occ. eigenvalues --   -0.23463  -0.23114  -0.22360  -0.21267  -0.19180
 Alpha virt. eigenvalues --   -0.12946  -0.07561  -0.04993  -0.04119  -0.03231
 Alpha virt. eigenvalues --   -0.01148   0.01232   0.02148   0.02199   0.02524
 Alpha virt. eigenvalues --    0.02714   0.03225   0.03571   0.04372   0.04722

 Mulliken charges:
               1
     1  O   -0.224685
     2  O   -0.126963
     3  O   -0.357451
     4  O   -0.260989
     5  O   -0.195368
     6  O   -0.208306
     7  N    0.044538
     8  N   -0.252731
     9  N   -0.012345
    10  N   -0.392773
    11  C    0.067536
    12  C    0.321261
    13  C   -0.121329
    14  C   -0.100062
    15  C   -0.118008
    16  C   -0.111745
    17  C   -0.137042
    18  C    0.092318
    19  C   -0.046262
    20  C   -0.069526
    21  C    0.109704
    22  C    0.162234
    23  C   -0.044568
    24  C    0.034860
    25  C    0.001388
    26  C   -0.116278
    27  C    0.077158
    28  C    0.081175
    29  C    0.061401
    30  C   -0.029428
    31  C    0.084340
    32  C   -0.038426
    33  C   -0.075373
    34  C    0.187886
    35  C    0.079299
    36  C   -0.109950
    37  C    0.138174
    38  C    0.115427
    39  C   -0.231259
    40  C    0.214656
    41  C   -0.057012
    42  C    0.004036
    43  C   -0.091672
    44  H    0.036825
    45  H   -0.107049
    46  H   -0.015665
    47  H    0.110202
    48  H    0.134180
    49  H    0.031238
    50  H   -0.010885
    51  H    0.045531
    52  H    0.024067
    53  H   -0.023801
    54  H    0.040106
    55  H    0.021596
    56  H    0.057995
    57  H    0.046382
    58  H    0.081407
    59  H   -0.038443
    60  H    0.144912
    61  H    0.012964
    62  H    0.052139
    63  H    0.034384
    64  H    0.039997
    65  H   -0.019457
    66  H    0.055671
    67  H    0.076475
    68  H    0.064787
    69  H    0.010581
    70  H    0.044404
    71  H    0.032844
    72  H    0.156136
    73  H    0.026557
    74  H    0.045736
    75  H    0.038555
    76  H    0.064880
    77  H    0.221027
    78  H    0.047772
    79  H    0.068108
 Sum of Mulliken charges =  -0.00000

 Dipole moment (field-independent basis, Debye):
    X=              4.0427    Y=              3.2783    Z=             -1.2578  Tot=              5.3547
 Quadrupole moment (field-independent basis, Debye-Ang):
   XX=           -241.5115   YY=           -239.2075   ZZ=           -268.2631
   XY=             -2.6053   XZ=            -21.1341   YZ=            -15.0293

 Normal termination of Gaussian 16 at Fri Jul 26 19:34:28 2019.
