 Gaussian 16, Revision A.03,
 Gaussian 16:  ES64L-G16RevA.03 25-Dec-2016

 --------------------------
 # td=(NStates=1) B3LYP/SVP
 --------------------------

 --
 TD
 --
 Symbolic Z-matrix:
 Charge =  0 Multiplicity = 1

                         Standard orientation:
 ---------------------------------------------------------------------
 Center     Atomic      Atomic             Coordinates (Angstroms)
 Number     Number       Type             X           Y           Z
 ---------------------------------------------------------------------
      1          8           0        5.455227   -0.176354   -3.324415
      2          8           0       -3.018371   -2.978170    2.978574
      3          8           0       -3.200792   -0.701920    3.131196
      4          8           0       -1.521880    7.178426    1.509265
      5          8           0       -0.565158    7.076676   -0.459193
      6          8           0       -1.917591   -4.090075    0.006894
      7          7           0        2.335031    0.982256    0.656344
      8          7           0        4.447380   -0.529490   -1.274902
      9          7           0       -1.899123    0.683848   -0.339717
     10          7           0       -2.633672   -1.924543   -0.469783
     11          6           0        4.839045   -1.178812    0.050262
     12          6           0        4.410827   -0.401355    1.297744
     13          6           0        2.932420   -0.061500    1.381122
     14          6           0        1.892666   -0.678022    2.077924
     15          6           0        0.677549   -0.128260    1.769842
     16          6           0        0.970657    0.949271    0.908868
     17          6           0        6.299673   -1.316521   -0.132537
     18          6           0       -0.665378   -0.288682    2.456497
     19          6           0        6.685652   -0.938448   -1.385152
     20          6           0        0.191256    1.937144    0.276913
     21          6           0       -1.203294    1.807000   -0.271073
     22          6           0        5.505633   -0.502042   -2.099407
     23          6           0       -1.951464    2.898494   -0.773473
     24          6           0        2.117382   -1.820983    3.104053
     25          6           0        7.126693   -1.917711    0.944225
     26          6           0       -3.068627    2.354329   -1.236119
     27          6           0       -1.101139   -1.732101    2.617787
     28          6           0       -3.082712    1.041990   -1.054373
     29          6           0       -1.541997    4.425335   -0.917204
     30          6           0        8.012876   -0.730323   -1.992898
     31          6           0       -1.811975    5.167658    0.372465
     32          6           0       -4.321659    3.143895   -2.007827
     33          6           0       -3.991121   -0.079801   -1.325603
     34          6           0       -2.654152   -1.740952    2.912256
     35          6           0       -3.744605   -1.411473   -0.988592
     36          6           0        9.215818   -0.684123   -1.498067
     37          6           0       -1.214239    6.499401    0.359988
     38          6           0       -4.582099   -2.633068   -1.509284
     39          6           0       -3.886075   -3.746879   -1.201881
     40          6           0       -2.696658   -3.249455   -0.479321
     41          6           0       -5.835684   -2.395282   -2.189703
     42          6           0       -4.250792   -5.176523   -1.332636
     43          6           0       -6.875842   -3.304976   -2.293698
     44          1           0        4.403010   -2.282599    0.288523
     45          1           0        4.966995    0.507015    1.183399
     46          1           0        4.731152   -1.042847    2.084096
     47          1           0        2.701460    1.760467    0.163722
     48          1           0        3.626125   -0.613431   -1.642325
     49          1           0       -0.472531    0.228420    3.480351
     50          1           0       -1.473135    0.413208    1.961178
     51          1           0        0.783586    2.882290   -0.037342
     52          1           0        3.168007   -1.958530    3.447347
     53          1           0        1.439452   -1.823890    3.880286
     54          1           0        1.780370   -2.758047    2.770553
     55          1           0        6.563538   -2.855485    1.519150
     56          1           0        7.371238   -1.147277    1.544191
     57          1           0        8.124399   -2.191161    0.583246
     58          1           0       -0.977548   -2.146269    1.567904
     59          1           0       -0.652592   -2.590114    3.377271
     60          1           0       -1.519372   -0.278473   -0.272770
     61          1           0       -2.113480    4.719334   -1.697990
     62          1           0       -0.400450    4.467218   -1.184226
     63          1           0        7.966000   -0.683357   -3.081725
     64          1           0       -1.164912    4.498716    1.046864
     65          1           0       -3.002547    5.175241    0.546465
     66          1           0       -4.055047    4.158257   -2.234091
     67          1           0       -5.184343    3.204294   -1.401210
     68          1           0       -4.591957    2.697275   -2.804886
     69          1           0       -4.872041   -0.088093   -1.834233
     70          1           0        9.446432   -0.874187   -0.346366
     71          1           0       10.009034   -0.692077   -2.248597
     72          1           0       -3.931311   -3.105656    3.114941
     73          1           0       -5.949259   -1.192211   -2.365141
     74          1           0       -5.051699   -5.573559   -0.868786
     75          1           0       -4.463021   -5.371891   -2.380341
     76          1           0       -3.446237   -5.709413   -0.939279
     77          1           0       -1.139930    8.134735    1.452370
     78          1           0       -7.938705   -3.109213   -2.451866
     79          1           0       -6.671277   -4.355199   -2.009429
 ---------------------------------------------------------------------

 SCF Done:  E(RB3LYP) =  -1947.83604700     A.U. after   20 cycles

 Excitation energies and oscillator strengths:

 Excited State   1:      Singlet-A      1.9351 eV  640.73 nm  f=0.4415  <S**2>=0.000
     154 ->156         0.23556
     155 ->156         0.67657
     155 <-156        -0.15971
 This state for optimization and/or second-order correction.
 Total Energy, E(TD-HF/TD-DFT) =  -1947.76493513
 Copying the excited state density for this state as the 1-particle RhoCI density.

 The electronic state is 1-A.
 Alpha  occ. eigenvalues --  -19.18282 -19.17590 -19.13425 -19.11240 -19.09408
 Alpha  occ. eigenvalues --  -19.08145 -14.39480 -14.36842 -14.35446 -14.28095
 Alpha  occ. eigenvalues --  -10.32430 -10.30596 -10.28114 -10.26865 -10.25241
 Alpha  occ. eigenvalues --  -10.24881 -10.24738 -10.24369 -10.24199 -10.23776
 Alpha  occ. eigenvalues --  -10.23095 -10.22885 -10.22833 -10.22567 -10.21816
 Alpha  occ. eigenvalues --  -10.21757 -10.21100 -10.21052 -10.20687 -10.20373
 Alpha  occ. eigenvalues --  -10.20338 -10.20243 -10.20152 -10.20083 -10.19781
 Alpha  occ. eigenvalues --  -10.19626 -10.19288 -10.19269 -10.19142 -10.18856
 Alpha  occ. eigenvalues --  -10.18759 -10.17446 -10.15993  -1.10908  -1.09760
 Alpha  occ. eigenvalues --   -1.01488  -1.01325  -1.00167  -1.00057  -0.99514
 Alpha  occ. eigenvalues --   -0.99012  -0.93832  -0.91662  -0.84226  -0.83630
 Alpha  occ. eigenvalues --   -0.82666  -0.82107  -0.80600  -0.79475  -0.78962
 Alpha  occ. eigenvalues --   -0.77961  -0.76337  -0.75587  -0.74235  -0.73754
 Alpha  occ. eigenvalues --   -0.72812  -0.72366  -0.71006  -0.69315  -0.68780
 Alpha  occ. eigenvalues --   -0.67979  -0.67073  -0.64002  -0.61895  -0.61575
 Alpha  occ. eigenvalues --   -0.60331  -0.59791  -0.59242  -0.58596  -0.58219
 Alpha  occ. eigenvalues --   -0.57351  -0.56319  -0.55942  -0.54794  -0.52890
 Alpha  occ. eigenvalues --   -0.52362  -0.51641  -0.51236  -0.51147  -0.50914
 Alpha  occ. eigenvalues --   -0.49538  -0.49170  -0.48456  -0.48019  -0.47827
 Alpha  occ. eigenvalues --   -0.47116  -0.47077  -0.46749  -0.46179  -0.46055
 Alpha  occ. eigenvalues --   -0.45408  -0.45107  -0.44492  -0.44258  -0.43905
 Alpha  occ. eigenvalues --   -0.43550  -0.43211  -0.43046  -0.42907  -0.42798
 Alpha  occ. eigenvalues --   -0.42619  -0.42375  -0.42235  -0.41475  -0.41226
 Alpha  occ. eigenvalues --   -0.41012  -0.40634  -0.40474  -0.40311  -0.40080
 Alpha  occ. eigenvalues --   -0.39784  -0.39525  -0.39224  -0.39201  -0.38900
 Alpha  occ. eigenvalues --   -0.38608  -0.38023  -0.37580  -0.37327  -0.36932
 Alpha  occ. eigenvalues --   -0.36316  -0.35974  -0.35527  -0.35017  -0.34418
 Alpha  occ. eigenvalues --   -0.33810  -0.32948  -0.32644  -0.32494  -0.32098
 Alpha  occ. eigenvalues --   -0.31949  -0.30460  -0.29071  -0.28756  -0.27500
 Alpha  occ. eigenvalues --   -0.26990  -0.26519  -0.25931  -0.25718  -0.25375
 Alpha  occ. eigenvalues --   -0.24793  -0.24304  -0.22568  -0.21489  -0.18753
 Alpha virt. eigenvalues --   -0.11816  -0.06695  -0.05867  -0.01215  -0.00706
 Alpha virt. eigenvalues --    0.00651   0.00805   0.02442   0.02685   0.03042
 Alpha virt. eigenvalues --    0.03725   0.03959   0.04195   0.05253   0.05672

 Mulliken charges:
               1
     1  O   -0.278144
     2  O   -0.095802
     3  O   -0.214779
     4  O   -0.243032
     5  O   -0.202384
     6  O   -0.256664
     7  N   -0.073396
     8  N   -0.091342
     9  N   -0.064270
    10  N   -0.221749
    11  C    0.008397
    12  C    0.282573
    13  C   -0.066955
    14  C   -0.137060
    15  C   -0.068763
    16  C    0.047140
    17  C   -0.199275
    18  C    0.043233
    19  C   -0.004658
    20  C   -0.089255
    21  C   -0.002953
    22  C    0.114656
    23  C   -0.130231
    24  C    0.182234
    25  C    0.125889
    26  C   -0.125857
    27  C   -0.122674
    28  C    0.150946
    29  C    0.128791
    30  C    0.001534
    31  C   -0.014959
    32  C    0.211855
    33  C   -0.015979
    34  C    0.135177
    35  C    0.026309
    36  C   -0.050283
    37  C    0.127496
    38  C    0.013137
    39  C   -0.198403
    40  C    0.104963
    41  C   -0.043805
    42  C    0.177961
    43  C   -0.054405
    44  H    0.050156
    45  H   -0.025753
    46  H   -0.014525
    47  H    0.109738
    48  H    0.071656
    49  H    0.027693
    50  H    0.066161
    51  H    0.010400
    52  H    0.008335
    53  H   -0.022541
    54  H   -0.000736
    55  H    0.057222
    56  H   -0.000349
    57  H    0.022345
    58  H    0.070510
    59  H    0.056574
    60  H    0.163347
    61  H   -0.020840
    62  H    0.039727
    63  H    0.015380
    64  H    0.061338
    65  H    0.084292
    66  H   -0.005341
    67  H    0.008248
    68  H   -0.029009
    69  H   -0.113723
    70  H    0.025826
    71  H    0.031288
    72  H    0.155769
    73  H    0.028243
    74  H   -0.010833
    75  H    0.008211
    76  H   -0.005207
    77  H    0.207955
    78  H    0.031294
    79  H    0.021933
 Sum of Mulliken charges =  -0.00000

 Dipole moment (field-independent basis, Debye):
    X=              1.4728    Y=              2.4483    Z=              4.5297  Tot=              5.3555
 Quadrupole moment (field-independent basis, Debye-Ang):
   XX=           -218.8691   YY=           -248.5209   ZZ=           -267.2191
   XY=            -11.9066   XZ=             32.1838   YZ=             -4.4628

 Normal termination of Gaussian 16 at Tue Oct  1 18:26:26 2019.
