 Gaussian 16, Revision A.03,
 Gaussian 16:  ES64L-G16RevA.03 25-Dec-2016

 --------------------------
 # td=(NStates=1) B3LYP/SVP
 --------------------------

 --
 TD
 --
 Symbolic Z-matrix:
 Charge =  0 Multiplicity = 1

                         Standard orientation:
 ---------------------------------------------------------------------
 Center     Atomic      Atomic             Coordinates (Angstroms)
 Number     Number       Type             X           Y           Z
 ---------------------------------------------------------------------
      1          8           0       -3.230669   -1.002733   -2.940778
      2          8           0        2.948642    2.912825    3.299656
      3          8           0        3.945238    0.850693    4.142138
      4          8           0        7.544142   -1.511413   -0.624771
      5          8           0        6.730628   -2.738189   -2.413139
      6          8           0       -2.542868    1.594748    1.622272
      7          7           0       -0.294265   -2.523669    0.780567
      8          7           0       -2.707680   -0.963542   -0.700087
      9          7           0        1.236774    0.211954   -0.624024
     10          7           0       -1.067029    1.443348   -0.163551
     11          6           0       -3.349892   -1.273079    0.592608
     12          6           0       -2.678668   -2.456882    1.380504
     13          6           0       -1.296188   -2.194588    1.618830
     14          6           0       -0.589156   -1.439489    2.746657
     15          6           0        0.696337   -1.423249    2.423582
     16          6           0        0.894129   -2.013891    1.219111
     17          6           0       -4.800423   -1.852730    0.163381
     18          6           0        1.730200   -0.614670    3.287667
     19          6           0       -4.834219   -1.752222   -1.240104
     20          6           0        2.086580   -1.812428    0.262345
     21          6           0        2.083742   -0.779040   -0.601927
     22          6           0       -3.487532   -1.303855   -1.707542
     23          6           0        3.045390   -0.571552   -1.763364
     24          6           0       -1.462572   -0.776908    3.872380
     25          6           0       -5.831122   -2.304063    1.138460
     26          6           0        2.448900    0.580526   -2.414249
     27          6           0        1.862964    0.878346    2.852440
     28          6           0        1.315003    1.000501   -1.717580
     29          6           0        4.185971   -1.450092   -2.012329
     30          6           0       -5.780312   -2.285757   -2.249984
     31          6           0        5.358800   -1.026472   -1.290342
     32          6           0        3.077616    1.098891   -3.638943
     33          6           0        0.567295    2.091987   -1.982032
     34          6           0        3.026997    1.530560    3.604530
     35          6           0       -0.641080    2.344436   -1.094682
     36          6           0       -6.707628   -3.220254   -2.061205
     37          6           0        6.605863   -1.871838   -1.543465
     38          6           0       -1.355984    3.562449   -0.930116
     39          6           0       -2.248698    3.501310    0.076265
     40          6           0       -2.024009    2.145438    0.732236
     41          6           0       -1.155531    4.689736   -1.964395
     42          6           0       -3.166043    4.405457    0.572402
     43          6           0       -1.790636    5.807253   -2.039766
     44          1           0       -3.255765   -0.270081    1.207770
     45          1           0       -2.782414   -3.367763    0.553624
     46          1           0       -3.222780   -2.862743    2.231140
     47          1           0       -0.545915   -2.786740   -0.221990
     48          1           0       -2.085648   -0.160807   -0.802690
     49          1           0        1.473410   -0.700609    4.398552
     50          1           0        2.749915   -1.305826    3.224612
     51          1           0        2.835477   -2.854761    0.221173
     52          1           0       -2.213238   -1.345125    4.310755
     53          1           0       -0.979891   -0.538696    4.521942
     54          1           0       -2.040760    0.027297    3.305984
     55          1           0       -5.970641   -1.873228    2.181867
     56          1           0       -5.500925   -3.399372    1.431410
     57          1           0       -6.777952   -2.368738    0.756867
     58          1           0        1.865595    1.115937    1.580984
     59          1           0        1.040214    1.607636    3.194644
     60          1           0        0.425854    0.418287   -0.108112
     61          1           0        4.429515   -1.521188   -3.122751
     62          1           0        3.903441   -2.499281   -1.706511
     63          1           0       -5.605408   -2.033996   -3.187712
     64          1           0        5.288777   -1.083989   -0.048663
     65          1           0        5.625189    0.059042   -1.577752
     66          1           0        4.062590    0.929603   -3.991327
     67          1           0        3.310179    2.135323   -3.353032
     68          1           0        2.371563    1.286651   -4.328703
     69          1           0        0.626339    2.805222   -2.722090
     70          1           0       -6.820403   -3.602979   -1.088251
     71          1           0       -7.350440   -3.584062   -2.811710
     72          1           0        3.804660    3.232337    3.446960
     73          1           0       -0.422378    4.594605   -2.799434
     74          1           0       -4.080079    4.658960    0.069405
     75          1           0       -3.565370    4.137260    1.592238
     76          1           0       -2.618881    5.295202    0.909333
     77          1           0        8.212130   -1.981670   -0.784917
     78          1           0       -1.587387    6.493058   -2.693938
     79          1           0       -2.650647    6.038186   -1.271282
 ---------------------------------------------------------------------

 SCF Done:  E(RB3LYP) =  -1947.68837835     A.U. after   22 cycles

 Excitation energies and oscillator strengths:

 Excited State   1:      Singlet-A      0.6839 eV 1812.84 nm  f=0.0017  <S**2>=0.000
     155 ->156         0.70488
 This state for optimization and/or second-order correction.
 Total Energy, E(TD-HF/TD-DFT) =  -1947.66324468
 Copying the excited state density for this state as the 1-particle RhoCI density.

 The electronic state is 1-A.
 Alpha  occ. eigenvalues --  -19.18814 -19.18411 -19.15089 -19.14407 -19.13724
 Alpha  occ. eigenvalues --  -19.06400 -14.37023 -14.36535 -14.32953 -14.31108
 Alpha  occ. eigenvalues --  -10.33627 -10.32827 -10.29875 -10.25713 -10.25698
 Alpha  occ. eigenvalues --  -10.25629 -10.24595 -10.23508 -10.22980 -10.22769
 Alpha  occ. eigenvalues --  -10.22633 -10.22220 -10.22107 -10.21940 -10.21832
 Alpha  occ. eigenvalues --  -10.21586 -10.21470 -10.21453 -10.20976 -10.20446
 Alpha  occ. eigenvalues --  -10.20325 -10.20286 -10.19921 -10.19608 -10.19588
 Alpha  occ. eigenvalues --  -10.19552 -10.19408 -10.19262 -10.17394 -10.17029
 Alpha  occ. eigenvalues --  -10.16383 -10.15914 -10.14914  -1.12676  -1.07963
 Alpha  occ. eigenvalues --   -1.07596  -1.02255  -1.01847  -0.99723  -0.97719
 Alpha  occ. eigenvalues --   -0.96741  -0.93332  -0.89870  -0.84292  -0.83396
 Alpha  occ. eigenvalues --   -0.82347  -0.80131  -0.79644  -0.79446  -0.78782
 Alpha  occ. eigenvalues --   -0.77585  -0.75644  -0.75055  -0.74635  -0.73526
 Alpha  occ. eigenvalues --   -0.72529  -0.71157  -0.70827  -0.70207  -0.68022
 Alpha  occ. eigenvalues --   -0.66201  -0.65838  -0.63186  -0.62675  -0.60793
 Alpha  occ. eigenvalues --   -0.59719  -0.59015  -0.57950  -0.57626  -0.56936
 Alpha  occ. eigenvalues --   -0.56236  -0.56045  -0.54859  -0.53999  -0.53099
 Alpha  occ. eigenvalues --   -0.52679  -0.51873  -0.51288  -0.50264  -0.49876
 Alpha  occ. eigenvalues --   -0.49590  -0.49138  -0.48907  -0.48316  -0.47805
 Alpha  occ. eigenvalues --   -0.47649  -0.47247  -0.46944  -0.46697  -0.46343
 Alpha  occ. eigenvalues --   -0.45716  -0.45585  -0.45333  -0.44959  -0.44791
 Alpha  occ. eigenvalues --   -0.44234  -0.43990  -0.43500  -0.42946  -0.42832
 Alpha  occ. eigenvalues --   -0.42693  -0.42271  -0.41990  -0.41421  -0.40987
 Alpha  occ. eigenvalues --   -0.40625  -0.40419  -0.40180  -0.40143  -0.39578
 Alpha  occ. eigenvalues --   -0.39368  -0.39177  -0.39053  -0.38473  -0.38105
 Alpha  occ. eigenvalues --   -0.37922  -0.37353  -0.37048  -0.36673  -0.36165
 Alpha  occ. eigenvalues --   -0.35523  -0.35240  -0.34878  -0.34179  -0.33946
 Alpha  occ. eigenvalues --   -0.33449  -0.32945  -0.32634  -0.32365  -0.32001
 Alpha  occ. eigenvalues --   -0.30508  -0.30077  -0.29791  -0.29446  -0.29376
 Alpha  occ. eigenvalues --   -0.27989  -0.26780  -0.25627  -0.24806  -0.24129
 Alpha  occ. eigenvalues --   -0.23508  -0.22302  -0.22045  -0.21784  -0.17536
 Alpha virt. eigenvalues --   -0.12709  -0.07370  -0.04391  -0.02627  -0.01749
 Alpha virt. eigenvalues --   -0.00752   0.01756   0.02425   0.03032   0.04024
 Alpha virt. eigenvalues --    0.04536   0.04917   0.05117   0.05487   0.05785

 Mulliken charges:
               1
     1  O   -0.337810
     2  O   -0.200145
     3  O   -0.252458
     4  O   -0.083768
     5  O   -0.233699
     6  O   -0.120229
     7  N   -0.032217
     8  N   -0.139015
     9  N    0.044035
    10  N   -0.406395
    11  C    0.011311
    12  C    0.089143
    13  C   -0.104787
    14  C   -0.146444
    15  C   -0.092307
    16  C   -0.078866
    17  C   -0.143407
    18  C    0.063231
    19  C   -0.022293
    20  C   -0.212993
    21  C    0.152504
    22  C    0.124240
    23  C   -0.075958
    24  C    0.323711
    25  C    0.081505
    26  C   -0.188400
    27  C   -0.091898
    28  C    0.206739
    29  C    0.132201
    30  C    0.045620
    31  C   -0.101845
    32  C    0.229237
    33  C   -0.089057
    34  C    0.200188
    35  C    0.052901
    36  C    0.017841
    37  C    0.145352
    38  C    0.073985
    39  C   -0.180624
    40  C    0.190001
    41  C   -0.024024
    42  C    0.080026
    43  C    0.020573
    44  H    0.083522
    45  H    0.003094
    46  H    0.011078
    47  H    0.141870
    48  H    0.144768
    49  H    0.021425
    50  H    0.038819
    51  H    0.065006
    52  H   -0.035032
    53  H   -0.160365
    54  H    0.038972
    55  H    0.032770
    56  H    0.037183
    57  H    0.005431
    58  H    0.084321
    59  H    0.047993
    60  H    0.130179
    61  H    0.032227
    62  H    0.022976
    63  H   -0.057027
    64  H    0.081360
    65  H    0.052024
    66  H    0.009757
    67  H   -0.010918
    68  H   -0.017593
    69  H   -0.055061
    70  H   -0.017038
    71  H    0.009466
    72  H    0.154632
    73  H    0.001817
    74  H    0.045378
    75  H    0.009014
    76  H    0.030611
    77  H    0.094045
    78  H   -0.030905
    79  H    0.028493
 Sum of Mulliken charges =  -0.00000

 Dipole moment (field-independent basis, Debye):
    X=              1.9711    Y=              4.8296    Z=              0.2765  Tot=              5.2237
 Quadrupole moment (field-independent basis, Debye-Ang):
   XX=           -234.8496   YY=           -229.3197   ZZ=           -270.4915
   XY=              7.9955   XZ=            -23.4529   YZ=            -12.5954

 Normal termination of Gaussian 16 at Wed Jul 24 11:13:50 2019.
