 Gaussian 16, Revision A.03,
 Gaussian 16:  ES64L-G16RevA.03 25-Dec-2016

 --------------------------
 # td=(NStates=1) B3LYP/SVP
 --------------------------

 --
 TD
 --
 Symbolic Z-matrix:
 Charge =  0 Multiplicity = 1

                         Standard orientation:
 ---------------------------------------------------------------------
 Center     Atomic      Atomic             Coordinates (Angstroms)
 Number     Number       Type             X           Y           Z
 ---------------------------------------------------------------------
      1          8           0       -3.273486   -0.726207   -2.994881
      2          8           0        3.166044    2.576369    3.254282
      3          8           0        3.529677    0.750344    4.673282
      4          8           0        7.690406   -1.312655   -0.816825
      5          8           0        6.765894   -2.449896   -2.596935
      6          8           0       -2.695647    1.062081    1.648639
      7          7           0       -0.108727   -2.595131    0.459809
      8          7           0       -2.507028   -1.228773   -0.843342
      9          7           0        1.055519    0.087832   -0.836169
     10          7           0       -1.074585    1.397789   -0.005391
     11          6           0       -3.220324   -1.519389    0.347106
     12          6           0       -2.490810   -2.617636    1.277894
     13          6           0       -1.069511   -2.328061    1.423772
     14          6           0       -0.390555   -1.657006    2.523793
     15          6           0        0.964247   -1.622822    2.237883
     16          6           0        1.028098   -2.060280    0.835091
     17          6           0       -4.543691   -1.936683    0.009342
     18          6           0        1.978538   -0.921410    3.013710
     19          6           0       -4.795242   -1.775246   -1.369138
     20          6           0        2.193020   -1.899404   -0.027127
     21          6           0        2.099682   -0.773858   -0.827383
     22          6           0       -3.473817   -1.208214   -1.939593
     23          6           0        2.974685   -0.173522   -1.937730
     24          6           0       -1.087480   -1.380464    3.791588
     25          6           0       -5.567634   -2.371304    0.969498
     26          6           0        2.495405    1.009110   -2.383994
     27          6           0        1.826105    0.616878    2.849793
     28          6           0        1.259381    1.296926   -1.706329
     29          6           0        4.268286   -0.845314   -2.302688
     30          6           0       -5.879804   -1.989245   -2.310282
     31          6           0        5.428009   -0.794615   -1.310187
     32          6           0        2.997514    1.950427   -3.423142
     33          6           0        0.319082    2.335448   -1.701105
     34          6           0        2.932816    1.169618    3.701972
     35          6           0       -0.767959    2.434496   -0.753035
     36          6           0       -6.892755   -2.844555   -2.160112
     37          6           0        6.698668   -1.675243   -1.677540
     38          6           0       -1.551578    3.617305   -0.575413
     39          6           0       -2.504393    3.227500    0.449514
     40          6           0       -2.132751    1.789967    0.773018
     41          6           0       -1.370350    4.958629   -1.268137
     42          6           0       -3.594336    3.950267    1.073018
     43          6           0       -2.144129    6.015591   -1.199094
     44          1           0       -3.411109   -0.558546    0.930975
     45          1           0       -2.671243   -3.498893    0.587554
     46          1           0       -3.169051   -2.898811    2.170187
     47          1           0       -0.406174   -3.314664   -0.362102
     48          1           0       -1.709248   -0.531811   -0.736942
     49          1           0        1.877631   -1.187730    4.152412
     50          1           0        3.099987   -1.130649    2.610986
     51          1           0        3.012801   -2.601426   -0.265122
     52          1           0       -1.717224   -2.128138    4.092000
     53          1           0       -0.415608   -1.172992    4.680282
     54          1           0       -1.854793   -0.527235    3.665727
     55          1           0       -5.635638   -1.630334    1.877495
     56          1           0       -5.642633   -3.450925    1.278729
     57          1           0       -6.587706   -2.486720    0.636746
     58          1           0        1.653955    1.153619    1.851547
     59          1           0        0.835151    0.870098    3.530229
     60          1           0        0.246979    0.330706   -0.151025
     61          1           0        4.447968   -0.352919   -3.176996
     62          1           0        3.943586   -1.989552   -2.312250
     63          1           0       -5.810099   -1.459447   -3.193096
     64          1           0        5.002136   -1.118188   -0.341500
     65          1           0        5.773358    0.121006   -1.170832
     66          1           0        3.860962    1.498300   -3.960388
     67          1           0        3.275115    2.827043   -2.769663
     68          1           0        2.269277    2.290678   -4.049680
     69          1           0        0.471054    3.110129   -2.432336
     70          1           0       -7.160075   -3.434825   -1.305932
     71          1           0       -7.575876   -3.065168   -3.018157
     72          1           0        3.867853    2.939509    3.776848
     73          1           0       -0.487020    4.930967   -1.818624
     74          1           0       -4.281786    4.344837    0.330723
     75          1           0       -4.251037    3.364914    1.604894
     76          1           0       -3.426886    4.819354    1.812533
     77          1           0        8.451673   -1.874612   -1.035640
     78          1           0       -1.605663    6.861075   -1.757166
     79          1           0       -3.208462    6.251694   -0.927030
 ---------------------------------------------------------------------

 SCF Done:  E(RB3LYP) =  -1947.86508055     A.U. after   20 cycles

 Excitation energies and oscillator strengths:

 Excited State   1:      Singlet-A      0.5315 eV 2332.64 nm  f=0.0007  <S**2>=0.000
     155 ->156         0.70478
 This state for optimization and/or second-order correction.
 Total Energy, E(TD-HF/TD-DFT) =  -1947.84554758
 Copying the excited state density for this state as the 1-particle RhoCI density.

 The electronic state is 1-A.
 Alpha  occ. eigenvalues --  -19.19887 -19.14634 -19.14558 -19.13716 -19.12978
 Alpha  occ. eigenvalues --  -19.08815 -14.38074 -14.35851 -14.31790 -14.31672
 Alpha  occ. eigenvalues --  -10.33702 -10.32042 -10.29134 -10.26707 -10.26537
 Alpha  occ. eigenvalues --  -10.25787 -10.24823 -10.22719 -10.22482 -10.22310
 Alpha  occ. eigenvalues --  -10.22044 -10.21770 -10.21769 -10.21659 -10.21560
 Alpha  occ. eigenvalues --  -10.21406 -10.21224 -10.21201 -10.20982 -10.20768
 Alpha  occ. eigenvalues --  -10.20620 -10.20465 -10.20068 -10.19892 -10.19598
 Alpha  occ. eigenvalues --  -10.19532 -10.19520 -10.18524 -10.18268 -10.17977
 Alpha  occ. eigenvalues --  -10.16957 -10.16797 -10.16511  -1.10645  -1.05897
 Alpha  occ. eigenvalues --   -1.02641  -1.02372  -1.01965  -0.97967  -0.97465
 Alpha  occ. eigenvalues --   -0.96415  -0.94907  -0.91060  -0.83616  -0.82044
 Alpha  occ. eigenvalues --   -0.81686  -0.80570  -0.79709  -0.78762  -0.78026
 Alpha  occ. eigenvalues --   -0.77146  -0.76044  -0.75784  -0.74111  -0.73131
 Alpha  occ. eigenvalues --   -0.71954  -0.69880  -0.69283  -0.69071  -0.67052
 Alpha  occ. eigenvalues --   -0.66141  -0.65368  -0.63225  -0.61689  -0.60873
 Alpha  occ. eigenvalues --   -0.60120  -0.58706  -0.56803  -0.56521  -0.56130
 Alpha  occ. eigenvalues --   -0.54539  -0.54347  -0.54166  -0.53929  -0.52618
 Alpha  occ. eigenvalues --   -0.52263  -0.51542  -0.50951  -0.50293  -0.49539
 Alpha  occ. eigenvalues --   -0.49367  -0.48992  -0.48713  -0.47737  -0.47597
 Alpha  occ. eigenvalues --   -0.46787  -0.46341  -0.46277  -0.46053  -0.45975
 Alpha  occ. eigenvalues --   -0.45727  -0.45573  -0.44731  -0.44602  -0.44074
 Alpha  occ. eigenvalues --   -0.43484  -0.42981  -0.42781  -0.42390  -0.41943
 Alpha  occ. eigenvalues --   -0.41756  -0.41303  -0.41216  -0.41001  -0.40889
 Alpha  occ. eigenvalues --   -0.40505  -0.40204  -0.40115  -0.39786  -0.39348
 Alpha  occ. eigenvalues --   -0.39159  -0.38708  -0.38570  -0.38436  -0.38079
 Alpha  occ. eigenvalues --   -0.37991  -0.37947  -0.36976  -0.36791  -0.36312
 Alpha  occ. eigenvalues --   -0.36149  -0.35925  -0.35572  -0.34966  -0.34705
 Alpha  occ. eigenvalues --   -0.34238  -0.33606  -0.32459  -0.31832  -0.31755
 Alpha  occ. eigenvalues --   -0.30587  -0.30226  -0.29923  -0.29509  -0.29359
 Alpha  occ. eigenvalues --   -0.28213  -0.26492  -0.26197  -0.24586  -0.23887
 Alpha  occ. eigenvalues --   -0.23406  -0.22467  -0.22172  -0.21571  -0.17736
 Alpha virt. eigenvalues --   -0.13393  -0.07638  -0.03830  -0.01905  -0.01163
 Alpha virt. eigenvalues --   -0.00622   0.01038   0.02926   0.02950   0.03627
 Alpha virt. eigenvalues --    0.04209   0.04535   0.04908   0.05082   0.05339

 Mulliken charges:
               1
     1  O   -0.181530
     2  O   -0.284886
     3  O   -0.203509
     4  O   -0.183016
     5  O   -0.199063
     6  O   -0.242067
     7  N   -0.036908
     8  N   -0.260752
     9  N   -0.207987
    10  N   -0.271517
    11  C    0.063877
    12  C    0.132454
    13  C   -0.086435
    14  C   -0.112713
    15  C   -0.046414
    16  C   -0.022492
    17  C   -0.155608
    18  C    0.019437
    19  C   -0.064107
    20  C   -0.119552
    21  C    0.119091
    22  C    0.134025
    23  C   -0.131428
    24  C    0.102116
    25  C    0.054279
    26  C   -0.107306
    27  C   -0.052332
    28  C    0.096752
    29  C    0.128764
    30  C    0.047489
    31  C    0.051054
    32  C    0.151237
    33  C   -0.074321
    34  C    0.173186
    35  C    0.107065
    36  C   -0.045364
    37  C    0.142709
    38  C   -0.009127
    39  C   -0.172990
    40  C    0.197464
    41  C    0.067755
    42  C    0.106461
    43  C   -0.041702
    44  H    0.074612
    45  H   -0.030629
    46  H    0.016967
    47  H    0.179212
    48  H    0.156705
    49  H    0.050038
    50  H    0.024416
    51  H    0.000810
    52  H   -0.025086
    53  H    0.003093
    54  H    0.026993
    55  H    0.042288
    56  H    0.022289
    57  H   -0.010678
    58  H    0.062635
    59  H    0.077931
    60  H    0.228881
    61  H   -0.028420
    62  H    0.040452
    63  H   -0.024449
    64  H    0.035488
    65  H   -0.015198
    66  H    0.028298
    67  H    0.033520
    68  H    0.012492
    69  H   -0.026217
    70  H    0.000167
    71  H    0.020280
    72  H    0.157840
    73  H   -0.029744
    74  H    0.017211
    75  H   -0.013754
    76  H    0.047210
    77  H    0.179779
    78  H    0.032665
    79  H    0.049807
 Sum of Mulliken charges =  -0.00000

 Dipole moment (field-independent basis, Debye):
    X=              2.0419    Y=              3.1311    Z=             -0.9202  Tot=              3.8497
 Quadrupole moment (field-independent basis, Debye-Ang):
   XX=           -229.0763   YY=           -226.8118   ZZ=           -275.1620
   XY=              2.1283   XZ=            -20.2863   YZ=            -11.8544

 Normal termination of Gaussian 16 at Wed Jul 24 05:06:38 2019.
