 Gaussian 16, Revision A.03,
 Gaussian 16:  ES64L-G16RevA.03 25-Dec-2016

 --------------------------
 # td=(NStates=1) B3LYP/SVP
 --------------------------

 --
 TD
 --
 Symbolic Z-matrix:
 Charge =  0 Multiplicity = 1

                         Standard orientation:
 ---------------------------------------------------------------------
 Center     Atomic      Atomic             Coordinates (Angstroms)
 Number     Number       Type             X           Y           Z
 ---------------------------------------------------------------------
      1          8           0       -3.292211   -1.366486   -2.793565
      2          8           0        3.099177    3.175885    3.081317
      3          8           0        3.821025    1.384276    4.302460
      4          8           0        7.722797   -1.685629   -0.567468
      5          8           0        6.784260   -2.849502   -2.355027
      6          8           0       -2.665159    1.675540    1.407498
      7          7           0       -0.217402   -2.451614    1.061983
      8          7           0       -2.605816   -1.340628   -0.595745
      9          7           0        1.133939    0.072423   -0.703224
     10          7           0       -1.100614    1.443359   -0.278409
     11          6           0       -3.256299   -1.364005    0.656569
     12          6           0       -2.623797   -2.386592    1.638199
     13          6           0       -1.237874   -2.061197    1.897623
     14          6           0       -0.593464   -1.106698    2.881788
     15          6           0        0.782244   -1.073336    2.502401
     16          6           0        0.922141   -1.752181    1.319665
     17          6           0       -4.794901   -1.921262    0.253610
     18          6           0        1.825282   -0.256283    3.209767
     19          6           0       -4.811791   -1.986194   -1.079803
     20          6           0        1.997875   -1.720223    0.441267
     21          6           0        1.942410   -0.935346   -0.678007
     22          6           0       -3.466587   -1.521553   -1.675953
     23          6           0        3.010689   -0.682212   -1.774849
     24          6           0       -1.329022   -0.355751    3.977987
     25          6           0       -5.724046   -2.137443    1.290391
     26          6           0        2.570211    0.388610   -2.475147
     27          6           0        1.966412    1.153121    2.761388
     28          6           0        1.330260    0.947636   -1.817118
     29          6           0        4.223516   -1.539521   -1.961646
     30          6           0       -5.776502   -2.474060   -1.979196
     31          6           0        5.346311   -1.177805   -1.050500
     32          6           0        3.085845    1.028368   -3.648994
     33          6           0        0.496644    2.012822   -2.024844
     34          6           0        3.080872    1.833219    3.443406
     35          6           0       -0.549000    2.264885   -1.159013
     36          6           0       -6.913673   -3.225253   -1.655068
     37          6           0        6.692947   -1.981619   -1.502446
     38          6           0       -1.469003    3.448616   -1.306966
     39          6           0       -2.358027    3.364172   -0.240556
     40          6           0       -2.036651    2.090252    0.376605
     41          6           0       -1.258129    4.502499   -2.269455
     42          6           0       -3.516630    4.209968    0.090696
     43          6           0       -1.892003    5.698962   -2.352242
     44          1           0       -3.380818   -0.421202    1.011786
     45          1           0       -2.730775   -3.490569    1.334107
     46          1           0       -3.395198   -2.133243    2.462629
     47          1           0       -0.328317   -2.934465    0.131219
     48          1           0       -1.913177   -0.623734   -0.600565
     49          1           0        1.696813   -0.096703    4.367607
     50          1           0        2.741759   -0.797121    3.126174
     51          1           0        2.654632   -2.624744    0.351381
     52          1           0       -1.949012   -0.857353    4.597885
     53          1           0       -0.558856    0.239357    4.760798
     54          1           0       -2.081417    0.420342    3.333491
     55          1           0       -5.563051   -1.571986    2.276322
     56          1           0       -5.912388   -3.194033    1.414453
     57          1           0       -6.712213   -1.841907    0.859443
     58          1           0        2.076997    1.168022    1.798581
     59          1           0        0.995078    1.568206    2.955842
     60          1           0        0.189446    0.479155   -0.307953
     61          1           0        4.511979   -1.564054   -2.877674
     62          1           0        3.897056   -2.662904   -1.775573
     63          1           0       -5.574567   -2.453919   -3.004921
     64          1           0        5.340402   -1.394382   -0.053416
     65          1           0        5.521460    0.012539   -1.111423
     66          1           0        4.105425    0.523984   -3.959941
     67          1           0        3.317960    2.087141   -3.570563
     68          1           0        2.344322    0.916045   -4.430106
     69          1           0        0.896262    2.618950   -2.812654
     70          1           0       -7.170417   -3.276453   -0.556381
     71          1           0       -7.406712   -3.695432   -2.435561
     72          1           0        3.915121    3.606283    3.140736
     73          1           0       -0.471618    4.348971   -3.059991
     74          1           0       -4.175114    4.453230   -0.787258
     75          1           0       -4.066201    3.603258    0.908678
     76          1           0       -3.108142    5.209850    0.759154
     77          1           0        8.315080   -2.342436   -1.028283
     78          1           0       -1.488717    6.412391   -3.175333
     79          1           0       -2.760488    5.863878   -1.574001
 ---------------------------------------------------------------------

 SCF Done:  E(RB3LYP) =  -1947.81737809     A.U. after   19 cycles

 Excitation energies and oscillator strengths:

 Excited State   1:      Singlet-A      0.6181 eV 2005.97 nm  f=0.0049  <S**2>=0.000
     155 ->156         0.70470
 This state for optimization and/or second-order correction.
 Total Energy, E(TD-HF/TD-DFT) =  -1947.79466422
 Copying the excited state density for this state as the 1-particle RhoCI density.

 The electronic state is 1-A.
 Alpha  occ. eigenvalues --  -19.19874 -19.16456 -19.16279 -19.12737 -19.11886
 Alpha  occ. eigenvalues --  -19.09496 -14.37145 -14.37002 -14.32308 -14.31923
 Alpha  occ. eigenvalues --  -10.34836 -10.31787 -10.28270 -10.27114 -10.26614
 Alpha  occ. eigenvalues --  -10.26426 -10.25451 -10.23557 -10.23525 -10.23014
 Alpha  occ. eigenvalues --  -10.21990 -10.21927 -10.21839 -10.21787 -10.21700
 Alpha  occ. eigenvalues --  -10.21617 -10.21430 -10.21277 -10.20887 -10.20758
 Alpha  occ. eigenvalues --  -10.20519 -10.19778 -10.19725 -10.19647 -10.19466
 Alpha  occ. eigenvalues --  -10.18683 -10.18209 -10.18011 -10.17908 -10.17631
 Alpha  occ. eigenvalues --  -10.17573 -10.17328 -10.16611  -1.10227  -1.07738
 Alpha  occ. eigenvalues --   -1.05374  -1.02414  -1.02145  -1.00193  -0.99894
 Alpha  occ. eigenvalues --   -0.96621  -0.95672  -0.92551  -0.84922  -0.84199
 Alpha  occ. eigenvalues --   -0.82166  -0.81280  -0.81216  -0.80364  -0.79055
 Alpha  occ. eigenvalues --   -0.76741  -0.76242  -0.75922  -0.74685  -0.73491
 Alpha  occ. eigenvalues --   -0.71152  -0.69894  -0.69764  -0.69184  -0.67605
 Alpha  occ. eigenvalues --   -0.66577  -0.66149  -0.63846  -0.61114  -0.60761
 Alpha  occ. eigenvalues --   -0.59965  -0.59783  -0.58796  -0.57804  -0.57162
 Alpha  occ. eigenvalues --   -0.55914  -0.55561  -0.54874  -0.53885  -0.53651
 Alpha  occ. eigenvalues --   -0.51878  -0.51542  -0.51108  -0.51003  -0.50439
 Alpha  occ. eigenvalues --   -0.49938  -0.49599  -0.49253  -0.48608  -0.47968
 Alpha  occ. eigenvalues --   -0.47665  -0.47509  -0.47177  -0.46577  -0.46535
 Alpha  occ. eigenvalues --   -0.46008  -0.45802  -0.45343  -0.44239  -0.44041
 Alpha  occ. eigenvalues --   -0.43693  -0.43685  -0.43531  -0.43280  -0.43069
 Alpha  occ. eigenvalues --   -0.42923  -0.42562  -0.41872  -0.41810  -0.41309
 Alpha  occ. eigenvalues --   -0.41170  -0.40879  -0.40648  -0.40324  -0.40039
 Alpha  occ. eigenvalues --   -0.39291  -0.39279  -0.38945  -0.38815  -0.38130
 Alpha  occ. eigenvalues --   -0.38086  -0.37529  -0.36936  -0.36663  -0.36376
 Alpha  occ. eigenvalues --   -0.36202  -0.35840  -0.35231  -0.35002  -0.34405
 Alpha  occ. eigenvalues --   -0.34319  -0.33180  -0.32805  -0.32263  -0.31419
 Alpha  occ. eigenvalues --   -0.30978  -0.30690  -0.30625  -0.29617  -0.29216
 Alpha  occ. eigenvalues --   -0.28037  -0.27768  -0.26338  -0.25843  -0.24340
 Alpha  occ. eigenvalues --   -0.23913  -0.23068  -0.22792  -0.21672  -0.17923
 Alpha virt. eigenvalues --   -0.13304  -0.07651  -0.03865  -0.02932  -0.02334
 Alpha virt. eigenvalues --   -0.00449   0.01619   0.01762   0.03338   0.03345
 Alpha virt. eigenvalues --    0.03606   0.04365   0.04836   0.04928   0.05268

 Mulliken charges:
               1
     1  O   -0.134202
     2  O   -0.209431
     3  O   -0.213338
     4  O   -0.221375
     5  O   -0.222832
     6  O   -0.263533
     7  N   -0.047484
     8  N   -0.197219
     9  N   -0.117764
    10  N   -0.234716
    11  C    0.066292
    12  C    0.146920
    13  C   -0.069815
    14  C   -0.101293
    15  C   -0.066421
    16  C    0.000146
    17  C   -0.193881
    18  C    0.056295
    19  C   -0.021043
    20  C   -0.093662
    21  C    0.061083
    22  C    0.118577
    23  C   -0.104282
    24  C    0.006140
    25  C    0.083668
    26  C   -0.077515
    27  C    0.122391
    28  C    0.024776
    29  C    0.195076
    30  C   -0.047220
    31  C   -0.014639
    32  C    0.069819
    33  C   -0.069321
    34  C    0.150098
    35  C    0.146967
    36  C   -0.009657
    37  C    0.171603
    38  C    0.058504
    39  C   -0.164134
    40  C    0.157169
    41  C   -0.060486
    42  C   -0.004762
    43  C   -0.052284
    44  H    0.004042
    45  H    0.002791
    46  H   -0.002651
    47  H    0.127470
    48  H    0.118895
    49  H    0.015869
    50  H   -0.017948
    51  H    0.003247
    52  H   -0.010626
    53  H    0.021237
    54  H    0.073057
    55  H    0.050179
    56  H    0.028849
    57  H    0.031213
    58  H   -0.046998
    59  H    0.036768
    60  H    0.222464
    61  H   -0.052517
    62  H    0.035448
    63  H   -0.027745
    64  H    0.025911
    65  H    0.057759
    66  H    0.030557
    67  H    0.031575
    68  H    0.037930
    69  H   -0.029123
    70  H    0.003363
    71  H    0.005863
    72  H    0.157583
    73  H   -0.000367
    74  H    0.064266
    75  H    0.048661
    76  H    0.059056
    77  H    0.176237
    78  H    0.049485
    79  H    0.044979
 Sum of Mulliken charges =  -0.00000

 Dipole moment (field-independent basis, Debye):
    X=              3.1173    Y=              2.8197    Z=             -3.5084  Tot=              5.4752
 Quadrupole moment (field-independent basis, Debye-Ang):
   XX=           -243.0101   YY=           -236.3277   ZZ=           -272.1371
   XY=              5.3875   XZ=            -24.8291   YZ=            -14.2926

 Normal termination of Gaussian 16 at Thu Jul 25 10:52:58 2019.
