 Gaussian 16, Revision A.03,
 Gaussian 16:  ES64L-G16RevA.03 25-Dec-2016

 --------------------------
 # td=(NStates=1) B3LYP/SVP
 --------------------------

 --
 TD
 --
 Symbolic Z-matrix:
 Charge =  0 Multiplicity = 1

                         Standard orientation:
 ---------------------------------------------------------------------
 Center     Atomic      Atomic             Coordinates (Angstroms)
 Number     Number       Type             X           Y           Z
 ---------------------------------------------------------------------
      1          8           0       -3.242695   -1.843611   -2.594261
      2          8           0        2.967296    3.732242    2.596775
      3          8           0        3.871201    2.149428    3.993874
      4          8           0        7.660352   -1.639673   -0.680224
      5          8           0        6.614758   -3.433213   -1.527648
      6          8           0       -2.740339    1.783337    1.157408
      7          7           0       -0.214278   -2.110642    1.301829
      8          7           0       -2.666769   -1.297809   -0.347512
      9          7           0        1.131212   -0.162857   -0.657987
     10          7           0       -1.040607    1.378173   -0.424104
     11          6           0       -3.355314   -1.117949    0.911268
     12          6           0       -2.609458   -1.930606    1.957325
     13          6           0       -1.112854   -1.629867    2.229933
     14          6           0       -0.583676   -0.692013    3.028085
     15          6           0        0.844580   -0.732871    2.707483
     16          6           0        0.978035   -1.621977    1.558350
     17          6           0       -4.728945   -1.759112    0.581687
     18          6           0        2.002531    0.150702    3.258385
     19          6           0       -4.768114   -2.254529   -0.758492
     20          6           0        2.152580   -1.872655    0.648411
     21          6           0        2.138395   -1.075776   -0.404971
     22          6           0       -3.403548   -1.799530   -1.401950
     23          6           0        2.911772   -1.022966   -1.636425
     24          6           0       -1.327535    0.218180    4.062933
     25          6           0       -5.839589   -1.765916    1.509845
     26          6           0        2.539534    0.004647   -2.513376
     27          6           0        2.012458    1.613649    2.582685
     28          6           0        1.383310    0.561519   -1.866199
     29          6           0        4.094209   -1.899633   -1.778830
     30          6           0       -5.750662   -2.935418   -1.525194
     31          6           0        5.314841   -1.245074   -1.142716
     32          6           0        3.075018    0.512895   -3.866752
     33          6           0        0.494346    1.588879   -2.281344
     34          6           0        3.054751    2.520768    3.165037
     35          6           0       -0.504809    2.029134   -1.440706
     36          6           0       -6.931828   -3.522968   -1.212366
     37          6           0        6.512561   -2.228121   -1.177536
     38          6           0       -1.395832    3.241711   -1.740162
     39          6           0       -2.273864    3.308370   -0.713639
     40          6           0       -2.032023    2.124346    0.126083
     41          6           0       -1.248241    4.104862   -2.900053
     42          6           0       -3.398027    4.289661   -0.480200
     43          6           0       -2.029258    5.149084   -3.306697
     44          1           0       -3.325810    0.074469    0.939036
     45          1           0       -2.704596   -3.003907    1.689758
     46          1           0       -3.209884   -1.505095    2.988970
     47          1           0       -0.586648   -2.580766    0.532757
     48          1           0       -2.182838   -0.447277   -0.599646
     49          1           0        1.944483    0.308912    4.276391
     50          1           0        2.979104   -0.428325    3.115392
     51          1           0        2.672021   -2.828818    0.810606
     52          1           0       -2.020153   -0.085683    4.828390
     53          1           0       -0.534758    0.679194    4.701280
     54          1           0       -1.888657    0.847303    3.358804
     55          1           0       -5.532941   -1.151310    2.289028
     56          1           0       -6.156801   -2.702479    1.965467
     57          1           0       -6.988214   -1.477080    0.933474
     58          1           0        2.133444    1.730985    1.506534
     59          1           0        0.925720    2.087558    2.515176
     60          1           0        0.195456    0.418196   -0.246086
     61          1           0        4.439811   -2.160967   -2.829765
     62          1           0        3.646767   -2.939358   -1.406801
     63          1           0       -5.456710   -2.791439   -2.566717
     64          1           0        5.310146   -0.938488   -0.092592
     65          1           0        5.579209   -0.272683   -1.419929
     66          1           0        3.704833   -0.485987   -4.123800
     67          1           0        3.987881    1.331148   -3.408506
     68          1           0        2.211556    0.959474   -4.805987
     69          1           0        0.693772    2.117331   -3.418981
     70          1           0       -7.193146   -3.521497   -0.178123
     71          1           0       -7.531757   -4.060927   -2.093688
     72          1           0        3.706265    4.328635    3.031831
     73          1           0       -0.151061    4.019649   -3.341281
     74          1           0       -4.303552    4.089842   -1.244550
     75          1           0       -3.820907    3.788540    0.359057
     76          1           0       -3.221738    5.330019   -0.402062
     77          1           0        8.402245   -2.246724   -0.572442
     78          1           0       -1.592742    5.791254   -3.997664
     79          1           0       -2.933349    5.221610   -2.845714
 ---------------------------------------------------------------------

 SCF Done:  E(RB3LYP) =  -1947.77077088     A.U. after   19 cycles

 Excitation energies and oscillator strengths:

 Excited State   1:      Singlet-A      0.8160 eV 1519.47 nm  f=0.0018  <S**2>=0.000
     155 ->156         0.70303
 This state for optimization and/or second-order correction.
 Total Energy, E(TD-HF/TD-DFT) =  -1947.74078463
 Copying the excited state density for this state as the 1-particle RhoCI density.

 The electronic state is 1-A.
 Alpha  occ. eigenvalues --  -19.19104 -19.18367 -19.13941 -19.13058 -19.12232
 Alpha  occ. eigenvalues --  -19.09111 -14.36733 -14.36135 -14.33121 -14.32412
 Alpha  occ. eigenvalues --  -10.34256 -10.31594 -10.29745 -10.27331 -10.27191
 Alpha  occ. eigenvalues --  -10.26849 -10.26305 -10.26002 -10.23793 -10.23738
 Alpha  occ. eigenvalues --  -10.23576 -10.23556 -10.23295 -10.23250 -10.22416
 Alpha  occ. eigenvalues --  -10.21944 -10.21672 -10.21317 -10.21246 -10.20527
 Alpha  occ. eigenvalues --  -10.20326 -10.20292 -10.20152 -10.20129 -10.19451
 Alpha  occ. eigenvalues --  -10.19317 -10.19061 -10.18678 -10.18009 -10.17855
 Alpha  occ. eigenvalues --  -10.17747 -10.17704 -10.17117  -1.08862  -1.08687
 Alpha  occ. eigenvalues --   -1.01971  -1.01450  -0.99988  -0.99060  -0.98832
 Alpha  occ. eigenvalues --   -0.97701  -0.95540  -0.92480  -0.84530  -0.83452
 Alpha  occ. eigenvalues --   -0.82465  -0.79646  -0.79514  -0.78673  -0.78510
 Alpha  occ. eigenvalues --   -0.76925  -0.76202  -0.75442  -0.74167  -0.72893
 Alpha  occ. eigenvalues --   -0.71462  -0.69802  -0.68774  -0.68435  -0.67891
 Alpha  occ. eigenvalues --   -0.67219  -0.66474  -0.63236  -0.62015  -0.61702
 Alpha  occ. eigenvalues --   -0.60383  -0.59518  -0.58624  -0.57906  -0.57032
 Alpha  occ. eigenvalues --   -0.55451  -0.54989  -0.54550  -0.54096  -0.53647
 Alpha  occ. eigenvalues --   -0.52422  -0.51390  -0.50663  -0.49913  -0.49103
 Alpha  occ. eigenvalues --   -0.48922  -0.48646  -0.48365  -0.48008  -0.47748
 Alpha  occ. eigenvalues --   -0.47463  -0.46837  -0.46473  -0.46416  -0.45859
 Alpha  occ. eigenvalues --   -0.45632  -0.44947  -0.44355  -0.44203  -0.43554
 Alpha  occ. eigenvalues --   -0.43453  -0.43000  -0.42750  -0.42233  -0.42117
 Alpha  occ. eigenvalues --   -0.41728  -0.41557  -0.41049  -0.40915  -0.40778
 Alpha  occ. eigenvalues --   -0.40280  -0.40072  -0.39946  -0.39630  -0.39515
 Alpha  occ. eigenvalues --   -0.39311  -0.39193  -0.38480  -0.38332  -0.37703
 Alpha  occ. eigenvalues --   -0.37324  -0.37169  -0.36934  -0.36279  -0.36170
 Alpha  occ. eigenvalues --   -0.35773  -0.35393  -0.35198  -0.34242  -0.33822
 Alpha  occ. eigenvalues --   -0.33342  -0.32767  -0.32543  -0.32433  -0.32246
 Alpha  occ. eigenvalues --   -0.31641  -0.30249  -0.29949  -0.29305  -0.29047
 Alpha  occ. eigenvalues --   -0.27843  -0.27354  -0.26843  -0.25160  -0.24826
 Alpha  occ. eigenvalues --   -0.23793  -0.23384  -0.22653  -0.21305  -0.19272
 Alpha virt. eigenvalues --   -0.13703  -0.08604  -0.04480  -0.03081  -0.02344
 Alpha virt. eigenvalues --   -0.01048   0.00627   0.01730   0.02515   0.02646
 Alpha virt. eigenvalues --    0.03171   0.03540   0.04201   0.04434   0.04902

 Mulliken charges:
               1
     1  O   -0.217018
     2  O   -0.213611
     3  O   -0.240327
     4  O   -0.215467
     5  O   -0.257755
     6  O   -0.289073
     7  N    0.021474
     8  N   -0.215514
     9  N   -0.219427
    10  N   -0.277623
    11  C    0.032021
    12  C    0.119814
    13  C   -0.088461
    14  C   -0.092452
    15  C   -0.164178
    16  C   -0.058559
    17  C   -0.174569
    18  C    0.179205
    19  C   -0.062190
    20  C   -0.142853
    21  C    0.261004
    22  C    0.135135
    23  C   -0.103788
    24  C    0.063300
    25  C    0.051128
    26  C   -0.070805
    27  C   -0.069541
    28  C    0.086093
    29  C    0.036629
    30  C   -0.028033
    31  C    0.055427
    32  C   -0.066495
    33  C   -0.142890
    34  C    0.156080
    35  C    0.105896
    36  C   -0.032555
    37  C    0.164258
    38  C    0.052790
    39  C   -0.205787
    40  C    0.203269
    41  C   -0.095135
    42  C    0.097184
    43  C    0.084281
    44  H    0.102234
    45  H   -0.008020
    46  H    0.021594
    47  H    0.092989
    48  H    0.131233
    49  H   -0.015248
    50  H    0.009607
    51  H    0.040417
    52  H    0.010790
    53  H    0.007005
    54  H    0.046734
    55  H   -0.000698
    56  H    0.031753
    57  H    0.048089
    58  H    0.010150
    59  H    0.052941
    60  H    0.256546
    61  H    0.039005
    62  H    0.057641
    63  H   -0.000979
    64  H    0.035766
    65  H    0.008734
    66  H    0.060604
    67  H    0.076883
    68  H    0.109357
    69  H    0.057074
    70  H   -0.004249
    71  H    0.049508
    72  H    0.209598
    73  H    0.015421
    74  H    0.043946
    75  H    0.009906
    76  H    0.038604
    77  H    0.187359
    78  H    0.016306
    79  H   -0.009477
 Sum of Mulliken charges =  -0.00000

 Dipole moment (field-independent basis, Debye):
    X=              4.2042    Y=              4.7019    Z=             -2.4578  Tot=              6.7694
 Quadrupole moment (field-independent basis, Debye-Ang):
   XX=           -245.5843   YY=           -242.4982   ZZ=           -263.3691
   XY=              1.6877   XZ=            -18.8641   YZ=            -17.4856

 Normal termination of Gaussian 16 at Fri Jul 26 04:02:16 2019.
