 Gaussian 16, Revision A.03,
 Gaussian 16:  ES64L-G16RevA.03 25-Dec-2016

 --------------------------
 # td=(NStates=1) B3LYP/SVP
 --------------------------

 --
 TD
 --
 Symbolic Z-matrix:
 Charge =  0 Multiplicity = 1

                         Standard orientation:
 ---------------------------------------------------------------------
 Center     Atomic      Atomic             Coordinates (Angstroms)
 Number     Number       Type             X           Y           Z
 ---------------------------------------------------------------------
      1          8           0        5.278784   -0.026881   -3.338007
      2          8           0       -3.023846   -2.980293    3.203181
      3          8           0       -3.432958   -0.728187    3.035004
      4          8           0       -1.471858    7.234185    1.549589
      5          8           0       -0.617531    7.051229   -0.529205
      6          8           0       -1.788456   -4.054541    0.165786
      7          7           0        2.310000    0.882797    0.648517
      8          7           0        4.341689   -0.485026   -1.250151
      9          7           0       -1.791275    0.710820   -0.378587
     10          7           0       -2.497584   -1.993566   -0.605039
     11          6           0        4.737586   -1.144026    0.059120
     12          6           0        4.252312   -0.379715    1.216683
     13          6           0        2.847013   -0.074011    1.405390
     14          6           0        1.864324   -0.664748    2.208963
     15          6           0        0.579784    0.010732    1.926615
     16          6           0        0.943932    0.933893    0.947677
     17          6           0        6.198772   -1.324489   -0.136664
     18          6           0       -0.694066   -0.254980    2.647851
     19          6           0        6.671461   -0.937865   -1.381362
     20          6           0        0.175648    1.973590    0.299223
     21          6           0       -1.012447    1.869135   -0.338802
     22          6           0        5.364963   -0.457726   -2.114500
     23          6           0       -1.840904    2.960509   -0.861168
     24          6           0        2.075742   -1.675624    3.319316
     25          6           0        7.037953   -1.898207    0.933723
     26          6           0       -3.054625    2.377560   -1.266372
     27          6           0       -1.267244   -1.651337    2.518746
     28          6           0       -3.024959    0.958796   -1.005354
     29          6           0       -1.428235    4.447409   -1.001589
     30          6           0        7.952276   -0.780086   -2.106012
     31          6           0       -1.777801    5.175244    0.311614
     32          6           0       -4.280784    2.921159   -2.047424
     33          6           0       -3.841134   -0.026595   -1.341662
     34          6           0       -2.664882   -1.705646    3.004408
     35          6           0       -3.589728   -1.509667   -1.188189
     36          6           0        9.138308   -0.911403   -1.528003
     37          6           0       -1.248853    6.519817    0.347012
     38          6           0       -4.430665   -2.643594   -1.496940
     39          6           0       -3.775895   -3.797957   -1.122092
     40          6           0       -2.540996   -3.353559   -0.476864
     41          6           0       -5.643063   -2.431807   -2.246217
     42          6           0       -4.199319   -5.229082   -1.248620
     43          6           0       -6.644676   -3.307185   -2.633787
     44          1           0        4.490085   -2.053345    0.101280
     45          1           0        4.869116    0.727859    1.244993
     46          1           0        4.761740   -0.916476    2.166190
     47          1           0        2.914558    1.261860    0.012205
     48          1           0        3.433404   -0.438253   -1.733685
     49          1           0       -0.534335    0.072248    3.725277
     50          1           0       -1.581564    0.348797    2.382455
     51          1           0        0.744165    3.004680    0.172178
     52          1           0        3.118118   -1.648750    3.759479
     53          1           0        1.251721   -1.574630    4.211893
     54          1           0        1.764591   -2.710779    3.105904
     55          1           0        6.389379   -2.598755    1.425761
     56          1           0        7.603989   -1.198098    1.755109
     57          1           0        7.788589   -2.804289    0.591827
     58          1           0       -1.393976   -1.900950    1.400077
     59          1           0       -0.552381   -2.405689    3.046206
     60          1           0       -1.527986   -0.276268   -0.090678
     61          1           0       -1.670584    4.799751   -1.915771
     62          1           0       -0.316212    4.539632   -1.031271
     63          1           0        7.906970   -0.467021   -3.265987
     64          1           0       -1.791964    4.643339    1.486930
     65          1           0       -2.689006    5.240297    0.319535
     66          1           0       -4.306803    3.965997   -2.127643
     67          1           0       -5.184811    2.629546   -1.622339
     68          1           0       -4.302080    2.645367   -3.064294
     69          1           0       -4.946294    0.297463   -1.742726
     70          1           0        9.107268   -1.347717   -0.535595
     71          1           0        9.965845   -0.969720   -1.835438
     72          1           0       -3.970973   -2.922071    3.268069
     73          1           0       -6.029887   -1.347564   -2.479627
     74          1           0       -5.161664   -5.422772   -0.400003
     75          1           0       -4.668640   -5.372333   -2.342975
     76          1           0       -3.404821   -5.929684   -0.926022
     77          1           0       -1.338068    8.173458    1.395968
     78          1           0       -7.660553   -3.286144   -3.242195
     79          1           0       -6.448607   -4.459441   -2.437364
 ---------------------------------------------------------------------

 SCF Done:  E(RB3LYP) =  -1947.75535509     A.U. after   17 cycles

 Excitation energies and oscillator strengths:

 Excited State   1:      Singlet-A      1.9111 eV  648.76 nm  f=0.3238  <S**2>=0.000
     154 ->156         0.12979
     155 ->156         0.68770
     155 <-156        -0.10348
 This state for optimization and/or second-order correction.
 Total Energy, E(TD-HF/TD-DFT) =  -1947.68512414
 Copying the excited state density for this state as the 1-particle RhoCI density.

 The electronic state is 1-A.
 Alpha  occ. eigenvalues --  -19.18033 -19.17096 -19.13599 -19.11833 -19.11442
 Alpha  occ. eigenvalues --  -19.09075 -14.37814 -14.36594 -14.36115 -14.29333
 Alpha  occ. eigenvalues --  -10.32673 -10.31137 -10.28460 -10.26766 -10.24970
 Alpha  occ. eigenvalues --  -10.24784 -10.24359 -10.24171 -10.23716 -10.23224
 Alpha  occ. eigenvalues --  -10.22832 -10.22694 -10.22518 -10.22446 -10.21863
 Alpha  occ. eigenvalues --  -10.21850 -10.21818 -10.21770 -10.21743 -10.21736
 Alpha  occ. eigenvalues --  -10.21681 -10.21616 -10.21380 -10.20929 -10.20656
 Alpha  occ. eigenvalues --  -10.20640 -10.20096 -10.19825 -10.19394 -10.19361
 Alpha  occ. eigenvalues --  -10.19241 -10.19030 -10.17512  -1.09527  -1.08728
 Alpha  occ. eigenvalues --   -1.02877  -1.00291  -1.00044  -0.99357  -0.99078
 Alpha  occ. eigenvalues --   -0.96975  -0.93787  -0.92610  -0.83278  -0.83170
 Alpha  occ. eigenvalues --   -0.82395  -0.81037  -0.80483  -0.80173  -0.78980
 Alpha  occ. eigenvalues --   -0.77805  -0.77049  -0.75910  -0.74712  -0.72936
 Alpha  occ. eigenvalues --   -0.71759  -0.71379  -0.69722  -0.69467  -0.69193
 Alpha  occ. eigenvalues --   -0.68221  -0.66449  -0.64638  -0.62009  -0.60516
 Alpha  occ. eigenvalues --   -0.60283  -0.59600  -0.58552  -0.57730  -0.57112
 Alpha  occ. eigenvalues --   -0.56382  -0.56031  -0.55632  -0.54675  -0.53753
 Alpha  occ. eigenvalues --   -0.53480  -0.52698  -0.52332  -0.51808  -0.50099
 Alpha  occ. eigenvalues --   -0.49495  -0.48905  -0.48461  -0.48072  -0.47833
 Alpha  occ. eigenvalues --   -0.47316  -0.47136  -0.46769  -0.46003  -0.45666
 Alpha  occ. eigenvalues --   -0.45361  -0.44956  -0.44096  -0.43938  -0.43560
 Alpha  occ. eigenvalues --   -0.43321  -0.43153  -0.42919  -0.42448  -0.42396
 Alpha  occ. eigenvalues --   -0.42139  -0.42005  -0.41930  -0.41652  -0.41362
 Alpha  occ. eigenvalues --   -0.41087  -0.40574  -0.40100  -0.39749  -0.39582
 Alpha  occ. eigenvalues --   -0.39352  -0.38936  -0.38702  -0.38497  -0.37981
 Alpha  occ. eigenvalues --   -0.37856  -0.37704  -0.37444  -0.37381  -0.36625
 Alpha  occ. eigenvalues --   -0.36326  -0.35920  -0.35372  -0.34796  -0.34640
 Alpha  occ. eigenvalues --   -0.33515  -0.32830  -0.32531  -0.32145  -0.32011
 Alpha  occ. eigenvalues --   -0.31415  -0.31376  -0.29021  -0.28927  -0.27661
 Alpha  occ. eigenvalues --   -0.27268  -0.26371  -0.26099  -0.25122  -0.24540
 Alpha  occ. eigenvalues --   -0.24471  -0.24118  -0.23532  -0.22383  -0.19441
 Alpha virt. eigenvalues --   -0.11769  -0.06916  -0.06398  -0.01743  -0.01338
 Alpha virt. eigenvalues --    0.00460   0.00665   0.00806   0.02742   0.03523
 Alpha virt. eigenvalues --    0.03898   0.04405   0.04553   0.04770   0.05533

 Mulliken charges:
               1
     1  O   -0.318407
     2  O   -0.136874
     3  O   -0.271386
     4  O   -0.241119
     5  O   -0.208132
     6  O   -0.185839
     7  N    0.002721
     8  N   -0.198580
     9  N   -0.150092
    10  N   -0.263913
    11  C    0.320936
    12  C    0.015143
    13  C   -0.068556
    14  C   -0.117683
    15  C   -0.016080
    16  C    0.041402
    17  C   -0.222231
    18  C    0.038822
    19  C   -0.001943
    20  C   -0.150744
    21  C    0.146822
    22  C    0.127382
    23  C   -0.136979
    24  C    0.021408
    25  C    0.003650
    26  C   -0.129862
    27  C   -0.044515
    28  C    0.149421
    29  C    0.168178
    30  C   -0.047659
    31  C    0.089029
    32  C    0.176661
    33  C   -0.136631
    34  C    0.134491
    35  C    0.068638
    36  C    0.138345
    37  C    0.135653
    38  C    0.087703
    39  C   -0.167212
    40  C    0.132646
    41  C   -0.066906
    42  C   -0.005446
    43  C   -0.125322
    44  H   -0.049629
    45  H    0.023998
    46  H    0.024349
    47  H    0.080307
    48  H    0.144169
    49  H    0.018595
    50  H    0.014682
    51  H    0.023183
    52  H    0.024431
    53  H    0.021439
    54  H    0.030115
    55  H    0.000037
    56  H    0.080000
    57  H    0.050623
    58  H    0.103784
    59  H    0.031845
    60  H    0.168890
    61  H   -0.000814
    62  H    0.010805
    63  H    0.055012
    64  H    0.089618
    65  H   -0.061143
    66  H   -0.017943
    67  H    0.008433
    68  H    0.014372
    69  H    0.021497
    70  H   -0.007898
    71  H   -0.098431
    72  H    0.160882
    73  H    0.024687
    74  H    0.052650
    75  H    0.064847
    76  H    0.043271
    77  H    0.179755
    78  H    0.061926
    79  H    0.020715
 Sum of Mulliken charges =  -0.00000

 Dipole moment (field-independent basis, Debye):
    X=             -0.9995    Y=              0.8825    Z=              2.5613  Tot=              2.8876
 Quadrupole moment (field-independent basis, Debye-Ang):
   XX=           -218.2519   YY=           -245.1486   ZZ=           -267.0384
   XY=            -16.7505   XZ=             36.2237   YZ=              1.3433

 Normal termination of Gaussian 16 at Fri Oct  4 18:44:30 2019.
