 Gaussian 16, Revision A.03,
 Gaussian 16:  ES64L-G16RevA.03 25-Dec-2016

 --------------------------
 # td=(NStates=1) B3LYP/SVP
 --------------------------

 --
 TD
 --
 Symbolic Z-matrix:
 Charge =  0 Multiplicity = 1

                         Standard orientation:
 ---------------------------------------------------------------------
 Center     Atomic      Atomic             Coordinates (Angstroms)
 Number     Number       Type             X           Y           Z
 ---------------------------------------------------------------------
      1          8           0       -3.340216   -1.304191   -2.982678
      2          8           0        3.151289    2.871522    3.209367
      3          8           0        3.683252    1.136542    4.545397
      4          8           0        7.864628   -1.686707   -0.778283
      5          8           0        6.792851   -2.824631   -2.466004
      6          8           0       -2.758765    1.512997    1.403211
      7          7           0       -0.318947   -2.485828    0.833414
      8          7           0       -2.713159   -1.184416   -0.717792
      9          7           0        1.182255    0.197163   -0.627003
     10          7           0       -1.027201    1.456154   -0.151987
     11          6           0       -3.435722   -1.359641    0.547236
     12          6           0       -2.751379   -2.335101    1.426088
     13          6           0       -1.281998   -2.087334    1.700478
     14          6           0       -0.619758   -1.337846    2.763641
     15          6           0        0.721482   -1.288351    2.398673
     16          6           0        0.937844   -1.969844    1.104517
     17          6           0       -4.796115   -1.801465    0.159579
     18          6           0        1.763856   -0.546632    3.039805
     19          6           0       -4.867465   -2.023703   -1.137508
     20          6           0        2.106028   -1.930348    0.251195
     21          6           0        2.117380   -0.867599   -0.595285
     22          6           0       -3.548380   -1.452652   -1.812446
     23          6           0        3.101122   -0.435621   -1.609555
     24          6           0       -1.383289   -0.611325    3.895240
     25          6           0       -5.926686   -2.083524    1.123400
     26          6           0        2.709864    0.661056   -2.257830
     27          6           0        1.883575    0.945999    2.961378
     28          6           0        1.377017    1.036841   -1.619308
     29          6           0        4.291618   -1.278099   -2.041934
     30          6           0       -5.909669   -2.422432   -2.114507
     31          6           0        5.646835   -1.068078   -1.216437
     32          6           0        3.234400    1.411452   -3.479669
     33          6           0        0.581476    2.161178   -1.898223
     34          6           0        3.104746    1.606647    3.625962
     35          6           0       -0.634879    2.399444   -1.032751
     36          6           0       -6.885711   -3.329714   -1.784120
     37          6           0        6.773257   -2.056710   -1.496723
     38          6           0       -1.495583    3.607305   -1.085083
     39          6           0       -2.371500    3.344263   -0.095324
     40          6           0       -2.103362    2.047090    0.463081
     41          6           0       -1.194065    4.744463   -1.956108
     42          6           0       -3.490081    4.252644    0.386701
     43          6           0       -1.912594    5.787669   -2.250981
     44          1           0       -3.360857   -0.443625    1.130401
     45          1           0       -2.851073   -3.422871    1.084618
     46          1           0       -3.210266   -2.227868    2.393019
     47          1           0       -0.532681   -2.943134   -0.127515
     48          1           0       -2.047532   -0.412265   -0.860320
     49          1           0        1.638882   -0.713923    4.369059
     50          1           0        2.624478   -0.921757    2.742273
     51          1           0        2.987735   -2.834627    0.354463
     52          1           0       -2.136925   -1.086074    4.518275
     53          1           0       -0.633916   -0.299123    4.786337
     54          1           0       -1.904178    0.298778    3.283997
     55          1           0       -5.992357   -1.270898    1.991984
     56          1           0       -5.843509   -3.110680    1.460468
     57          1           0       -6.994203   -2.005764    0.562993
     58          1           0        2.090148    1.056497    1.809863
     59          1           0        0.949601    1.477369    3.030147
     60          1           0        0.320244    0.151843   -0.073886
     61          1           0        4.824909   -1.106708   -3.009372
     62          1           0        3.923230   -2.267581   -2.031867
     63          1           0       -5.609004   -2.177001   -3.104680
     64          1           0        5.458996   -1.371742   -0.106480
     65          1           0        5.898233   -0.016862   -1.217717
     66          1           0        4.077398    0.989140   -4.069014
     67          1           0        3.788522    2.231100   -3.174481
     68          1           0        2.436894    1.451153   -4.282244
     69          1           0        0.861890    2.820969   -2.588789
     70          1           0       -6.921745   -3.678473   -0.704843
     71          1           0       -7.509070   -3.698538   -2.502066
     72          1           0        3.772315    3.248516    3.790156
     73          1           0        0.013046    4.632436   -2.130886
     74          1           0       -4.190313    4.342702   -0.551835
     75          1           0       -4.009932    3.737449    1.058254
     76          1           0       -3.366858    5.378780    0.780708
     77          1           0        8.612774   -2.282092   -0.794524
     78          1           0       -1.518084    6.770556   -2.841892
     79          1           0       -3.105328    5.858358   -1.958208
 ---------------------------------------------------------------------

 SCF Done:  E(RB3LYP) =  -1947.83797356     A.U. after   16 cycles

 Excitation energies and oscillator strengths:

 Excited State   1:      Singlet-A      1.0120 eV 1225.16 nm  f=0.0007  <S**2>=0.000
     155 ->156         0.70302
 This state for optimization and/or second-order correction.
 Total Energy, E(TD-HF/TD-DFT) =  -1947.80078387
 Copying the excited state density for this state as the 1-particle RhoCI density.

 The electronic state is 1-A.
 Alpha  occ. eigenvalues --  -19.19345 -19.18417 -19.13870 -19.12828 -19.12580
 Alpha  occ. eigenvalues --  -19.09449 -14.37950 -14.37775 -14.32693 -14.31448
 Alpha  occ. eigenvalues --  -10.33861 -10.31664 -10.28445 -10.26905 -10.26843
 Alpha  occ. eigenvalues --  -10.26306 -10.26091 -10.23841 -10.22951 -10.22714
 Alpha  occ. eigenvalues --  -10.22647 -10.22562 -10.22339 -10.21791 -10.21537
 Alpha  occ. eigenvalues --  -10.21380 -10.21375 -10.21119 -10.20840 -10.20682
 Alpha  occ. eigenvalues --  -10.20578 -10.20498 -10.20271 -10.19369 -10.19225
 Alpha  occ. eigenvalues --  -10.19195 -10.19111 -10.18742 -10.18325 -10.18123
 Alpha  occ. eigenvalues --  -10.17810 -10.17433 -10.17141  -1.11560  -1.09776
 Alpha  occ. eigenvalues --   -1.02457  -1.02210  -1.01890  -1.00935  -1.00507
 Alpha  occ. eigenvalues --   -0.96143  -0.94563  -0.91859  -0.83675  -0.82441
 Alpha  occ. eigenvalues --   -0.82260  -0.80296  -0.80231  -0.78399  -0.78234
 Alpha  occ. eigenvalues --   -0.77354  -0.76045  -0.75173  -0.73992  -0.73363
 Alpha  occ. eigenvalues --   -0.71285  -0.70116  -0.69767  -0.68573  -0.67420
 Alpha  occ. eigenvalues --   -0.66106  -0.65799  -0.63398  -0.62118  -0.60902
 Alpha  occ. eigenvalues --   -0.59926  -0.59688  -0.59213  -0.58646  -0.56250
 Alpha  occ. eigenvalues --   -0.55906  -0.55335  -0.54958  -0.53040  -0.52225
 Alpha  occ. eigenvalues --   -0.51884  -0.51335  -0.50957  -0.49654  -0.49389
 Alpha  occ. eigenvalues --   -0.48978  -0.48613  -0.48435  -0.48048  -0.47794
 Alpha  occ. eigenvalues --   -0.47613  -0.47285  -0.46985  -0.46709  -0.45946
 Alpha  occ. eigenvalues --   -0.45453  -0.45096  -0.44718  -0.44595  -0.44372
 Alpha  occ. eigenvalues --   -0.44232  -0.43484  -0.43122  -0.42265  -0.42042
 Alpha  occ. eigenvalues --   -0.41935  -0.41433  -0.41207  -0.40957  -0.40710
 Alpha  occ. eigenvalues --   -0.40318  -0.40121  -0.39777  -0.39602  -0.39557
 Alpha  occ. eigenvalues --   -0.39422  -0.38598  -0.38276  -0.38051  -0.37717
 Alpha  occ. eigenvalues --   -0.37573  -0.36952  -0.36885  -0.36304  -0.36012
 Alpha  occ. eigenvalues --   -0.35941  -0.35503  -0.34921  -0.34619  -0.34237
 Alpha  occ. eigenvalues --   -0.33452  -0.33268  -0.33243  -0.32357  -0.32103
 Alpha  occ. eigenvalues --   -0.30470  -0.30245  -0.30081  -0.29642  -0.28849
 Alpha  occ. eigenvalues --   -0.28204  -0.27681  -0.26688  -0.25148  -0.24920
 Alpha  occ. eigenvalues --   -0.24048  -0.22722  -0.22633  -0.22312  -0.18783
 Alpha virt. eigenvalues --   -0.12634  -0.07484  -0.03265  -0.02450  -0.01711
 Alpha virt. eigenvalues --    0.00490   0.00767   0.02379   0.02530   0.03205
 Alpha virt. eigenvalues --    0.03799   0.04132   0.04337   0.04952   0.05106

 Mulliken charges:
               1
     1  O   -0.209036
     2  O   -0.129512
     3  O   -0.190620
     4  O   -0.189670
     5  O   -0.236031
     6  O   -0.242635
     7  N   -0.065000
     8  N   -0.245654
     9  N   -0.053627
    10  N   -0.282294
    11  C    0.133994
    12  C    0.208379
    13  C   -0.138346
    14  C   -0.061576
    15  C   -0.077355
    16  C   -0.052535
    17  C   -0.147254
    18  C    0.078148
    19  C   -0.110077
    20  C   -0.176500
    21  C    0.165027
    22  C    0.137088
    23  C   -0.067486
    24  C   -0.022033
    25  C    0.003099
    26  C   -0.110075
    27  C   -0.024583
    28  C    0.083356
    29  C    0.090361
    30  C    0.020275
    31  C   -0.054419
    32  C    0.122530
    33  C   -0.029570
    34  C    0.123603
    35  C    0.051418
    36  C   -0.002316
    37  C    0.171616
    38  C    0.049018
    39  C   -0.189239
    40  C    0.179777
    41  C    0.011950
    42  C    0.093095
    43  C   -0.122495
    44  H    0.025042
    45  H   -0.012753
    46  H   -0.021441
    47  H    0.143381
    48  H    0.140308
    49  H    0.012140
    50  H   -0.055945
    51  H    0.072124
    52  H    0.014325
    53  H    0.018822
    54  H    0.081199
    55  H    0.043212
    56  H    0.041659
    57  H    0.048188
    58  H    0.013751
    59  H    0.035639
    60  H    0.190348
    61  H    0.028226
    62  H    0.008578
    63  H    0.001267
    64  H    0.039876
    65  H    0.045870
    66  H    0.002390
    67  H    0.009873
    68  H    0.060418
    69  H   -0.080146
    70  H    0.030098
    71  H   -0.002160
    72  H    0.143631
    73  H    0.043127
    74  H    0.037317
    75  H   -0.021172
    76  H    0.059443
    77  H    0.183505
    78  H    0.064269
    79  H    0.062798
 Sum of Mulliken charges =  -0.00000

 Dipole moment (field-independent basis, Debye):
    X=              3.5760    Y=              3.8483    Z=             -1.0575  Tot=              5.3586
 Quadrupole moment (field-independent basis, Debye-Ang):
   XX=           -229.3188   YY=           -230.4474   ZZ=           -275.8814
   XY=              3.0812   XZ=            -14.6094   YZ=            -12.6149

 Normal termination of Gaussian 16 at Sun Jul 28 12:51:15 2019.
