 Gaussian 16, Revision A.03,
 Gaussian 16:  ES64L-G16RevA.03 25-Dec-2016

 --------------------------
 # td=(NStates=1) B3LYP/SVP
 --------------------------

 --
 TD
 --
 Symbolic Z-matrix:
 Charge =  0 Multiplicity = 1

                         Standard orientation:
 ---------------------------------------------------------------------
 Center     Atomic      Atomic             Coordinates (Angstroms)
 Number     Number       Type             X           Y           Z
 ---------------------------------------------------------------------
      1          8           0       -3.259112   -1.292309   -2.834540
      2          8           0        2.924489    3.354364    2.955714
      3          8           0        3.596171    1.703050    4.293052
      4          8           0        7.819790   -1.377789   -0.535207
      5          8           0        6.614186   -3.120242   -1.622329
      6          8           0       -2.554365    1.501261    1.490608
      7          7           0       -0.217420   -2.412586    0.896356
      8          7           0       -2.541545   -1.220386   -0.559825
      9          7           0        1.141587   -0.013911   -0.781236
     10          7           0       -0.972598    1.361653   -0.219002
     11          6           0       -3.374883   -1.394778    0.659993
     12          6           0       -2.649916   -2.465427    1.628194
     13          6           0       -1.180243   -2.079627    1.801449
     14          6           0       -0.527728   -1.174315    2.705179
     15          6           0        0.850876   -1.138494    2.399030
     16          6           0        0.915894   -1.883340    1.230005
     17          6           0       -4.657112   -1.945376    0.239457
     18          6           0        1.847256   -0.298530    3.052072
     19          6           0       -4.748498   -2.029712   -1.028621
     20          6           0        2.074765   -1.951697    0.317684
     21          6           0        2.126553   -0.994058   -0.753647
     22          6           0       -3.464577   -1.441770   -1.598953
     23          6           0        3.011104   -0.713434   -1.738734
     24          6           0       -1.196357   -0.414762    3.802647
     25          6           0       -5.741361   -2.122427    1.375106
     26          6           0        2.561000    0.396585   -2.536136
     27          6           0        1.764291    1.257066    2.672453
     28          6           0        1.358433    0.823992   -1.827000
     29          6           0        4.257763   -1.450455   -2.116816
     30          6           0       -5.810679   -2.392549   -1.865252
     31          6           0        5.415879   -1.027826   -1.224090
     32          6           0        3.210695    0.960665   -3.751450
     33          6           0        0.481198    1.875050   -2.150977
     34          6           0        2.855859    2.120864    3.456916
     35          6           0       -0.677656    2.208695   -1.280601
     36          6           0       -6.908288   -3.092750   -1.504489
     37          6           0        6.636278   -2.028704   -1.132111
     38          6           0       -1.535397    3.354490   -1.333335
     39          6           0       -2.352847    3.261081   -0.218868
     40          6           0       -1.985128    2.012849    0.458725
     41          6           0       -1.435406    4.435033   -2.261439
     42          6           0       -3.349059    4.272642    0.241847
     43          6           0       -2.022332    5.624847   -2.308925
     44          1           0       -3.527934   -0.498149    1.232736
     45          1           0       -2.712545   -3.567184    0.989244
     46          1           0       -3.159270   -2.496116    2.543116
     47          1           0       -0.566357   -2.869920    0.066865
     48          1           0       -1.809856   -0.339605   -0.701552
     49          1           0        1.874706   -0.105122    4.186576
     50          1           0        2.731860   -0.862621    2.889590
     51          1           0        2.719587   -2.811360    0.358375
     52          1           0       -1.929590   -1.045801    4.476571
     53          1           0       -0.372597   -0.238148    4.579804
     54          1           0       -1.555056    0.478946    3.250013
     55          1           0       -5.534009   -1.672054    2.241254
     56          1           0       -6.099689   -3.166564    1.761234
     57          1           0       -6.674442   -1.510905    0.928640
     58          1           0        2.057208    1.440463    1.690689
     59          1           0        0.778327    1.710951    2.894134
     60          1           0        0.356567    0.021580   -0.257196
     61          1           0        4.607984   -1.212459   -3.026694
     62          1           0        4.176416   -2.581889   -1.658849
     63          1           0       -5.759930   -1.952314   -2.937997
     64          1           0        5.209859   -1.008366   -0.098004
     65          1           0        5.723479    0.029838   -1.534793
     66          1           0        4.214012    0.374496   -3.997538
     67          1           0        3.603484    2.056986   -3.713484
     68          1           0        2.592779    0.841348   -4.710086
     69          1           0        0.585785    2.358011   -3.098106
     70          1           0       -7.087469   -3.397822   -0.331399
     71          1           0       -7.728101   -3.380805   -2.250725
     72          1           0        3.635586    3.907589    3.687845
     73          1           0       -0.700710    4.027012   -3.182939
     74          1           0       -4.136835    4.709098   -0.613913
     75          1           0       -4.073551    3.769730    0.991709
     76          1           0       -2.918592    5.159042    0.741477
     77          1           0        8.469986   -1.989031   -0.702637
     78          1           0       -1.931547    6.428386   -3.035050
     79          1           0       -2.561246    5.859739   -1.447209
 ---------------------------------------------------------------------

 SCF Done:  E(RB3LYP) =  -1947.81905586     A.U. after   22 cycles

 Excitation energies and oscillator strengths:

 Excited State   1:      Singlet-A      0.6881 eV 1801.76 nm  f=0.0010  <S**2>=0.000
     155 ->156         0.70278
 This state for optimization and/or second-order correction.
 Total Energy, E(TD-HF/TD-DFT) =  -1947.79376756
 Copying the excited state density for this state as the 1-particle RhoCI density.

 The electronic state is 1-A.
 Alpha  occ. eigenvalues --  -19.18970 -19.18116 -19.16250 -19.12230 -19.12078
 Alpha  occ. eigenvalues --  -19.07987 -14.37325 -14.36862 -14.33417 -14.31442
 Alpha  occ. eigenvalues --  -10.34549 -10.31168 -10.28409 -10.26926 -10.26575
 Alpha  occ. eigenvalues --  -10.26164 -10.25910 -10.23947 -10.23904 -10.23751
 Alpha  occ. eigenvalues --  -10.23450 -10.23086 -10.22469 -10.22398 -10.21847
 Alpha  occ. eigenvalues --  -10.21829 -10.21779 -10.21675 -10.21364 -10.20823
 Alpha  occ. eigenvalues --  -10.20722 -10.20277 -10.20174 -10.19857 -10.19428
 Alpha  occ. eigenvalues --  -10.19402 -10.19362 -10.18869 -10.18526 -10.17372
 Alpha  occ. eigenvalues --  -10.17242 -10.16501 -10.16115  -1.09548  -1.08860
 Alpha  occ. eigenvalues --   -1.02691  -1.01263  -1.00459  -0.99807  -0.99047
 Alpha  occ. eigenvalues --   -0.98072  -0.93297  -0.90726  -0.85139  -0.82486
 Alpha  occ. eigenvalues --   -0.82172  -0.81003  -0.80204  -0.79189  -0.77797
 Alpha  occ. eigenvalues --   -0.76490  -0.75504  -0.74852  -0.74239  -0.72698
 Alpha  occ. eigenvalues --   -0.71632  -0.69976  -0.69657  -0.69188  -0.67355
 Alpha  occ. eigenvalues --   -0.66512  -0.65580  -0.63414  -0.61404  -0.60194
 Alpha  occ. eigenvalues --   -0.59971  -0.58931  -0.58005  -0.57634  -0.57127
 Alpha  occ. eigenvalues --   -0.55647  -0.55449  -0.55266  -0.53557  -0.53065
 Alpha  occ. eigenvalues --   -0.52421  -0.51317  -0.50549  -0.50031  -0.49622
 Alpha  occ. eigenvalues --   -0.48982  -0.48564  -0.48162  -0.48058  -0.47790
 Alpha  occ. eigenvalues --   -0.47634  -0.46890  -0.46647  -0.46515  -0.45558
 Alpha  occ. eigenvalues --   -0.45536  -0.45311  -0.44759  -0.44352  -0.44160
 Alpha  occ. eigenvalues --   -0.43768  -0.43258  -0.43029  -0.42716  -0.42509
 Alpha  occ. eigenvalues --   -0.42341  -0.41803  -0.41494  -0.41121  -0.40718
 Alpha  occ. eigenvalues --   -0.40618  -0.40176  -0.40057  -0.39704  -0.39640
 Alpha  occ. eigenvalues --   -0.39211  -0.38841  -0.38404  -0.38265  -0.38018
 Alpha  occ. eigenvalues --   -0.37436  -0.37342  -0.36907  -0.36561  -0.36205
 Alpha  occ. eigenvalues --   -0.35700  -0.34834  -0.34593  -0.34571  -0.34069
 Alpha  occ. eigenvalues --   -0.33924  -0.32945  -0.32561  -0.32179  -0.31995
 Alpha  occ. eigenvalues --   -0.30925  -0.30509  -0.30364  -0.30057  -0.29054
 Alpha  occ. eigenvalues --   -0.27593  -0.27110  -0.26058  -0.24851  -0.24100
 Alpha  occ. eigenvalues --   -0.23300  -0.22638  -0.22594  -0.22178  -0.18932
 Alpha virt. eigenvalues --   -0.13809  -0.09280  -0.03228  -0.02452  -0.02282
 Alpha virt. eigenvalues --   -0.00358   0.01548   0.02088   0.02198   0.03103
 Alpha virt. eigenvalues --    0.03313   0.03820   0.04994   0.05201   0.05428

 Mulliken charges:
               1
     1  O   -0.281369
     2  O   -0.255387
     3  O   -0.216114
     4  O   -0.227515
     5  O   -0.181329
     6  O   -0.263424
     7  N    0.044147
     8  N   -0.297019
     9  N   -0.001100
    10  N   -0.339492
    11  C    0.095978
    12  C    0.148750
    13  C   -0.122118
    14  C   -0.152194
    15  C   -0.016605
    16  C   -0.094413
    17  C   -0.136259
    18  C    0.067115
    19  C    0.012173
    20  C   -0.063568
    21  C    0.092178
    22  C    0.150396
    23  C   -0.079349
    24  C    0.034353
    25  C    0.053020
    26  C   -0.076808
    27  C    0.015275
    28  C    0.097394
    29  C    0.180890
    30  C   -0.047406
    31  C   -0.094913
    32  C   -0.003988
    33  C   -0.067911
    34  C    0.115096
    35  C    0.096115
    36  C   -0.097261
    37  C    0.174158
    38  C    0.080267
    39  C   -0.150077
    40  C    0.191513
    41  C   -0.053869
    42  C   -0.012409
    43  C    0.010710
    44  H    0.036136
    45  H    0.007488
    46  H   -0.021280
    47  H    0.113949
    48  H    0.215419
    49  H    0.025392
    50  H   -0.013771
    51  H    0.010345
    52  H    0.017206
    53  H    0.000340
    54  H    0.071091
    55  H   -0.022748
    56  H    0.050225
    57  H    0.050539
    58  H    0.010007
    59  H    0.053274
    60  H    0.123988
    61  H   -0.029245
    62  H    0.052738
    63  H    0.029118
    64  H    0.060731
    65  H    0.047733
    66  H    0.027595
    67  H    0.058679
    68  H    0.060581
    69  H   -0.022659
    70  H    0.038252
    71  H    0.036302
    72  H    0.242290
    73  H    0.016806
    74  H    0.057586
    75  H    0.043158
    76  H    0.054056
    77  H    0.146323
    78  H    0.033773
    79  H   -0.009049
 Sum of Mulliken charges =  -0.00000

 Dipole moment (field-independent basis, Debye):
    X=              3.5273    Y=              3.8705    Z=             -1.6308  Tot=              5.4847
 Quadrupole moment (field-independent basis, Debye-Ang):
   XX=           -239.8550   YY=           -234.1170   ZZ=           -263.8522
   XY=             -0.8025   XZ=            -25.8207   YZ=            -11.9098

 Normal termination of Gaussian 16 at Wed Jul 24 05:06:43 2019.
