 Gaussian 16, Revision A.03,
 Gaussian 16:  ES64L-G16RevA.03 25-Dec-2016

 --------------------------
 # td=(NStates=1) B3LYP/SVP
 --------------------------

 --
 TD
 --
 Symbolic Z-matrix:
 Charge =  0 Multiplicity = 1

                         Standard orientation:
 ---------------------------------------------------------------------
 Center     Atomic      Atomic             Coordinates (Angstroms)
 Number     Number       Type             X           Y           Z
 ---------------------------------------------------------------------
      1          8           0       -3.235103   -1.429314   -2.955902
      2          8           0        2.992438    2.924927    3.171138
      3          8           0        3.580971    1.204485    4.572631
      4          8           0        7.688221   -1.546733   -0.569963
      5          8           0        6.752013   -2.731447   -2.367374
      6          8           0       -2.691819    1.673290    1.554649
      7          7           0       -0.293930   -2.546579    0.715748
      8          7           0       -2.605061   -1.210904   -0.673954
      9          7           0        1.192150    0.183515   -0.711706
     10          7           0       -1.121372    1.500440   -0.130403
     11          6           0       -3.427541   -1.351764    0.592294
     12          6           0       -2.669791   -2.302207    1.561840
     13          6           0       -1.202562   -2.158499    1.693390
     14          6           0       -0.466646   -1.356394    2.722022
     15          6           0        0.783774   -1.337048    2.377982
     16          6           0        0.939119   -2.001364    1.024992
     17          6           0       -4.711867   -1.915155    0.113587
     18          6           0        1.929262   -0.598468    3.082863
     19          6           0       -4.671830   -2.029654   -1.267073
     20          6           0        2.116481   -1.957343    0.232610
     21          6           0        2.053420   -0.861444   -0.656810
     22          6           0       -3.461278   -1.520680   -1.786022
     23          6           0        3.053113   -0.537411   -1.684520
     24          6           0       -1.214889   -0.643158    3.803836
     25          6           0       -5.774552   -2.076233    1.168752
     26          6           0        2.570945    0.649548   -2.380208
     27          6           0        1.974588    0.930309    2.716657
     28          6           0        1.432332    1.060150   -1.672718
     29          6           0        4.255713   -1.326880   -2.124679
     30          6           0       -5.793684   -2.567324   -2.106940
     31          6           0        5.436698   -1.068343   -1.187868
     32          6           0        3.169449    1.398979   -3.519999
     33          6           0        0.535333    2.200700   -1.845304
     34          6           0        2.892241    1.663556    3.659326
     35          6           0       -0.733171    2.284916   -1.149027
     36          6           0       -6.857595   -3.319513   -1.694174
     37          6           0        6.723514   -1.911930   -1.400611
     38          6           0       -1.477270    3.571402   -1.048568
     39          6           0       -2.377215    3.480195    0.047204
     40          6           0       -2.111269    2.093792    0.583333
     41          6           0       -1.333757    4.692623   -2.078408
     42          6           0       -3.423217    4.308122    0.560441
     43          6           0       -2.051249    5.771930   -2.307590
     44          1           0       -3.519748   -0.502041    1.342986
     45          1           0       -2.799454   -3.374522    1.273885
     46          1           0       -3.083114   -2.509594    2.609993
     47          1           0       -0.682398   -2.779191   -0.225254
     48          1           0       -2.093474   -0.378007   -0.623638
     49          1           0        1.778710   -0.793010    4.086276
     50          1           0        2.974989   -0.832320    2.486475
     51          1           0        2.880781   -2.818156    0.133573
     52          1           0       -1.805609   -1.322816    4.304019
     53          1           0       -0.562368   -0.411952    4.569799
     54          1           0       -1.921543    0.129431    3.662019
     55          1           0       -5.558976   -1.543377    1.857216
     56          1           0       -5.627624   -3.080677    1.488233
     57          1           0       -6.788121   -1.984531    0.740477
     58          1           0        2.315784    1.220038    1.850819
     59          1           0        1.076139    1.335548    2.875938
     60          1           0        0.321186    0.197400   -0.169452
     61          1           0        4.695526   -1.066461   -3.207719
     62          1           0        3.924706   -2.374547   -2.043034
     63          1           0       -5.594943   -2.129142   -2.993161
     64          1           0        5.119394   -1.094481   -0.195241
     65          1           0        5.679551   -0.058916   -1.314746
     66          1           0        4.005701    0.926946   -4.167857
     67          1           0        3.582506    2.311012   -3.516968
     68          1           0        2.373717    1.450660   -4.288317
     69          1           0        0.829856    2.928247   -2.493949
     70          1           0       -6.684985   -3.567390   -0.518047
     71          1           0       -7.797270   -3.543852   -2.319188
     72          1           0        3.579340    3.302742    3.854881
     73          1           0       -0.427358    4.530842   -2.766860
     74          1           0       -4.427363    4.126885   -0.174617
     75          1           0       -3.780714    3.910333    1.550262
     76          1           0       -3.288872    5.600431    0.595008
     77          1           0        8.391207   -2.113083   -1.051345
     78          1           0       -1.640304    6.479067   -3.274748
     79          1           0       -2.980728    5.989071   -1.760614
 ---------------------------------------------------------------------

 SCF Done:  E(RB3LYP) =  -1947.75494059     A.U. after   29 cycles

 Excitation energies and oscillator strengths:

 Excited State   1:      Singlet-A      0.4973 eV 2493.38 nm  f=0.0001  <S**2>=0.000
     155 ->156         0.70431
 This state for optimization and/or second-order correction.
 Total Energy, E(TD-HF/TD-DFT) =  -1947.73666683
 Copying the excited state density for this state as the 1-particle RhoCI density.

 The electronic state is 1-A.
 Alpha  occ. eigenvalues --  -19.22421 -19.18547 -19.14484 -19.12839 -19.11758
 Alpha  occ. eigenvalues --  -19.09482 -14.38090 -14.38020 -14.32708 -14.30451
 Alpha  occ. eigenvalues --  -10.34431 -10.31619 -10.27547 -10.27070 -10.26734
 Alpha  occ. eigenvalues --  -10.26340 -10.25568 -10.24110 -10.23711 -10.22972
 Alpha  occ. eigenvalues --  -10.22634 -10.22476 -10.22275 -10.21482 -10.21164
 Alpha  occ. eigenvalues --  -10.21057 -10.21037 -10.21034 -10.20993 -10.20970
 Alpha  occ. eigenvalues --  -10.20863 -10.20632 -10.20350 -10.20275 -10.19927
 Alpha  occ. eigenvalues --  -10.19807 -10.18648 -10.18377 -10.18106 -10.17819
 Alpha  occ. eigenvalues --  -10.17397 -10.16850 -10.15920  -1.12515  -1.09645
 Alpha  occ. eigenvalues --   -1.03657  -1.02608  -1.01889  -1.00707  -0.99910
 Alpha  occ. eigenvalues --   -0.95935  -0.93671  -0.91620  -0.83596  -0.82823
 Alpha  occ. eigenvalues --   -0.81159  -0.80993  -0.79976  -0.79156  -0.78296
 Alpha  occ. eigenvalues --   -0.77481  -0.77115  -0.75760  -0.74644  -0.73461
 Alpha  occ. eigenvalues --   -0.71573  -0.71238  -0.70322  -0.69410  -0.67674
 Alpha  occ. eigenvalues --   -0.67043  -0.65825  -0.63119  -0.60875  -0.60613
 Alpha  occ. eigenvalues --   -0.59715  -0.59131  -0.58547  -0.58379  -0.57038
 Alpha  occ. eigenvalues --   -0.56568  -0.56007  -0.54487  -0.52932  -0.52759
 Alpha  occ. eigenvalues --   -0.52033  -0.51933  -0.51284  -0.50895  -0.50260
 Alpha  occ. eigenvalues --   -0.49871  -0.49128  -0.48910  -0.48580  -0.48426
 Alpha  occ. eigenvalues --   -0.48033  -0.47799  -0.47243  -0.46665  -0.46142
 Alpha  occ. eigenvalues --   -0.45727  -0.45593  -0.44804  -0.44733  -0.44488
 Alpha  occ. eigenvalues --   -0.44116  -0.43434  -0.43149  -0.42908  -0.42530
 Alpha  occ. eigenvalues --   -0.42434  -0.42076  -0.41974  -0.41605  -0.41548
 Alpha  occ. eigenvalues --   -0.40993  -0.40855  -0.40365  -0.40131  -0.39920
 Alpha  occ. eigenvalues --   -0.39754  -0.39478  -0.39135  -0.38679  -0.38557
 Alpha  occ. eigenvalues --   -0.38486  -0.38018  -0.37597  -0.36981  -0.36883
 Alpha  occ. eigenvalues --   -0.36697  -0.35654  -0.35454  -0.34451  -0.33966
 Alpha  occ. eigenvalues --   -0.33860  -0.33222  -0.32886  -0.32311  -0.31301
 Alpha  occ. eigenvalues --   -0.30803  -0.29689  -0.29523  -0.29265  -0.28542
 Alpha  occ. eigenvalues --   -0.28071  -0.26831  -0.26290  -0.25416  -0.24935
 Alpha  occ. eigenvalues --   -0.24218  -0.23055  -0.22792  -0.22151  -0.17878
 Alpha virt. eigenvalues --   -0.13208  -0.07889  -0.04795  -0.02234  -0.00983
 Alpha virt. eigenvalues --    0.00021   0.00361   0.01257   0.01822   0.03038
 Alpha virt. eigenvalues --    0.03729   0.04085   0.04441   0.04846   0.05080

 Mulliken charges:
               1
     1  O   -0.195602
     2  O   -0.180554
     3  O   -0.246652
     4  O   -0.150395
     5  O   -0.280210
     6  O   -0.199136
     7  N   -0.049110
     8  N   -0.256222
     9  N   -0.009765
    10  N   -0.299064
    11  C    0.053158
    12  C    0.144449
    13  C   -0.154416
    14  C   -0.111969
    15  C   -0.109946
    16  C   -0.037145
    17  C   -0.191469
    18  C    0.104522
    19  C   -0.114909
    20  C   -0.099874
    21  C    0.076111
    22  C    0.157463
    23  C   -0.117823
    24  C    0.235362
    25  C    0.308979
    26  C   -0.075941
    27  C    0.134973
    28  C    0.064935
    29  C    0.091723
    30  C    0.076291
    31  C    0.021860
    32  C    0.080419
    33  C   -0.030148
    34  C    0.111503
    35  C    0.141614
    36  C   -0.066199
    37  C    0.174167
    38  C   -0.016076
    39  C   -0.130575
    40  C    0.144198
    41  C    0.000545
    42  C   -0.063964
    43  C   -0.076521
    44  H    0.068870
    45  H   -0.031754
    46  H   -0.001213
    47  H    0.141677
    48  H    0.129786
    49  H    0.003151
    50  H    0.017446
    51  H    0.047702
    52  H   -0.047464
    53  H   -0.048839
    54  H    0.023455
    55  H   -0.096642
    56  H    0.015853
    57  H    0.038690
    58  H   -0.019738
    59  H   -0.004066
    60  H    0.172230
    61  H    0.048866
    62  H    0.023538
    63  H   -0.048046
    64  H    0.011379
    65  H    0.011337
    66  H    0.011588
    67  H    0.004153
    68  H    0.025088
    69  H   -0.057830
    70  H    0.030734
    71  H    0.053399
    72  H    0.167186
    73  H    0.007497
    74  H    0.059232
    75  H    0.045028
    76  H    0.064540
    77  H    0.198881
    78  H    0.053066
    79  H    0.022632
 Sum of Mulliken charges =  -0.00000

 Dipole moment (field-independent basis, Debye):
    X=              3.0112    Y=              2.5186    Z=             -0.3547  Tot=              3.9416
 Quadrupole moment (field-independent basis, Debye-Ang):
   XX=           -225.2200   YY=           -244.8725   ZZ=           -269.9828
   XY=              6.0505   XZ=            -23.6354   YZ=            -13.8271

 Normal termination of Gaussian 16 at Thu Jul 25 07:05:33 2019.
