 Gaussian 16, Revision A.03,
 Gaussian 16:  ES64L-G16RevA.03 25-Dec-2016

 --------------------------
 # td=(NStates=1) B3LYP/SVP
 --------------------------

 --
 TD
 --
 Symbolic Z-matrix:
 Charge =  0 Multiplicity = 1

                         Standard orientation:
 ---------------------------------------------------------------------
 Center     Atomic      Atomic             Coordinates (Angstroms)
 Number     Number       Type             X           Y           Z
 ---------------------------------------------------------------------
      1          8           0       -3.402040   -0.861116   -2.977215
      2          8           0        3.378029    2.629619    3.568384
      3          8           0        4.098514    0.514834    4.189261
      4          8           0        7.731782   -1.322035   -1.137989
      5          8           0        6.477242   -2.893110   -2.290337
      6          8           0       -2.629223    1.458489    1.715485
      7          7           0       -0.357611   -2.451767    0.495412
      8          7           0       -2.710025   -1.075575   -0.780777
      9          7           0        1.097406    0.199890   -0.749110
     10          7           0       -1.044122    1.395126   -0.015925
     11          6           0       -3.454949   -1.354475    0.563711
     12          6           0       -2.715744   -2.483384    1.411667
     13          6           0       -1.289100   -2.278116    1.541216
     14          6           0       -0.497092   -1.500054    2.638486
     15          6           0        0.831032   -1.431782    2.281918
     16          6           0        0.881373   -1.996712    0.928362
     17          6           0       -4.774423   -1.762464    0.160801
     18          6           0        2.033390   -0.824633    3.006883
     19          6           0       -4.890831   -1.801690   -1.156282
     20          6           0        2.070213   -1.906858    0.105942
     21          6           0        2.048296   -0.816245   -0.754021
     22          6           0       -3.695569   -1.147110   -1.810469
     23          6           0        2.986145   -0.375272   -1.888002
     24          6           0       -1.127369   -0.849782    3.872498
     25          6           0       -5.784294   -2.268749    1.093563
     26          6           0        2.474105    0.829020   -2.397119
     27          6           0        2.089096    0.754861    2.885212
     28          6           0        1.419238    1.159167   -1.641760
     29          6           0        4.165700   -1.265415   -2.214926
     30          6           0       -5.919148   -2.221418   -2.233032
     31          6           0        5.449182   -0.938157   -1.356360
     32          6           0        3.036153    1.699636   -3.492583
     33          6           0        0.484174    2.193132   -1.792866
     34          6           0        3.277274    1.293166    3.585124
     35          6           0       -0.530818    2.415816   -0.889910
     36          6           0       -6.841749   -3.157775   -1.943558
     37          6           0        6.645726   -1.819647   -1.693798
     38          6           0       -1.469926    3.607449   -0.812939
     39          6           0       -2.272682    3.379768    0.283887
     40          6           0       -2.008127    2.022729    0.777710
     41          6           0       -1.418020    4.724588   -1.710287
     42          6           0       -3.473101    4.127095    0.776513
     43          6           0       -2.039350    5.904587   -1.658391
     44          1           0       -3.719157   -0.243407    0.973536
     45          1           0       -2.932745   -3.449725    0.872707
     46          1           0       -3.310004   -2.589183    2.502054
     47          1           0       -0.858603   -2.788217   -0.341159
     48          1           0       -2.073047   -0.290362   -0.684583
     49          1           0        1.683019   -0.927656    4.092471
     50          1           0        3.106047   -1.250221    2.592543
     51          1           0        2.626358   -2.768904   -0.023723
     52          1           0       -1.872076   -1.525249    4.401258
     53          1           0       -0.201681   -0.811125    4.458600
     54          1           0       -1.449866    0.133488    3.771853
     55          1           0       -5.820252   -1.473464    2.124102
     56          1           0       -5.790469   -3.211310    1.693483
     57          1           0       -6.871745   -2.179565    0.841692
     58          1           0        2.250141    1.066496    1.862484
     59          1           0        1.275089    1.191835    3.101195
     60          1           0        0.167603    0.114819   -0.037730
     61          1           0        4.490313   -1.040768   -3.239149
     62          1           0        3.970819   -2.341488   -2.104065
     63          1           0       -5.845639   -1.616400   -3.064454
     64          1           0        5.194505   -1.065468   -0.252794
     65          1           0        5.543837    0.192825   -1.456236
     66          1           0        3.895529    1.122661   -3.981615
     67          1           0        3.567162    2.602052   -3.163570
     68          1           0        2.293176    1.874086   -4.305619
     69          1           0        0.710995    3.056700   -2.659548
     70          1           0       -6.649113   -3.910199   -1.036761
     71          1           0       -7.490456   -3.604326   -2.727901
     72          1           0        4.083841    3.006937    4.204466
     73          1           0       -0.572686    4.849633   -2.273699
     74          1           0       -4.215483    4.277003   -0.010457
     75          1           0       -3.996964    3.556770    1.575771
     76          1           0       -3.282308    5.140834    1.308974
     77          1           0        8.466326   -1.947245   -1.475717
     78          1           0       -1.724113    6.655115   -2.509744
     79          1           0       -2.915168    6.038200   -1.019698
 ---------------------------------------------------------------------

 SCF Done:  E(RB3LYP) =  -1947.81596250     A.U. after   21 cycles

 Excitation energies and oscillator strengths:

 Excited State   1:      Singlet-A      0.5768 eV 2149.52 nm  f=0.0004  <S**2>=0.000
     155 ->156         0.70490
 This state for optimization and/or second-order correction.
 Total Energy, E(TD-HF/TD-DFT) =  -1947.79476554
 Copying the excited state density for this state as the 1-particle RhoCI density.

 The electronic state is 1-A.
 Alpha  occ. eigenvalues --  -19.21844 -19.19324 -19.14403 -19.11470 -19.10980
 Alpha  occ. eigenvalues --  -19.08574 -14.37995 -14.36856 -14.31931 -14.30822
 Alpha  occ. eigenvalues --  -10.34189 -10.32077 -10.27234 -10.26592 -10.25759
 Alpha  occ. eigenvalues --  -10.25523 -10.25256 -10.24085 -10.22767 -10.22410
 Alpha  occ. eigenvalues --  -10.22317 -10.22301 -10.22150 -10.21940 -10.21805
 Alpha  occ. eigenvalues --  -10.21617 -10.21497 -10.21402 -10.21208 -10.20825
 Alpha  occ. eigenvalues --  -10.20761 -10.20568 -10.20564 -10.20064 -10.19735
 Alpha  occ. eigenvalues --  -10.19626 -10.19268 -10.19201 -10.18737 -10.18618
 Alpha  occ. eigenvalues --  -10.17930 -10.17840 -10.16985  -1.12132  -1.08210
 Alpha  occ. eigenvalues --   -1.01892  -1.00369  -0.99545  -0.99366  -0.97126
 Alpha  occ. eigenvalues --   -0.95142  -0.91051  -0.89858  -0.83349  -0.82664
 Alpha  occ. eigenvalues --   -0.81189  -0.80359  -0.80092  -0.78596  -0.77946
 Alpha  occ. eigenvalues --   -0.76579  -0.76213  -0.75682  -0.74017  -0.72646
 Alpha  occ. eigenvalues --   -0.70521  -0.69822  -0.69412  -0.69070  -0.67088
 Alpha  occ. eigenvalues --   -0.66496  -0.65504  -0.62662  -0.61323  -0.60701
 Alpha  occ. eigenvalues --   -0.60456  -0.58681  -0.57829  -0.57102  -0.56458
 Alpha  occ. eigenvalues --   -0.55738  -0.55606  -0.55124  -0.52790  -0.52075
 Alpha  occ. eigenvalues --   -0.51559  -0.50910  -0.50713  -0.50661  -0.50073
 Alpha  occ. eigenvalues --   -0.49595  -0.49263  -0.48477  -0.48134  -0.47310
 Alpha  occ. eigenvalues --   -0.47188  -0.46826  -0.46620  -0.46037  -0.45723
 Alpha  occ. eigenvalues --   -0.45013  -0.44510  -0.43999  -0.43879  -0.43714
 Alpha  occ. eigenvalues --   -0.43275  -0.43002  -0.42636  -0.42202  -0.41471
 Alpha  occ. eigenvalues --   -0.41115  -0.40675  -0.40638  -0.40298  -0.40034
 Alpha  occ. eigenvalues --   -0.39886  -0.39679  -0.39430  -0.38949  -0.38787
 Alpha  occ. eigenvalues --   -0.38607  -0.38459  -0.38397  -0.38028  -0.37701
 Alpha  occ. eigenvalues --   -0.37495  -0.37261  -0.37098  -0.36119  -0.35951
 Alpha  occ. eigenvalues --   -0.35836  -0.35660  -0.35170  -0.34547  -0.34161
 Alpha  occ. eigenvalues --   -0.33948  -0.33704  -0.32702  -0.31846  -0.30950
 Alpha  occ. eigenvalues --   -0.30893  -0.29829  -0.29543  -0.29162  -0.28396
 Alpha  occ. eigenvalues --   -0.26883  -0.26651  -0.25208  -0.24681  -0.23766
 Alpha  occ. eigenvalues --   -0.23483  -0.23258  -0.22969  -0.21939  -0.17793
 Alpha virt. eigenvalues --   -0.13029  -0.07821  -0.04052  -0.02027  -0.01590
 Alpha virt. eigenvalues --   -0.00388   0.00712   0.01535   0.01724   0.02591
 Alpha virt. eigenvalues --    0.03053   0.03721   0.04232   0.04407   0.05317

 Mulliken charges:
               1
     1  O   -0.249656
     2  O   -0.204058
     3  O   -0.298868
     4  O   -0.156415
     5  O   -0.252074
     6  O   -0.255003
     7  N   -0.077068
     8  N   -0.266603
     9  N   -0.171789
    10  N   -0.379324
    11  C    0.067975
    12  C    0.119227
    13  C   -0.080150
    14  C   -0.165339
    15  C   -0.065033
    16  C   -0.055716
    17  C   -0.147140
    18  C    0.080680
    19  C   -0.089629
    20  C   -0.034316
    21  C    0.101422
    22  C    0.156221
    23  C   -0.083526
    24  C    0.134564
    25  C   -0.031153
    26  C   -0.129323
    27  C    0.107225
    28  C    0.150469
    29  C    0.112189
    30  C    0.072081
    31  C   -0.075154
    32  C    0.082481
    33  C   -0.169434
    34  C    0.152977
    35  C    0.137445
    36  C   -0.059750
    37  C    0.175209
    38  C    0.087610
    39  C   -0.172204
    40  C    0.199191
    41  C    0.006014
    42  C    0.046525
    43  C   -0.055010
    44  H    0.094048
    45  H   -0.003624
    46  H    0.042114
    47  H    0.136957
    48  H    0.141974
    49  H    0.029534
    50  H    0.048551
    51  H   -0.005471
    52  H    0.015278
    53  H   -0.034488
    54  H    0.027284
    55  H    0.012269
    56  H    0.043849
    57  H    0.033975
    58  H    0.016518
    59  H   -0.037577
    60  H    0.278008
    61  H    0.010009
    62  H    0.035324
    63  H   -0.007485
    64  H    0.058738
    65  H    0.036997
    66  H    0.010782
    67  H    0.040694
    68  H    0.048886
    69  H    0.039195
    70  H    0.044305
    71  H    0.026590
    72  H    0.217425
    73  H   -0.040342
    74  H    0.037437
    75  H    0.025713
    76  H    0.036291
    77  H    0.206647
    78  H    0.047818
    79  H    0.020012
 Sum of Mulliken charges =  -0.00000

 Dipole moment (field-independent basis, Debye):
    X=              4.6943    Y=              3.5369    Z=             -1.0311  Tot=              5.9674
 Quadrupole moment (field-independent basis, Debye-Ang):
   XX=           -225.4657   YY=           -234.6653   ZZ=           -266.0282
   XY=             12.6668   XZ=            -24.3821   YZ=             -5.2413

 Normal termination of Gaussian 16 at Thu Jul 25 18:45:27 2019.
