 Gaussian 16, Revision A.03,
 Gaussian 16:  ES64L-G16RevA.03 25-Dec-2016

 --------------------------
 # td=(NStates=1) B3LYP/SVP
 --------------------------

 --
 TD
 --
 Symbolic Z-matrix:
 Charge =  0 Multiplicity = 1

                         Standard orientation:
 ---------------------------------------------------------------------
 Center     Atomic      Atomic             Coordinates (Angstroms)
 Number     Number       Type             X           Y           Z
 ---------------------------------------------------------------------
      1          8           0        5.337025    0.085520   -3.259990
      2          8           0       -3.153113   -2.891344    3.165791
      3          8           0       -3.213879   -0.548351    3.147766
      4          8           0       -1.598322    7.159621    1.576172
      5          8           0       -0.578930    6.920878   -0.564175
      6          8           0       -1.931016   -4.102387    0.073554
      7          7           0        2.459360    0.997063    0.709398
      8          7           0        4.325296   -0.673670   -1.185264
      9          7           0       -1.776595    0.663011   -0.408357
     10          7           0       -2.562059   -1.860803   -0.490625
     11          6           0        4.727178   -1.286625    0.068685
     12          6           0        4.462795   -0.456654    1.248653
     13          6           0        2.943640   -0.067692    1.376807
     14          6           0        1.883848   -0.681544    2.079158
     15          6           0        0.704959   -0.004453    1.783660
     16          6           0        1.087906    0.993560    0.823529
     17          6           0        6.201164   -1.500388   -0.188185
     18          6           0       -0.614800   -0.215033    2.559781
     19          6           0        6.532175   -0.932157   -1.383134
     20          6           0        0.313045    1.977014    0.156714
     21          6           0       -0.990419    1.840383   -0.364367
     22          6           0        5.353928   -0.467123   -2.118768
     23          6           0       -1.834975    2.840958   -0.851512
     24          6           0        2.213760   -1.655592    3.126023
     25          6           0        7.137934   -2.090367    0.899801
     26          6           0       -3.005765    2.338322   -1.311109
     27          6           0       -1.127561   -1.659254    2.499244
     28          6           0       -2.976708    0.996440   -0.941960
     29          6           0       -1.398622    4.345333   -0.940831
     30          6           0        7.819809   -0.730556   -2.136308
     31          6           0       -1.722413    5.024693    0.456668
     32          6           0       -4.193650    3.127977   -1.961035
     33          6           0       -3.903202   -0.024661   -1.366730
     34          6           0       -2.587639   -1.636188    2.939825
     35          6           0       -3.649171   -1.443686   -1.129614
     36          6           0        9.112126   -0.963248   -1.603082
     37          6           0       -1.168217    6.530232    0.368805
     38          6           0       -4.602220   -2.526677   -1.538107
     39          6           0       -4.023517   -3.662529   -0.998888
     40          6           0       -2.795586   -3.300020   -0.345561
     41          6           0       -5.866806   -2.373010   -2.233191
     42          6           0       -4.605134   -5.121652   -1.125910
     43          6           0       -6.845962   -3.358231   -2.517231
     44          1           0        4.167427   -2.298157    0.162702
     45          1           0        5.239556    0.468005    1.185344
     46          1           0        4.656681   -1.318768    2.162897
     47          1           0        3.079516    1.509226   -0.009996
     48          1           0        3.298687   -0.627679   -1.469475
     49          1           0       -0.433784    0.066443    3.438038
     50          1           0       -1.206653    0.543011    2.288623
     51          1           0        0.683175    2.834810   -0.224880
     52          1           0        3.241002   -1.689068    3.275733
     53          1           0        1.933014   -1.429846    4.248618
     54          1           0        1.875502   -2.626758    3.074515
     55          1           0        6.690335   -2.971208    1.536197
     56          1           0        7.440988   -1.443630    1.576196
     57          1           0        8.040782   -2.533961    0.624900
     58          1           0       -1.120282   -2.222490    1.571053
     59          1           0       -0.452281   -2.268058    3.015310
     60          1           0       -1.632197   -0.245616   -0.257391
     61          1           0       -1.847777    4.918218   -1.829185
     62          1           0       -0.256917    4.152107   -1.207264
     63          1           0        7.735869   -0.863812   -3.111515
     64          1           0       -1.085790    4.618952    1.205232
     65          1           0       -2.796801    5.137669    0.706420
     66          1           0       -3.912851    4.092898   -2.106765
     67          1           0       -5.102804    3.049281   -1.507388
     68          1           0       -4.532536    2.680756   -2.911851
     69          1           0       -4.827994    0.443457   -1.574718
     70          1           0        9.429986   -1.157298   -0.582309
     71          1           0        9.869625   -0.953317   -2.334950
     72          1           0       -3.900640   -2.705497    3.425720
     73          1           0       -6.022908   -1.365098   -2.610460
     74          1           0       -5.479919   -5.193751   -0.592939
     75          1           0       -4.937972   -5.363873   -2.263480
     76          1           0       -3.788084   -5.733332   -0.983828
     77          1           0       -0.955539    8.018426    1.573965
     78          1           0       -7.950319   -3.093939   -2.872579
     79          1           0       -6.645620   -4.444242   -2.100480
 ---------------------------------------------------------------------

 SCF Done:  E(RB3LYP) =  -1947.77389847     A.U. after   18 cycles

 Excitation energies and oscillator strengths:

 Excited State   1:      Singlet-A      1.9493 eV  636.03 nm  f=0.4689  <S**2>=0.000
     154 ->156        -0.15040
     155 ->156         0.68805
     155 <-156        -0.12813
 This state for optimization and/or second-order correction.
 Total Energy, E(TD-HF/TD-DFT) =  -1947.70226176
 Copying the excited state density for this state as the 1-particle RhoCI density.

 The electronic state is 1-A.
 Alpha  occ. eigenvalues --  -19.19529 -19.16472 -19.15559 -19.12044 -19.10714
 Alpha  occ. eigenvalues --  -19.10158 -14.40171 -14.36454 -14.34961 -14.28957
 Alpha  occ. eigenvalues --  -10.33147 -10.32055 -10.29238 -10.26286 -10.25817
 Alpha  occ. eigenvalues --  -10.25073 -10.24236 -10.23958 -10.23841 -10.23255
 Alpha  occ. eigenvalues --  -10.23135 -10.23127 -10.22470 -10.21650 -10.21628
 Alpha  occ. eigenvalues --  -10.21553 -10.20982 -10.20979 -10.20702 -10.20460
 Alpha  occ. eigenvalues --  -10.20375 -10.20300 -10.20204 -10.19995 -10.19815
 Alpha  occ. eigenvalues --  -10.19556 -10.19319 -10.19118 -10.19044 -10.18844
 Alpha  occ. eigenvalues --  -10.18594 -10.18475 -10.17186  -1.09805  -1.09732
 Alpha  occ. eigenvalues --   -1.01874  -1.00638  -1.00129  -0.99410  -0.98495
 Alpha  occ. eigenvalues --   -0.98363  -0.94380  -0.90957  -0.82663  -0.82483
 Alpha  occ. eigenvalues --   -0.81689  -0.81474  -0.79756  -0.79287  -0.77922
 Alpha  occ. eigenvalues --   -0.76967  -0.76059  -0.75112  -0.73820  -0.72637
 Alpha  occ. eigenvalues --   -0.72367  -0.72043  -0.69847  -0.69159  -0.68845
 Alpha  occ. eigenvalues --   -0.67537  -0.65672  -0.64055  -0.61723  -0.61104
 Alpha  occ. eigenvalues --   -0.60561  -0.58868  -0.58433  -0.58248  -0.57405
 Alpha  occ. eigenvalues --   -0.57071  -0.56119  -0.55552  -0.54785  -0.53816
 Alpha  occ. eigenvalues --   -0.52723  -0.52083  -0.50951  -0.50304  -0.50022
 Alpha  occ. eigenvalues --   -0.49488  -0.48875  -0.48395  -0.47698  -0.47445
 Alpha  occ. eigenvalues --   -0.47178  -0.46846  -0.46518  -0.46410  -0.45757
 Alpha  occ. eigenvalues --   -0.45257  -0.44702  -0.44392  -0.44212  -0.43591
 Alpha  occ. eigenvalues --   -0.43508  -0.43205  -0.42788  -0.42637  -0.42483
 Alpha  occ. eigenvalues --   -0.42168  -0.42087  -0.41781  -0.41653  -0.41227
 Alpha  occ. eigenvalues --   -0.40864  -0.40628  -0.40507  -0.40065  -0.40019
 Alpha  occ. eigenvalues --   -0.39712  -0.39285  -0.39048  -0.38998  -0.38812
 Alpha  occ. eigenvalues --   -0.38480  -0.38463  -0.38131  -0.37863  -0.37222
 Alpha  occ. eigenvalues --   -0.36828  -0.36024  -0.35766  -0.34728  -0.34641
 Alpha  occ. eigenvalues --   -0.34065  -0.33608  -0.33325  -0.33120  -0.31026
 Alpha  occ. eigenvalues --   -0.30789  -0.30711  -0.29325  -0.28647  -0.27963
 Alpha  occ. eigenvalues --   -0.27132  -0.26887  -0.26098  -0.25854  -0.25779
 Alpha  occ. eigenvalues --   -0.24657  -0.23999  -0.23671  -0.21970  -0.18369
 Alpha virt. eigenvalues --   -0.10856  -0.07137  -0.06910  -0.01188  -0.01034
 Alpha virt. eigenvalues --   -0.00304  -0.00123   0.00749   0.01784   0.02143
 Alpha virt. eigenvalues --    0.02956   0.03703   0.04322   0.04798   0.05933

 Mulliken charges:
               1
     1  O   -0.267621
     2  O   -0.093059
     3  O   -0.284956
     4  O   -0.279710
     5  O   -0.156476
     6  O   -0.245028
     7  N   -0.057370
     8  N   -0.261532
     9  N   -0.001558
    10  N   -0.309296
    11  C    0.087929
    12  C    0.080878
    13  C   -0.084460
    14  C   -0.097761
    15  C   -0.133959
    16  C    0.060944
    17  C   -0.144675
    18  C    0.348549
    19  C   -0.074211
    20  C   -0.008618
    21  C    0.056194
    22  C    0.201044
    23  C   -0.085752
    24  C    0.118904
    25  C    0.129471
    26  C   -0.131784
    27  C    0.043951
    28  C    0.020291
    29  C    0.001992
    30  C    0.053803
    31  C    0.028385
    32  C    0.207819
    33  C   -0.075852
    34  C    0.171938
    35  C    0.103204
    36  C   -0.025374
    37  C    0.142290
    38  C    0.046030
    39  C   -0.204691
    40  C    0.176114
    41  C   -0.015028
    42  C    0.130126
    43  C   -0.086489
    44  H    0.038421
    45  H    0.033753
    46  H    0.048080
    47  H    0.156650
    48  H    0.150683
    49  H   -0.075318
    50  H   -0.049418
    51  H   -0.084985
    52  H   -0.044389
    53  H    0.014135
    54  H    0.010021
    55  H    0.020694
    56  H   -0.009348
    57  H    0.004664
    58  H    0.052944
    59  H   -0.005649
    60  H    0.067040
    61  H    0.041977
    62  H    0.044145
    63  H   -0.013979
    64  H    0.031723
    65  H    0.057963
    66  H   -0.021212
    67  H   -0.007723
    68  H    0.006525
    69  H   -0.035439
    70  H    0.023264
    71  H    0.019864
    72  H    0.079936
    73  H   -0.008796
    74  H    0.022395
    75  H    0.032269
    76  H    0.007231
    77  H    0.212142
    78  H    0.057507
    79  H    0.037636
 Sum of Mulliken charges =  -0.00000

 Dipole moment (field-independent basis, Debye):
    X=              2.4191    Y=              2.6763    Z=              3.8218  Tot=              5.2556
 Quadrupole moment (field-independent basis, Debye-Ang):
   XX=           -216.4123   YY=           -244.8819   ZZ=           -264.8646
   XY=            -13.0077   XZ=             34.1688   YZ=              2.2591

 Normal termination of Gaussian 16 at Fri Sep 13 23:45:12 2019.
