 Gaussian 16, Revision A.03,
 Gaussian 16:  ES64L-G16RevA.03 25-Dec-2016

 --------------------------
 # td=(NStates=1) B3LYP/SVP
 --------------------------

 --
 TD
 --
 Symbolic Z-matrix:
 Charge =  0 Multiplicity = 1

                         Standard orientation:
 ---------------------------------------------------------------------
 Center     Atomic      Atomic             Coordinates (Angstroms)
 Number     Number       Type             X           Y           Z
 ---------------------------------------------------------------------
      1          8           0        5.396493   -0.249641   -3.368129
      2          8           0       -3.156207   -2.857564    3.088559
      3          8           0       -3.357443   -0.664619    2.691906
      4          8           0       -1.559843    7.269949    1.470230
      5          8           0       -0.488769    6.960093   -0.532436
      6          8           0       -1.900174   -3.914770    0.085696
      7          7           0        2.351894    0.898775    0.720190
      8          7           0        4.388706   -0.495727   -1.303254
      9          7           0       -1.767645    0.746151   -0.438887
     10          7           0       -2.642789   -1.836914   -0.437903
     11          6           0        4.718045   -1.186630   -0.018317
     12          6           0        4.359904   -0.367619    1.240198
     13          6           0        2.956810   -0.047268    1.309951
     14          6           0        1.986676   -0.673256    2.158058
     15          6           0        0.742533   -0.043767    1.859422
     16          6           0        0.951114    0.935278    0.859795
     17          6           0        6.249896   -1.419695   -0.187370
     18          6           0       -0.535468   -0.265989    2.670453
     19          6           0        6.704444   -0.936646   -1.405784
     20          6           0        0.211448    1.907793    0.163663
     21          6           0       -1.013278    1.830272   -0.285674
     22          6           0        5.366584   -0.542215   -2.172947
     23          6           0       -1.776168    2.939894   -0.851105
     24          6           0        2.191225   -1.761651    3.265228
     25          6           0        6.994364   -1.981355    0.996824
     26          6           0       -2.952931    2.478267   -1.324571
     27          6           0       -1.188947   -1.680234    2.538820
     28          6           0       -2.967187    0.956302   -1.076622
     29          6           0       -1.339113    4.333188   -0.862668
     30          6           0        7.915096   -0.895900   -2.005316
     31          6           0       -1.559229    5.108734    0.483605
     32          6           0       -4.207267    3.037526   -1.942933
     33          6           0       -3.909028   -0.026280   -1.391348
     34          6           0       -2.764607   -1.678331    2.744400
     35          6           0       -3.702820   -1.445941   -1.140559
     36          6           0        9.264305   -1.164096   -1.519226
     37          6           0       -1.207771    6.494471    0.380493
     38          6           0       -4.685530   -2.536711   -1.556184
     39          6           0       -4.070358   -3.610688   -1.035476
     40          6           0       -2.763657   -3.263974   -0.402834
     41          6           0       -5.979673   -2.406203   -2.106449
     42          6           0       -4.520056   -5.114888   -1.076520
     43          6           0       -6.856274   -3.417133   -2.379866
     44          1           0        4.138304   -2.095315    0.002576
     45          1           0        5.054015    0.618364    1.286333
     46          1           0        4.489636   -0.907287    2.172127
     47          1           0        2.956336    1.681355    0.146915
     48          1           0        3.363984   -0.440013   -1.701059
     49          1           0       -0.450792   -0.056798    3.788879
     50          1           0       -1.268665    0.543797    2.301190
     51          1           0        0.965072    2.857884   -0.184517
     52          1           0        3.194548   -2.072547    3.515810
     53          1           0        1.954209   -1.370329    4.101212
     54          1           0        1.737310   -2.853085    2.986344
     55          1           0        6.246262   -2.642975    1.544348
     56          1           0        7.499514   -1.116529    1.660762
     57          1           0        7.837306   -2.713037    0.658324
     58          1           0       -1.060727   -2.281213    1.586690
     59          1           0       -0.705110   -2.409861    3.452555
     60          1           0       -1.291848   -0.132184   -0.070548
     61          1           0       -1.899252    4.805791   -1.733089
     62          1           0       -0.235556    4.502967   -1.041506
     63          1           0        7.810250   -0.667701   -2.992169
     64          1           0       -0.868674    4.588265    1.246708
     65          1           0       -2.550019    5.030663    0.815696
     66          1           0       -4.133533    4.233344   -2.164976
     67          1           0       -4.987296    3.105438   -1.150902
     68          1           0       -4.689119    2.739831   -2.845475
     69          1           0       -4.732265    0.265787   -2.042549
     70          1           0        9.304985   -1.113751   -0.371538
     71          1           0       10.084725   -1.114784   -1.941063
     72          1           0       -3.986532   -2.740813    3.490811
     73          1           0       -6.166333   -1.268605   -2.455333
     74          1           0       -5.367085   -5.173174   -0.219138
     75          1           0       -4.908752   -5.297073   -2.142062
     76          1           0       -3.544877   -5.646672   -0.890810
     77          1           0       -0.996141    8.092351    1.271938
     78          1           0       -7.813651   -3.384373   -2.741362
     79          1           0       -6.442344   -4.432826   -2.183598
 ---------------------------------------------------------------------

 SCF Done:  E(RB3LYP) =  -1947.82086702     A.U. after   16 cycles

 Excitation energies and oscillator strengths:

 Excited State   1:      Singlet-A      2.0733 eV  598.02 nm  f=0.4536  <S**2>=0.000
     155 ->156         0.69996
     155 <-156        -0.10097
 This state for optimization and/or second-order correction.
 Total Energy, E(TD-HF/TD-DFT) =  -1947.74467606
 Copying the excited state density for this state as the 1-particle RhoCI density.

 The electronic state is 1-A.
 Alpha  occ. eigenvalues --  -19.19165 -19.18007 -19.13293 -19.11095 -19.11060
 Alpha  occ. eigenvalues --  -19.09540 -14.39595 -14.37216 -14.36828 -14.28412
 Alpha  occ. eigenvalues --  -10.32735 -10.30181 -10.28442 -10.26392 -10.25940
 Alpha  occ. eigenvalues --  -10.25083 -10.23419 -10.22946 -10.22814 -10.22791
 Alpha  occ. eigenvalues --  -10.22623 -10.22620 -10.22433 -10.22014 -10.21600
 Alpha  occ. eigenvalues --  -10.21573 -10.21485 -10.21232 -10.21019 -10.20848
 Alpha  occ. eigenvalues --  -10.20546 -10.20071 -10.19970 -10.19825 -10.19748
 Alpha  occ. eigenvalues --  -10.19730 -10.19721 -10.19606 -10.19604 -10.19315
 Alpha  occ. eigenvalues --  -10.19237 -10.19155 -10.18861  -1.11804  -1.08738
 Alpha  occ. eigenvalues --   -1.03581  -1.02026  -1.01914  -1.00701  -0.99317
 Alpha  occ. eigenvalues --   -0.98960  -0.94259  -0.91595  -0.83106  -0.82868
 Alpha  occ. eigenvalues --   -0.82094  -0.80972  -0.80326  -0.79753  -0.78420
 Alpha  occ. eigenvalues --   -0.76819  -0.75328  -0.74209  -0.74131  -0.72375
 Alpha  occ. eigenvalues --   -0.71383  -0.70184  -0.69927  -0.69239  -0.68111
 Alpha  occ. eigenvalues --   -0.66892  -0.66628  -0.63979  -0.63395  -0.61034
 Alpha  occ. eigenvalues --   -0.59717  -0.58857  -0.58253  -0.57954  -0.57167
 Alpha  occ. eigenvalues --   -0.56352  -0.55088  -0.54492  -0.53972  -0.53387
 Alpha  occ. eigenvalues --   -0.51922  -0.51387  -0.51022  -0.50614  -0.49796
 Alpha  occ. eigenvalues --   -0.49084  -0.49015  -0.48520  -0.48132  -0.47436
 Alpha  occ. eigenvalues --   -0.47182  -0.46835  -0.46512  -0.45783  -0.45626
 Alpha  occ. eigenvalues --   -0.45145  -0.44986  -0.44656  -0.44157  -0.43641
 Alpha  occ. eigenvalues --   -0.43573  -0.43295  -0.43169  -0.42725  -0.42462
 Alpha  occ. eigenvalues --   -0.42267  -0.42100  -0.41751  -0.41462  -0.41196
 Alpha  occ. eigenvalues --   -0.40860  -0.40571  -0.40365  -0.40068  -0.39865
 Alpha  occ. eigenvalues --   -0.39429  -0.39133  -0.38993  -0.38641  -0.38473
 Alpha  occ. eigenvalues --   -0.38336  -0.37374  -0.36981  -0.36862  -0.36284
 Alpha  occ. eigenvalues --   -0.35755  -0.35385  -0.35132  -0.34480  -0.34241
 Alpha  occ. eigenvalues --   -0.33527  -0.33366  -0.32425  -0.32378  -0.32211
 Alpha  occ. eigenvalues --   -0.31665  -0.31191  -0.29263  -0.28731  -0.28051
 Alpha  occ. eigenvalues --   -0.27196  -0.26307  -0.26146  -0.25068  -0.24797
 Alpha  occ. eigenvalues --   -0.24161  -0.23914  -0.22602  -0.22354  -0.18416
 Alpha virt. eigenvalues --   -0.10169  -0.07330  -0.06168  -0.02300  -0.01168
 Alpha virt. eigenvalues --    0.00042   0.01245   0.02063   0.02967   0.03343
 Alpha virt. eigenvalues --    0.03634   0.03963   0.04088   0.04675   0.04899

 Mulliken charges:
               1
     1  O   -0.245220
     2  O   -0.094369
     3  O   -0.194839
     4  O   -0.220469
     5  O   -0.272749
     6  O   -0.156163
     7  N   -0.051418
     8  N   -0.190002
     9  N   -0.038469
    10  N   -0.272619
    11  C    0.118342
    12  C    0.172155
    13  C   -0.153509
    14  C   -0.138583
    15  C   -0.089389
    16  C    0.039197
    17  C   -0.178887
    18  C    0.051107
    19  C    0.021313
    20  C   -0.168070
    21  C    0.088176
    22  C    0.124944
    23  C   -0.072712
    24  C    0.142281
    25  C    0.010827
    26  C   -0.072445
    27  C   -0.115650
    28  C    0.102601
    29  C    0.041811
    30  C   -0.054879
    31  C    0.045439
    32  C    0.043672
    33  C   -0.091594
    34  C    0.102731
    35  C    0.056526
    36  C    0.063180
    37  C    0.156672
    38  C    0.071990
    39  C   -0.261146
    40  C    0.148516
    41  C   -0.049910
    42  C    0.035774
    43  C    0.005246
    44  H    0.017126
    45  H    0.019112
    46  H   -0.003513
    47  H    0.163035
    48  H    0.166307
    49  H    0.020933
    50  H    0.028487
    51  H    0.028373
    52  H   -0.024377
    53  H   -0.031058
    54  H    0.057638
    55  H    0.029413
    56  H    0.068867
    57  H    0.052699
    58  H    0.079099
    59  H    0.032574
    60  H    0.173041
    61  H    0.029489
    62  H    0.020851
    63  H   -0.029159
    64  H    0.067191
    65  H    0.016622
    66  H    0.008371
    67  H    0.033829
    68  H    0.037643
    69  H   -0.033602
    70  H    0.020995
    71  H   -0.049949
    72  H    0.145698
    73  H    0.016791
    74  H    0.063147
    75  H    0.056158
    76  H    0.044990
    77  H    0.200906
    78  H    0.003575
    79  H    0.009292
 Sum of Mulliken charges =  -0.00000

 Dipole moment (field-independent basis, Debye):
    X=             -0.6178    Y=              1.2762    Z=              4.2887  Tot=              4.5169
 Quadrupole moment (field-independent basis, Debye-Ang):
   XX=           -226.9888   YY=           -251.5780   ZZ=           -260.2532
   XY=             -0.8437   XZ=             33.6963   YZ=              2.0189

 Normal termination of Gaussian 16 at Sun Sep 15 15:16:32 2019.
