 Gaussian 16, Revision A.03,
 Gaussian 16:  ES64L-G16RevA.03 25-Dec-2016

 --------------------------
 # td=(NStates=1) B3LYP/SVP
 --------------------------

 --
 TD
 --
 Symbolic Z-matrix:
 Charge =  0 Multiplicity = 1

                         Standard orientation:
 ---------------------------------------------------------------------
 Center     Atomic      Atomic             Coordinates (Angstroms)
 Number     Number       Type             X           Y           Z
 ---------------------------------------------------------------------
      1          8           0       -3.275092   -1.228026   -2.692064
      2          8           0        2.826298    3.332161    3.142161
      3          8           0        3.406632    1.836475    4.628747
      4          8           0        7.761882   -1.390489   -0.799948
      5          8           0        6.741694   -2.965996   -2.060574
      6          8           0       -2.797578    1.613900    1.315349
      7          7           0       -0.091492   -2.420865    1.009204
      8          7           0       -2.625443   -1.212596   -0.505898
      9          7           0        1.187545    0.018702   -0.717919
     10          7           0       -1.077461    1.356694   -0.319043
     11          6           0       -3.315572   -1.427779    0.741471
     12          6           0       -2.560343   -2.330060    1.717976
     13          6           0       -1.066040   -1.997346    1.951282
     14          6           0       -0.462238   -1.170233    2.967588
     15          6           0        0.821477   -0.995289    2.544463
     16          6           0        1.087627   -1.798096    1.290917
     17          6           0       -4.738028   -1.962326    0.418620
     18          6           0        1.994462   -0.209564    3.141394
     19          6           0       -4.744907   -2.070927   -0.961647
     20          6           0        2.116600   -1.899458    0.347946
     21          6           0        2.125079   -0.933061   -0.636111
     22          6           0       -3.431861   -1.485396   -1.504690
     23          6           0        3.068749   -0.769103   -1.726621
     24          6           0       -1.245722   -0.410810    3.982647
     25          6           0       -5.785095   -2.295783    1.341644
     26          6           0        2.530903    0.316388   -2.476908
     27          6           0        1.901834    1.229904    2.684651
     28          6           0        1.310853    0.807933   -1.856844
     29          6           0        4.279701   -1.558989   -1.955329
     30          6           0       -5.694018   -2.479556   -1.995380
     31          6           0        5.478477   -1.131574   -1.076197
     32          6           0        3.241202    1.022636   -3.671231
     33          6           0        0.487208    1.987090   -2.137615
     34          6           0        2.750582    2.161865    3.622592
     35          6           0       -0.610684    2.140949   -1.389981
     36          6           0       -6.809271   -3.221000   -1.826786
     37          6           0        6.626491   -2.002700   -1.332021
     38          6           0       -1.581628    3.374576   -1.455972
     39          6           0       -2.461375    3.234655   -0.419208
     40          6           0       -2.140939    1.980072    0.314403
     41          6           0       -1.328840    4.340347   -2.411993
     42          6           0       -3.656671    4.167008   -0.030311
     43          6           0       -1.920736    5.595706   -2.546985
     44          1           0       -3.228601   -0.462634    1.286937
     45          1           0       -2.727310   -3.416800    1.391998
     46          1           0       -3.009571   -2.363126    2.737943
     47          1           0       -0.278469   -2.968312    0.223742
     48          1           0       -1.999385   -0.267833   -0.742604
     49          1           0        1.751603   -0.077731    4.301245
     50          1           0        2.955745   -0.632281    2.893496
     51          1           0        2.872952   -2.592921    0.613318
     52          1           0       -1.990773   -1.035723    4.624212
     53          1           0       -0.502289    0.167281    4.550794
     54          1           0       -2.090516    0.322610    3.501587
     55          1           0       -5.775602   -1.671146    2.185864
     56          1           0       -5.683110   -3.441111    1.676238
     57          1           0       -6.909478   -2.111317    0.798482
     58          1           0        2.450491    1.307513    1.669618
     59          1           0        0.783225    1.597097    2.605459
     60          1           0        0.454458    0.175164   -0.098882
     61          1           0        4.846972   -1.616204   -2.881115
     62          1           0        3.993240   -2.837073   -1.902634
     63          1           0       -5.408195   -2.278884   -3.157009
     64          1           0        5.173423   -1.002823    0.042572
     65          1           0        5.889276   -0.069174   -1.266516
     66          1           0        3.827797    0.070325   -4.071899
     67          1           0        3.916961    1.953381   -3.411041
     68          1           0        2.452451    1.325223   -4.475606
     69          1           0        0.728908    2.424840   -2.981868
     70          1           0       -6.861311   -3.526099   -0.847162
     71          1           0       -7.398559   -3.677340   -2.602349
     72          1           0        3.317324    4.179138    3.800755
     73          1           0       -0.487742    4.086506   -2.917376
     74          1           0       -4.249198    4.228153   -0.978002
     75          1           0       -4.322886    3.784737    0.612668
     76          1           0       -3.523731    5.191267    0.330565
     77          1           0        8.573013   -1.847078   -0.852872
     78          1           0       -1.661909    6.299441   -3.499743
     79          1           0       -2.545591    5.744701   -1.629203
 ---------------------------------------------------------------------

 SCF Done:  E(RB3LYP) =  -1947.79673348     A.U. after   22 cycles

 Excitation energies and oscillator strengths:

 Excited State   1:      Singlet-A      0.4780 eV 2593.84 nm  f=0.0006  <S**2>=0.000
     155 ->156         0.70429
 This state for optimization and/or second-order correction.
 Total Energy, E(TD-HF/TD-DFT) =  -1947.77916748
 Copying the excited state density for this state as the 1-particle RhoCI density.

 The electronic state is 1-A.
 Alpha  occ. eigenvalues --  -19.19361 -19.18075 -19.15111 -19.11527 -19.10763
 Alpha  occ. eigenvalues --  -19.06233 -14.38794 -14.37489 -14.32118 -14.31251
 Alpha  occ. eigenvalues --  -10.34342 -10.31190 -10.28526 -10.27997 -10.26689
 Alpha  occ. eigenvalues --  -10.25765 -10.24511 -10.24486 -10.24447 -10.24395
 Alpha  occ. eigenvalues --  -10.24203 -10.24199 -10.23422 -10.21941 -10.21437
 Alpha  occ. eigenvalues --  -10.21378 -10.21284 -10.20969 -10.20941 -10.20741
 Alpha  occ. eigenvalues --  -10.20625 -10.20490 -10.19903 -10.19796 -10.19560
 Alpha  occ. eigenvalues --  -10.19549 -10.19373 -10.18882 -10.18523 -10.18436
 Alpha  occ. eigenvalues --  -10.17807 -10.17785 -10.16409  -1.10015  -1.09733
 Alpha  occ. eigenvalues --   -1.01949  -1.01916  -1.00965  -0.99356  -0.97442
 Alpha  occ. eigenvalues --   -0.96478  -0.92121  -0.91209  -0.84956  -0.83732
 Alpha  occ. eigenvalues --   -0.81528  -0.80681  -0.80369  -0.79753  -0.79655
 Alpha  occ. eigenvalues --   -0.76940  -0.75624  -0.75088  -0.74096  -0.73183
 Alpha  occ. eigenvalues --   -0.70843  -0.70203  -0.69490  -0.68598  -0.68392
 Alpha  occ. eigenvalues --   -0.66405  -0.65300  -0.63603  -0.62694  -0.61132
 Alpha  occ. eigenvalues --   -0.60647  -0.59171  -0.58389  -0.57859  -0.57528
 Alpha  occ. eigenvalues --   -0.56341  -0.56283  -0.54099  -0.53469  -0.53112
 Alpha  occ. eigenvalues --   -0.52350  -0.51681  -0.50851  -0.50269  -0.49777
 Alpha  occ. eigenvalues --   -0.49475  -0.48667  -0.48447  -0.48220  -0.47786
 Alpha  occ. eigenvalues --   -0.47340  -0.46980  -0.46413  -0.46317  -0.45785
 Alpha  occ. eigenvalues --   -0.45484  -0.45348  -0.44602  -0.44235  -0.43902
 Alpha  occ. eigenvalues --   -0.43164  -0.43008  -0.42811  -0.42197  -0.41811
 Alpha  occ. eigenvalues --   -0.41684  -0.41485  -0.41434  -0.41172  -0.40598
 Alpha  occ. eigenvalues --   -0.40555  -0.40425  -0.39840  -0.39697  -0.39585
 Alpha  occ. eigenvalues --   -0.39275  -0.38633  -0.38422  -0.37892  -0.37315
 Alpha  occ. eigenvalues --   -0.36969  -0.36861  -0.36687  -0.36561  -0.36090
 Alpha  occ. eigenvalues --   -0.35945  -0.35646  -0.34900  -0.34733  -0.34059
 Alpha  occ. eigenvalues --   -0.33510  -0.33132  -0.32509  -0.32063  -0.30957
 Alpha  occ. eigenvalues --   -0.30584  -0.30478  -0.29330  -0.28972  -0.28260
 Alpha  occ. eigenvalues --   -0.27929  -0.26591  -0.25290  -0.24134  -0.24010
 Alpha  occ. eigenvalues --   -0.23225  -0.22465  -0.21987  -0.21458  -0.18490
 Alpha virt. eigenvalues --   -0.13900  -0.08377  -0.03468  -0.03155  -0.02486
 Alpha virt. eigenvalues --   -0.02342   0.00828   0.00973   0.01481   0.02645
 Alpha virt. eigenvalues --    0.03068   0.03530   0.03807   0.04289   0.04622

 Mulliken charges:
               1
     1  O   -0.268557
     2  O   -0.213810
     3  O   -0.273640
     4  O   -0.216830
     5  O   -0.206654
     6  O   -0.242218
     7  N   -0.032814
     8  N   -0.201956
     9  N   -0.004701
    10  N   -0.380926
    11  C    0.092010
    12  C    0.135340
    13  C   -0.092275
    14  C   -0.054205
    15  C   -0.123945
    16  C   -0.053148
    17  C   -0.114928
    18  C    0.112176
    19  C   -0.053361
    20  C   -0.096479
    21  C    0.112102
    22  C    0.084924
    23  C    0.030350
    24  C    0.006641
    25  C    0.018990
    26  C   -0.149893
    27  C   -0.097207
    28  C    0.092408
    29  C   -0.025730
    30  C   -0.083886
    31  C   -0.069683
    32  C   -0.012860
    33  C   -0.009985
    34  C    0.131023
    35  C    0.180516
    36  C    0.014471
    37  C    0.174885
    38  C    0.085560
    39  C   -0.192090
    40  C    0.194264
    41  C   -0.023817
    42  C    0.128645
    43  C   -0.033107
    44  H    0.037237
    45  H   -0.021577
    46  H   -0.010164
    47  H    0.095545
    48  H    0.207461
    49  H    0.037974
    50  H   -0.003152
    51  H    0.011308
    52  H    0.022263
    53  H    0.010933
    54  H    0.067010
    55  H    0.010609
    56  H    0.055981
    57  H    0.057661
    58  H    0.037751
    59  H    0.085452
    60  H    0.141584
    61  H    0.024712
    62  H    0.072849
    63  H    0.043324
    64  H    0.066244
    65  H    0.071691
    66  H    0.053190
    67  H    0.074532
    68  H    0.053546
    69  H   -0.072134
    70  H   -0.021864
    71  H    0.016166
    72  H    0.268764
    73  H   -0.065037
    74  H    0.026199
    75  H   -0.024478
    76  H    0.036503
    77  H    0.167634
    78  H    0.068959
    79  H    0.029725
 Sum of Mulliken charges =  -0.00000

 Dipole moment (field-independent basis, Debye):
    X=              5.9005    Y=              3.2764    Z=             -1.1471  Tot=              6.8459
 Quadrupole moment (field-independent basis, Debye-Ang):
   XX=           -239.7653   YY=           -232.1017   ZZ=           -271.6476
   XY=              5.2877   XZ=            -24.1178   YZ=            -10.6971

 Normal termination of Gaussian 16 at Sat Jul 27 12:15:59 2019.
