 Gaussian 16, Revision A.03,
 Gaussian 16:  ES64L-G16RevA.03 25-Dec-2016

 --------------------------
 # td=(NStates=1) B3LYP/SVP
 --------------------------

 --
 TD
 --
 Symbolic Z-matrix:
 Charge =  0 Multiplicity = 1

                         Standard orientation:
 ---------------------------------------------------------------------
 Center     Atomic      Atomic             Coordinates (Angstroms)
 Number     Number       Type             X           Y           Z
 ---------------------------------------------------------------------
      1          8           0       -3.265036   -1.579245   -2.756262
      2          8           0        2.652839    3.528046    3.019503
      3          8           0        3.957590    1.690407    3.950852
      4          8           0        7.721665   -1.602259   -0.485512
      5          8           0        6.740768   -3.170249   -1.778435
      6          8           0       -2.557054    1.787120    1.349666
      7          7           0       -0.287138   -2.421422    1.130113
      8          7           0       -2.700388   -1.243504   -0.531676
      9          7           0        1.134418   -0.071307   -0.747931
     10          7           0       -1.026775    1.409996   -0.313223
     11          6           0       -3.343639   -1.248528    0.755432
     12          6           0       -2.701393   -2.170511    1.865707
     13          6           0       -1.331662   -1.900519    1.981047
     14          6           0       -0.620268   -1.019658    2.919596
     15          6           0        0.766238   -0.931307    2.636932
     16          6           0        0.990832   -1.812789    1.413162
     17          6           0       -4.708305   -1.678398    0.362178
     18          6           0        1.850508    0.004552    3.153181
     19          6           0       -4.854412   -2.085468   -0.957240
     20          6           0        2.167745   -1.874693    0.568626
     21          6           0        2.159982   -1.008655   -0.446034
     22          6           0       -3.513589   -1.595654   -1.536819
     23          6           0        3.025587   -0.884423   -1.755051
     24          6           0       -1.365036   -0.173513    3.853747
     25          6           0       -5.859372   -1.945450    1.298352
     26          6           0        2.580690    0.201527   -2.544857
     27          6           0        1.773882    1.393372    2.718311
     28          6           0        1.343975    0.666924   -1.934191
     29          6           0        4.221833   -1.688433   -1.917075
     30          6           0       -5.880390   -2.592947   -1.813384
     31          6           0        5.375671   -1.250978   -1.058829
     32          6           0        3.096973    0.772786   -3.762472
     33          6           0        0.517794    1.775307   -2.200818
     34          6           0        2.911507    2.205948    3.360026
     35          6           0       -0.561634    2.132724   -1.426902
     36          6           0       -6.867769   -3.415606   -1.482641
     37          6           0        6.658164   -2.094696   -1.206562
     38          6           0       -1.410408    3.383327   -1.536531
     39          6           0       -2.245015    3.360502   -0.470015
     40          6           0       -1.885955    2.122794    0.320912
     41          6           0       -1.145380    4.270062   -2.703817
     42          6           0       -3.327535    4.302173    0.012046
     43          6           0       -1.735173    5.554804   -2.738638
     44          1           0       -3.282504   -0.223396    1.094019
     45          1           0       -2.556446   -3.211264    1.591860
     46          1           0       -3.384067   -1.860884    2.815535
     47          1           0       -0.607107   -3.118318    0.420584
     48          1           0       -2.041826   -0.510352   -0.679448
     49          1           0        1.648799   -0.069457    4.084597
     50          1           0        2.845935   -0.456651    2.775045
     51          1           0        2.962607   -2.589193    0.896349
     52          1           0       -1.906665   -0.894967    4.602608
     53          1           0       -0.642478    0.470920    4.503803
     54          1           0       -2.249902    0.296844    3.336314
     55          1           0       -5.619549   -1.536281    2.163500
     56          1           0       -6.023276   -3.090341    1.601085
     57          1           0       -6.799491   -1.713595    0.843658
     58          1           0        1.911081    1.500438    1.710134
     59          1           0        0.864462    2.023425    2.917477
     60          1           0        0.369385    0.270366   -0.171099
     61          1           0        4.540219   -1.628863   -3.036864
     62          1           0        3.940737   -2.671243   -1.952656
     63          1           0       -5.712886   -2.089271   -2.867790
     64          1           0        5.334574   -1.343609    0.228015
     65          1           0        5.423503   -0.106121   -1.261064
     66          1           0        3.941843    0.053751   -4.046544
     67          1           0        3.622386    1.825691   -3.418211
     68          1           0        2.361003    0.802317   -4.583006
     69          1           0        0.798176    2.399479   -3.129282
     70          1           0       -7.104271   -3.747666   -0.484277
     71          1           0       -7.626354   -3.928425   -2.168429
     72          1           0        3.386797    4.038041    3.296554
     73          1           0       -0.500679    3.767883   -3.408061
     74          1           0       -4.122188    4.879427   -0.706702
     75          1           0       -3.869959    3.828057    0.799278
     76          1           0       -2.653821    5.129877    0.509576
     77          1           0        8.401668   -2.168746   -0.503405
     78          1           0       -1.568690    6.154792   -3.513483
     79          1           0       -2.434688    5.922986   -1.783424
 ---------------------------------------------------------------------

 SCF Done:  E(RB3LYP) =  -1947.79761620     A.U. after   27 cycles

 Excitation energies and oscillator strengths:

 Excited State   1:      Singlet-A      0.7845 eV 1580.35 nm  f=0.0109  <S**2>=0.000
     155 ->156         0.70650
 This state for optimization and/or second-order correction.
 Total Energy, E(TD-HF/TD-DFT) =  -1947.76878494
 Copying the excited state density for this state as the 1-particle RhoCI density.

 The electronic state is 1-A.
 Alpha  occ. eigenvalues --  -19.19531 -19.18583 -19.14424 -19.13596 -19.10334
 Alpha  occ. eigenvalues --  -19.07034 -14.37956 -14.37725 -14.32450 -14.30474
 Alpha  occ. eigenvalues --  -10.34348 -10.33328 -10.27827 -10.26874 -10.26792
 Alpha  occ. eigenvalues --  -10.25788 -10.25703 -10.25489 -10.24441 -10.23573
 Alpha  occ. eigenvalues --  -10.23466 -10.23272 -10.22406 -10.22264 -10.22145
 Alpha  occ. eigenvalues --  -10.21914 -10.21909 -10.21325 -10.20991 -10.20926
 Alpha  occ. eigenvalues --  -10.20811 -10.20785 -10.20714 -10.19686 -10.19557
 Alpha  occ. eigenvalues --  -10.19321 -10.18742 -10.18546 -10.18407 -10.18272
 Alpha  occ. eigenvalues --  -10.17949 -10.17870 -10.17435  -1.11094  -1.08506
 Alpha  occ. eigenvalues --   -1.02050  -1.00502  -0.99149  -0.98024  -0.97825
 Alpha  occ. eigenvalues --   -0.93566  -0.92969  -0.92099  -0.84957  -0.83648
 Alpha  occ. eigenvalues --   -0.81507  -0.80722  -0.80324  -0.79959  -0.79310
 Alpha  occ. eigenvalues --   -0.77680  -0.76388  -0.75027  -0.74632  -0.73772
 Alpha  occ. eigenvalues --   -0.70806  -0.70398  -0.70038  -0.69436  -0.67867
 Alpha  occ. eigenvalues --   -0.66702  -0.66308  -0.63417  -0.62603  -0.61327
 Alpha  occ. eigenvalues --   -0.60457  -0.60324  -0.59589  -0.57499  -0.56239
 Alpha  occ. eigenvalues --   -0.55499  -0.54927  -0.54863  -0.53066  -0.52530
 Alpha  occ. eigenvalues --   -0.52335  -0.51448  -0.51238  -0.50489  -0.49847
 Alpha  occ. eigenvalues --   -0.49393  -0.49233  -0.49091  -0.48475  -0.47724
 Alpha  occ. eigenvalues --   -0.47420  -0.47263  -0.46695  -0.46561  -0.46371
 Alpha  occ. eigenvalues --   -0.45486  -0.44749  -0.44470  -0.44183  -0.43738
 Alpha  occ. eigenvalues --   -0.43629  -0.43385  -0.43121  -0.42977  -0.42568
 Alpha  occ. eigenvalues --   -0.42330  -0.41780  -0.41681  -0.41240  -0.40791
 Alpha  occ. eigenvalues --   -0.40582  -0.40418  -0.40161  -0.39820  -0.39697
 Alpha  occ. eigenvalues --   -0.39175  -0.38966  -0.38394  -0.38220  -0.37587
 Alpha  occ. eigenvalues --   -0.37255  -0.37056  -0.36841  -0.36640  -0.36380
 Alpha  occ. eigenvalues --   -0.35719  -0.35321  -0.35258  -0.34805  -0.34648
 Alpha  occ. eigenvalues --   -0.33870  -0.33803  -0.33532  -0.32470  -0.32083
 Alpha  occ. eigenvalues --   -0.31543  -0.29749  -0.28946  -0.28739  -0.28051
 Alpha  occ. eigenvalues --   -0.27854  -0.27194  -0.25140  -0.24352  -0.23644
 Alpha  occ. eigenvalues --   -0.23029  -0.22601  -0.22344  -0.22147  -0.18294
 Alpha virt. eigenvalues --   -0.13154  -0.07353  -0.03907  -0.02717  -0.02368
 Alpha virt. eigenvalues --   -0.02329  -0.00093   0.01534   0.02330   0.02833
 Alpha virt. eigenvalues --    0.02996   0.03341   0.04134   0.04942   0.05290

 Mulliken charges:
               1
     1  O   -0.275886
     2  O   -0.175395
     3  O   -0.299361
     4  O   -0.150753
     5  O   -0.223673
     6  O   -0.284571
     7  N   -0.152752
     8  N   -0.145896
     9  N   -0.133029
    10  N   -0.266634
    11  C    0.110590
    12  C    0.188881
    13  C   -0.075380
    14  C   -0.108467
    15  C   -0.142761
    16  C   -0.017019
    17  C   -0.214874
    18  C    0.237317
    19  C   -0.057335
    20  C   -0.138826
    21  C    0.217090
    22  C    0.104768
    23  C   -0.126032
    24  C    0.042423
    25  C    0.135314
    26  C   -0.122151
    27  C    0.030596
    28  C    0.119930
    29  C    0.161945
    30  C   -0.001682
    31  C   -0.096919
    32  C    0.053906
    33  C   -0.112096
    34  C    0.179474
    35  C    0.107817
    36  C   -0.063424
    37  C    0.164263
    38  C    0.038585
    39  C   -0.199323
    40  C    0.146811
    41  C    0.002499
    42  C    0.029528
    43  C    0.002830
    44  H    0.035732
    45  H   -0.017857
    46  H    0.032347
    47  H    0.130630
    48  H    0.124955
    49  H   -0.051669
    50  H    0.019329
    51  H    0.041754
    52  H    0.004269
    53  H    0.016128
    54  H    0.055417
    55  H   -0.040141
    56  H    0.028156
    57  H    0.025444
    58  H   -0.005746
    59  H    0.050785
    60  H    0.170371
    61  H    0.019037
    62  H   -0.005337
    63  H    0.046628
    64  H    0.091089
    65  H    0.062923
    66  H    0.022923
    67  H    0.065943
    68  H    0.060144
    69  H    0.014670
    70  H    0.006902
    71  H    0.031652
    72  H    0.162414
    73  H   -0.013506
    74  H    0.061698
    75  H    0.023484
    76  H    0.046410
    77  H    0.138011
    78  H   -0.009899
    79  H    0.064589
 Sum of Mulliken charges =  -0.00000

 Dipole moment (field-independent basis, Debye):
    X=              4.3043    Y=              2.9085    Z=             -1.0115  Tot=              5.2924
 Quadrupole moment (field-independent basis, Debye-Ang):
   XX=           -243.5028   YY=           -237.6245   ZZ=           -265.0604
   XY=              5.5691   XZ=            -23.0437   YZ=            -15.3610

 Normal termination of Gaussian 16 at Wed Jul 31 10:32:25 2019.
