 Gaussian 16, Revision A.03,
 Gaussian 16:  ES64L-G16RevA.03 25-Dec-2016

 --------------------------
 # td=(NStates=1) B3LYP/SVP
 --------------------------

 --
 TD
 --
 Symbolic Z-matrix:
 Charge =  0 Multiplicity = 1

                         Standard orientation:
 ---------------------------------------------------------------------
 Center     Atomic      Atomic             Coordinates (Angstroms)
 Number     Number       Type             X           Y           Z
 ---------------------------------------------------------------------
      1          8           0       -3.205719   -1.589483   -2.704128
      2          8           0        3.344023    3.351036    2.906360
      3          8           0        4.030043    1.444501    3.969638
      4          8           0        7.769622   -1.715009   -0.600578
      5          8           0        6.542627   -3.236215   -1.840469
      6          8           0       -2.896139    1.669999    1.379342
      7          7           0       -0.240204   -2.415799    1.052990
      8          7           0       -2.786906   -1.219081   -0.516473
      9          7           0        1.211403    0.099009   -0.721771
     10          7           0       -1.089075    1.384213   -0.189629
     11          6           0       -3.447058   -1.340619    0.809446
     12          6           0       -2.599632   -2.286554    1.700413
     13          6           0       -1.174635   -1.940084    1.884518
     14          6           0       -0.504260   -1.041271    2.769028
     15          6           0        0.893677   -1.000927    2.416553
     16          6           0        0.954648   -1.765906    1.251099
     17          6           0       -4.763703   -1.851136    0.420442
     18          6           0        2.057187   -0.098896    3.006377
     19          6           0       -4.814568   -1.997993   -0.916989
     20          6           0        2.080810   -1.839929    0.344989
     21          6           0        2.078627   -0.938252   -0.724417
     22          6           0       -3.514738   -1.608004   -1.583173
     23          6           0        3.046524   -0.759212   -1.730601
     24          6           0       -1.269792   -0.358599    3.908016
     25          6           0       -5.860665   -2.253657    1.357583
     26          6           0        2.574171    0.401494   -2.474594
     27          6           0        2.100815    1.321531    2.558079
     28          6           0        1.344603    0.893759   -1.771899
     29          6           0        4.276578   -1.537690   -2.042992
     30          6           0       -5.880260   -2.582542   -1.825794
     31          6           0        5.572786   -1.084658   -1.296787
     32          6           0        3.115967    1.108391   -3.640269
     33          6           0        0.497006    1.929942   -2.010245
     34          6           0        3.261699    2.088511    3.185214
     35          6           0       -0.668207    2.274536   -1.262539
     36          6           0       -6.945287   -3.275789   -1.532388
     37          6           0        6.583929   -2.137633   -1.283332
     38          6           0       -1.526574    3.360712   -1.306343
     39          6           0       -2.506424    3.229248   -0.343728
     40          6           0       -2.235216    2.088171    0.372381
     41          6           0       -1.437440    4.535823   -2.276920
     42          6           0       -3.638443    4.230516    0.088710
     43          6           0       -2.072855    5.737847   -2.225893
     44          1           0       -3.424499   -0.293257    1.290703
     45          1           0       -2.607938   -3.426932    1.128689
     46          1           0       -3.103231   -2.425699    2.688661
     47          1           0       -0.483315   -2.820490    0.159567
     48          1           0       -2.070646   -0.372300   -0.516045
     49          1           0        2.066422   -0.094986    4.052806
     50          1           0        2.973018   -0.675348    2.678731
     51          1           0        3.052797   -2.332123    0.469721
     52          1           0       -2.009352   -0.864799    4.358762
     53          1           0       -0.439407   -0.268782    4.741801
     54          1           0       -1.984656    0.563159    3.691554
     55          1           0       -5.869575   -1.658524    2.263997
     56          1           0       -5.933827   -3.300178    1.495458
     57          1           0       -6.925856   -2.023714    0.780088
     58          1           0        2.342567    1.567647    1.480972
     59          1           0        1.194396    1.840987    2.789130
     60          1           0        0.250283    0.074587   -0.191677
     61          1           0        4.344067   -1.627102   -3.183709
     62          1           0        3.940158   -2.565469   -1.564759
     63          1           0       -5.543083   -2.477961   -2.914143
     64          1           0        5.330873   -0.721400   -0.188130
     65          1           0        5.813111   -0.003477   -1.634109
     66          1           0        3.910386    0.476081   -4.000026
     67          1           0        3.387802    2.168179   -3.430503
     68          1           0        2.292505    0.949227   -4.197068
     69          1           0        0.829314    2.663443   -2.751915
     70          1           0       -7.193672   -3.376840   -0.448421
     71          1           0       -7.678422   -3.685786   -2.136575
     72          1           0        4.102679    3.783242    3.397045
     73          1           0       -0.669117    4.213579   -2.928302
     74          1           0       -4.239901    4.294294   -0.840195
     75          1           0       -4.302969    3.857303    0.984874
     76          1           0       -3.066979    5.129149    0.328156
     77          1           0        8.455528   -2.414421   -0.655285
     78          1           0       -1.831133    6.411529   -2.957662
     79          1           0       -2.726131    6.093366   -1.442993
 ---------------------------------------------------------------------

 SCF Done:  E(RB3LYP) =  -1947.86899431     A.U. after   20 cycles

 Excitation energies and oscillator strengths:

 Excited State   1:      Singlet-A      0.9211 eV 1346.04 nm  f=0.0088  <S**2>=0.000
     155 ->156         0.70177
 This state for optimization and/or second-order correction.
 Total Energy, E(TD-HF/TD-DFT) =  -1947.83514450
 Copying the excited state density for this state as the 1-particle RhoCI density.

 The electronic state is 1-A.
 Alpha  occ. eigenvalues --  -19.20553 -19.18142 -19.14874 -19.12086 -19.11225
 Alpha  occ. eigenvalues --  -19.07854 -14.37607 -14.37009 -14.31320 -14.30736
 Alpha  occ. eigenvalues --  -10.34292 -10.31970 -10.27295 -10.26095 -10.25315
 Alpha  occ. eigenvalues --  -10.25292 -10.24957 -10.24611 -10.23714 -10.23369
 Alpha  occ. eigenvalues --  -10.23020 -10.22857 -10.21908 -10.21625 -10.21535
 Alpha  occ. eigenvalues --  -10.21485 -10.21210 -10.20998 -10.20929 -10.20835
 Alpha  occ. eigenvalues --  -10.20772 -10.20519 -10.20237 -10.19984 -10.19294
 Alpha  occ. eigenvalues --  -10.19274 -10.19147 -10.18453 -10.18302 -10.17678
 Alpha  occ. eigenvalues --  -10.17513 -10.17462 -10.16875  -1.11165  -1.07998
 Alpha  occ. eigenvalues --   -1.02871  -1.01329  -1.00296  -1.00250  -0.97979
 Alpha  occ. eigenvalues --   -0.97874  -0.91796  -0.91472  -0.84281  -0.83391
 Alpha  occ. eigenvalues --   -0.80392  -0.80170  -0.79615  -0.79183  -0.78435
 Alpha  occ. eigenvalues --   -0.76838  -0.76341  -0.75352  -0.74901  -0.73775
 Alpha  occ. eigenvalues --   -0.71704  -0.70262  -0.69469  -0.68805  -0.68058
 Alpha  occ. eigenvalues --   -0.67503  -0.66564  -0.63760  -0.61873  -0.60982
 Alpha  occ. eigenvalues --   -0.60337  -0.60031  -0.58230  -0.57387  -0.56796
 Alpha  occ. eigenvalues --   -0.56102  -0.55482  -0.54510  -0.53844  -0.53042
 Alpha  occ. eigenvalues --   -0.52179  -0.51519  -0.51246  -0.49813  -0.49468
 Alpha  occ. eigenvalues --   -0.49066  -0.48619  -0.48363  -0.48222  -0.48015
 Alpha  occ. eigenvalues --   -0.47946  -0.47240  -0.46992  -0.46097  -0.45806
 Alpha  occ. eigenvalues --   -0.45440  -0.45238  -0.45061  -0.44666  -0.44471
 Alpha  occ. eigenvalues --   -0.43642  -0.43001  -0.42703  -0.42399  -0.42326
 Alpha  occ. eigenvalues --   -0.42129  -0.41648  -0.41456  -0.41353  -0.41123
 Alpha  occ. eigenvalues --   -0.40736  -0.40367  -0.40253  -0.39981  -0.39802
 Alpha  occ. eigenvalues --   -0.39435  -0.39217  -0.38798  -0.38489  -0.38223
 Alpha  occ. eigenvalues --   -0.37967  -0.37347  -0.37123  -0.36884  -0.35803
 Alpha  occ. eigenvalues --   -0.35651  -0.35268  -0.35223  -0.35039  -0.34047
 Alpha  occ. eigenvalues --   -0.33809  -0.33007  -0.31880  -0.31796  -0.31305
 Alpha  occ. eigenvalues --   -0.30906  -0.29968  -0.29619  -0.28836  -0.28600
 Alpha  occ. eigenvalues --   -0.26786  -0.26368  -0.25655  -0.24243  -0.24104
 Alpha  occ. eigenvalues --   -0.23587  -0.23184  -0.22534  -0.21968  -0.19421
 Alpha virt. eigenvalues --   -0.13717  -0.08683  -0.03704  -0.02885  -0.02391
 Alpha virt. eigenvalues --    0.00496   0.01186   0.01956   0.03098   0.03402
 Alpha virt. eigenvalues --    0.04088   0.04259   0.05029   0.05107   0.05690

 Mulliken charges:
               1
     1  O   -0.172737
     2  O   -0.141062
     3  O   -0.302770
     4  O   -0.255764
     5  O   -0.221514
     6  O   -0.257513
     7  N    0.000147
     8  N   -0.286285
     9  N   -0.054177
    10  N   -0.426140
    11  C    0.068071
    12  C    0.100844
    13  C   -0.075723
    14  C   -0.117203
    15  C   -0.074674
    16  C   -0.047141
    17  C   -0.149050
    18  C    0.172737
    19  C   -0.116930
    20  C   -0.087526
    21  C    0.038118
    22  C    0.131578
    23  C   -0.076174
    24  C    0.070462
    25  C    0.063763
    26  C   -0.186719
    27  C    0.016988
    28  C    0.093620
    29  C    0.037429
    30  C    0.011341
    31  C   -0.051575
    32  C    0.179791
    33  C   -0.108043
    34  C    0.110577
    35  C    0.132866
    36  C   -0.014310
    37  C    0.214738
    38  C   -0.013206
    39  C   -0.160473
    40  C    0.185259
    41  C    0.044261
    42  C    0.066006
    43  C    0.031644
    44  H    0.075515
    45  H    0.005055
    46  H    0.005687
    47  H    0.113473
    48  H    0.176983
    49  H   -0.005419
    50  H   -0.000717
    51  H    0.015193
    52  H   -0.044601
    53  H    0.014965
    54  H    0.044171
    55  H    0.016160
    56  H    0.031696
    57  H    0.046005
    58  H    0.030329
    59  H    0.035549
    60  H    0.231923
    61  H    0.057693
    62  H    0.044350
    63  H    0.014061
    64  H    0.071734
    65  H    0.062496
    66  H    0.000504
    67  H    0.055137
    68  H    0.012447
    69  H   -0.023224
    70  H   -0.007669
    71  H   -0.003166
    72  H    0.206413
    73  H   -0.033395
    74  H    0.045040
    75  H    0.060661
    76  H    0.050109
    77  H    0.191891
    78  H    0.005894
    79  H    0.023523
 Sum of Mulliken charges =  -0.00000

 Dipole moment (field-independent basis, Debye):
    X=              4.1703    Y=              4.9971    Z=             -1.2294  Tot=              6.6237
 Quadrupole moment (field-independent basis, Debye-Ang):
   XX=           -239.4521   YY=           -233.9467   ZZ=           -264.9234
   XY=              7.1256   XZ=            -21.8325   YZ=            -11.6643

 Normal termination of Gaussian 16 at Thu Jul 25 02:35:34 2019.
