 Gaussian 16, Revision A.03,
 Gaussian 16:  ES64L-G16RevA.03 25-Dec-2016

 --------------------------
 # td=(NStates=1) B3LYP/SVP
 --------------------------

 --
 TD
 --
 Symbolic Z-matrix:
 Charge =  0 Multiplicity = 1

                         Standard orientation:
 ---------------------------------------------------------------------
 Center     Atomic      Atomic             Coordinates (Angstroms)
 Number     Number       Type             X           Y           Z
 ---------------------------------------------------------------------
      1          8           0       -3.479053   -0.932644   -2.998001
      2          8           0        2.897084    2.819678    3.275430
      3          8           0        3.801329    1.034140    4.360470
      4          8           0        7.704939   -1.497740   -0.756477
      5          8           0        6.670492   -2.832429   -2.165742
      6          8           0       -2.507455    1.389086    1.563729
      7          7           0       -0.297027   -2.480826    0.501478
      8          7           0       -2.709555   -1.234118   -0.803471
      9          7           0        1.110024    0.209635   -0.630196
     10          7           0       -0.922723    1.539235   -0.011118
     11          6           0       -3.290363   -1.428320    0.526952
     12          6           0       -2.653974   -2.705090    1.235411
     13          6           0       -1.217389   -2.302172    1.376075
     14          6           0       -0.572043   -1.725039    2.586099
     15          6           0        0.735758   -1.468438    2.180642
     16          6           0        0.896889   -2.013111    0.931578
     17          6           0       -4.900745   -1.721321    0.115696
     18          6           0        1.834106   -0.798402    3.108051
     19          6           0       -4.888477   -1.707196   -1.246062
     20          6           0        1.986388   -2.046032    0.048929
     21          6           0        2.117391   -0.893655   -0.729878
     22          6           0       -3.621410   -1.272580   -1.852793
     23          6           0        2.939080   -0.505191   -1.844767
     24          6           0       -1.301280   -1.193512    3.798625
     25          6           0       -5.852785   -2.166109    1.204683
     26          6           0        2.570299    0.737178   -2.362391
     27          6           0        1.870388    0.737791    2.816225
     28          6           0        1.449525    1.173921   -1.698939
     29          6           0        4.284255   -1.271377   -2.204641
     30          6           0       -5.962077   -1.968258   -2.203286
     31          6           0        5.482780   -0.927968   -1.247700
     32          6           0        3.306101    1.535839   -3.457670
     33          6           0        0.614095    2.269508   -1.727025
     34          6           0        2.944891    1.520236    3.595366
     35          6           0       -0.486092    2.475542   -0.862637
     36          6           0       -6.990911   -2.865384   -1.890438
     37          6           0        6.611585   -1.838427   -1.504268
     38          6           0       -1.319562    3.567676   -0.832511
     39          6           0       -2.144312    3.373597    0.261111
     40          6           0       -1.870881    2.010248    0.745200
     41          6           0       -1.277739    4.772699   -1.785285
     42          6           0       -3.276620    4.207391    0.940005
     43          6           0       -1.983017    5.961565   -1.779077
     44          1           0       -3.198397   -0.526091    1.145535
     45          1           0       -2.999218   -3.466803    0.477984
     46          1           0       -3.107995   -2.900217    2.178700
     47          1           0       -0.488190   -2.884570   -0.423682
     48          1           0       -1.952994   -0.621481   -1.000206
     49          1           0        1.657014   -0.797889    4.151788
     50          1           0        3.061087   -1.204115    3.141323
     51          1           0        2.725079   -2.763404   -0.157780
     52          1           0       -2.265513   -1.868131    3.930669
     53          1           0       -0.536037   -1.263523    4.550126
     54          1           0       -1.637108   -0.149017    3.424651
     55          1           0       -5.610696   -1.630711    1.984415
     56          1           0       -5.748506   -3.268458    1.291433
     57          1           0       -6.830021   -2.056373    0.819872
     58          1           0        1.983685    0.755164    1.821982
     59          1           0        0.932453    1.135745    2.888361
     60          1           0        0.411950    0.235354   -0.205387
     61          1           0        4.612926   -1.048499   -3.200201
     62          1           0        3.939228   -2.349179   -1.945450
     63          1           0       -5.880987   -1.421864   -3.228671
     64          1           0        5.198189   -1.239505   -0.214424
     65          1           0        5.730414    0.140310   -1.293357
     66          1           0        3.769864    0.768183   -4.212928
     67          1           0        4.179855    2.262760   -3.195329
     68          1           0        2.426803    2.279537   -4.077594
     69          1           0        0.992599    2.986710   -2.479674
     70          1           0       -6.931092   -3.561323   -0.983109
     71          1           0       -7.774990   -2.867891   -2.640333
     72          1           0        3.637110    3.415505    3.877342
     73          1           0       -0.580965    4.647122   -2.578980
     74          1           0       -3.951511    4.303768    0.158877
     75          1           0       -3.670884    3.648917    1.730361
     76          1           0       -3.117174    5.178303    1.550953
     77          1           0        8.412865   -2.168039   -0.889348
     78          1           0       -1.740769    6.903251   -2.441585
     79          1           0       -2.814936    6.164589   -1.036138
 ---------------------------------------------------------------------

 SCF Done:  E(RB3LYP) =  -1947.77079054     A.U. after   19 cycles

 Excitation energies and oscillator strengths:

 Excited State   1:      Singlet-A      0.6961 eV 1781.19 nm  f=0.0053  <S**2>=0.000
     155 ->156         0.70437
 This state for optimization and/or second-order correction.
 Total Energy, E(TD-HF/TD-DFT) =  -1947.74521022
 Copying the excited state density for this state as the 1-particle RhoCI density.

 The electronic state is 1-A.
 Alpha  occ. eigenvalues --  -19.18990 -19.18083 -19.13785 -19.11932 -19.11673
 Alpha  occ. eigenvalues --  -19.09019 -14.37776 -14.34902 -14.32929 -14.28556
 Alpha  occ. eigenvalues --  -10.33048 -10.31873 -10.26456 -10.26447 -10.26421
 Alpha  occ. eigenvalues --  -10.26120 -10.25265 -10.24650 -10.24266 -10.23618
 Alpha  occ. eigenvalues --  -10.23493 -10.23188 -10.22747 -10.22559 -10.21576
 Alpha  occ. eigenvalues --  -10.21489 -10.21179 -10.20888 -10.20870 -10.20844
 Alpha  occ. eigenvalues --  -10.20536 -10.20291 -10.20097 -10.19971 -10.19439
 Alpha  occ. eigenvalues --  -10.18937 -10.18923 -10.18652 -10.18498 -10.17921
 Alpha  occ. eigenvalues --  -10.17870 -10.17841 -10.16793  -1.10544  -1.07378
 Alpha  occ. eigenvalues --   -1.03956  -1.01866  -1.01117  -1.00177  -0.97925
 Alpha  occ. eigenvalues --   -0.97220  -0.95220  -0.91459  -0.84369  -0.83210
 Alpha  occ. eigenvalues --   -0.80547  -0.80051  -0.79953  -0.79811  -0.78822
 Alpha  occ. eigenvalues --   -0.76702  -0.76157  -0.74908  -0.74304  -0.73088
 Alpha  occ. eigenvalues --   -0.71184  -0.70583  -0.70083  -0.69787  -0.67570
 Alpha  occ. eigenvalues --   -0.66398  -0.65481  -0.63152  -0.61334  -0.60467
 Alpha  occ. eigenvalues --   -0.59886  -0.58730  -0.58472  -0.57991  -0.56686
 Alpha  occ. eigenvalues --   -0.56392  -0.55988  -0.55176  -0.54262  -0.53725
 Alpha  occ. eigenvalues --   -0.53181  -0.51877  -0.51539  -0.50267  -0.49892
 Alpha  occ. eigenvalues --   -0.49351  -0.48923  -0.48453  -0.48324  -0.47777
 Alpha  occ. eigenvalues --   -0.47014  -0.46734  -0.46332  -0.46036  -0.45613
 Alpha  occ. eigenvalues --   -0.45024  -0.44948  -0.44636  -0.44573  -0.44094
 Alpha  occ. eigenvalues --   -0.43748  -0.43573  -0.43326  -0.42512  -0.42301
 Alpha  occ. eigenvalues --   -0.41900  -0.41511  -0.41391  -0.40818  -0.40704
 Alpha  occ. eigenvalues --   -0.40674  -0.40388  -0.40076  -0.39859  -0.39745
 Alpha  occ. eigenvalues --   -0.39337  -0.39039  -0.38775  -0.38336  -0.38078
 Alpha  occ. eigenvalues --   -0.37695  -0.37400  -0.37191  -0.37022  -0.36613
 Alpha  occ. eigenvalues --   -0.36350  -0.36099  -0.35799  -0.35165  -0.34894
 Alpha  occ. eigenvalues --   -0.33806  -0.33181  -0.32103  -0.31587  -0.31223
 Alpha  occ. eigenvalues --   -0.30946  -0.29423  -0.29178  -0.28977  -0.27854
 Alpha  occ. eigenvalues --   -0.27554  -0.27167  -0.25358  -0.25121  -0.24493
 Alpha  occ. eigenvalues --   -0.24000  -0.23164  -0.22446  -0.22272  -0.18596
 Alpha virt. eigenvalues --   -0.13565  -0.08186  -0.04042  -0.02040  -0.00821
 Alpha virt. eigenvalues --    0.00285   0.00814   0.01173   0.01883   0.02618
 Alpha virt. eigenvalues --    0.02924   0.03771   0.04540   0.04819   0.05309

 Mulliken charges:
               1
     1  O   -0.216547
     2  O   -0.246382
     3  O   -0.265092
     4  O   -0.215317
     5  O   -0.203714
     6  O   -0.194371
     7  N    0.061197
     8  N   -0.210190
     9  N   -0.053915
    10  N   -0.213380
    11  C    0.002164
    12  C    0.213012
    13  C   -0.159419
    14  C   -0.170849
    15  C   -0.031445
    16  C    0.014277
    17  C   -0.200515
    18  C    0.026583
    19  C   -0.075870
    20  C   -0.061574
    21  C    0.098244
    22  C    0.138096
    23  C   -0.081944
    24  C    0.054572
    25  C    0.201608
    26  C   -0.042309
    27  C    0.077070
    28  C    0.117440
    29  C    0.070744
    30  C   -0.054236
    31  C    0.015473
    32  C   -0.055370
    33  C   -0.109736
    34  C    0.173743
    35  C    0.148695
    36  C   -0.047450
    37  C    0.118133
    38  C    0.025012
    39  C   -0.218379
    40  C    0.113800
    41  C    0.025747
    42  C    0.115316
    43  C   -0.075494
    44  H    0.063409
    45  H   -0.005139
    46  H   -0.015569
    47  H    0.117896
    48  H    0.117611
    49  H   -0.008881
    50  H    0.033979
    51  H   -0.029543
    52  H    0.015163
    53  H    0.022061
    54  H    0.073350
    55  H   -0.008964
    56  H    0.036158
    57  H    0.010431
    58  H   -0.015435
    59  H    0.002857
    60  H   -0.010917
    61  H    0.016211
    62  H    0.045280
    63  H    0.047137
    64  H    0.057743
    65  H    0.049925
    66  H    0.055016
    67  H    0.069973
    68  H    0.060613
    69  H   -0.026205
    70  H    0.036332
    71  H    0.021313
    72  H    0.244536
    73  H   -0.022191
    74  H    0.025203
    75  H   -0.003812
    76  H    0.041132
    77  H    0.189262
    78  H    0.052567
    79  H    0.034070
 Sum of Mulliken charges =  -0.00000

 Dipole moment (field-independent basis, Debye):
    X=              3.5055    Y=              2.5373    Z=             -1.0479  Tot=              4.4525
 Quadrupole moment (field-independent basis, Debye-Ang):
   XX=           -238.9171   YY=           -232.0437   ZZ=           -269.1598
   XY=             10.3897   XZ=            -24.8446   YZ=             -6.8964

 Normal termination of Gaussian 16 at Fri Jul 26 20:39:04 2019.
