 Gaussian 16, Revision A.03,
 Gaussian 16:  ES64L-G16RevA.03 25-Dec-2016

 --------------------------
 # td=(NStates=1) B3LYP/SVP
 --------------------------

 --
 TD
 --
 Symbolic Z-matrix:
 Charge =  0 Multiplicity = 1

                         Standard orientation:
 ---------------------------------------------------------------------
 Center     Atomic      Atomic             Coordinates (Angstroms)
 Number     Number       Type             X           Y           Z
 ---------------------------------------------------------------------
      1          8           0       -3.277423   -1.351002   -2.839411
      2          8           0        3.195401    3.253791    3.219738
      3          8           0        3.656800    1.437974    4.404032
      4          8           0        7.695167   -1.652631   -0.695989
      5          8           0        6.674154   -2.965972   -2.141150
      6          8           0       -2.824021    1.579125    1.304223
      7          7           0       -0.279456   -2.345695    0.989887
      8          7           0       -2.785006   -1.229372   -0.586367
      9          7           0        1.202269    0.035869   -0.699880
     10          7           0       -0.947834    1.521478   -0.175309
     11          6           0       -3.446918   -1.417968    0.647747
     12          6           0       -2.690106   -2.361502    1.766137
     13          6           0       -1.244392   -2.028292    1.966383
     14          6           0       -0.544301   -1.256238    2.964800
     15          6           0        0.810665   -1.102849    2.499838
     16          6           0        1.026522   -1.790596    1.341143
     17          6           0       -4.873986   -1.894416    0.310491
     18          6           0        1.912550   -0.282674    3.145268
     19          6           0       -4.913146   -2.089251   -1.045676
     20          6           0        2.143531   -1.877183    0.375640
     21          6           0        2.097443   -0.963649   -0.649870
     22          6           0       -3.608062   -1.574085   -1.692140
     23          6           0        2.973178   -0.789814   -1.853009
     24          6           0       -1.252349   -0.421043    3.903638
     25          6           0       -5.837467   -2.096383    1.406131
     26          6           0        2.642010    0.356841   -2.539273
     27          6           0        1.999134    1.223166    2.610664
     28          6           0        1.469989    0.824850   -1.800807
     29          6           0        4.314437   -1.500033   -2.019874
     30          6           0       -5.866852   -2.421682   -2.029022
     31          6           0        5.503276   -1.150627   -1.147070
     32          6           0        3.252927    1.074905   -3.702532
     33          6           0        0.530793    1.976085   -2.054289
     34          6           0        3.020189    1.941267    3.533372
     35          6           0       -0.471961    2.304491   -1.145850
     36          6           0       -6.959647   -3.128038   -1.783660
     37          6           0        6.717477   -1.995946   -1.456095
     38          6           0       -1.424853    3.531426   -1.280793
     39          6           0       -2.400728    3.350096   -0.299791
     40          6           0       -2.051609    2.041323    0.456321
     41          6           0       -1.294237    4.529958   -2.329771
     42          6           0       -3.470438    4.250152    0.167098
     43          6           0       -2.094636    5.593055   -2.457091
     44          1           0       -3.584979   -0.447226    1.166167
     45          1           0       -2.675106   -3.353463    1.417003
     46          1           0       -3.160182   -2.246072    2.632068
     47          1           0       -0.511098   -2.800315    0.092343
     48          1           0       -1.699303   -0.750482   -0.792051
     49          1           0        1.636491   -0.155497    4.128155
     50          1           0        2.990641   -0.583446    3.054576
     51          1           0        2.774547   -2.590955    0.434288
     52          1           0       -2.212372   -0.938771    4.402085
     53          1           0       -0.626768   -0.114681    4.678711
     54          1           0       -1.791209    0.452686    3.463020
     55          1           0       -5.739253   -1.320856    2.169519
     56          1           0       -5.652111   -3.065624    1.925572
     57          1           0       -6.746842   -2.037451    1.047351
     58          1           0        2.285158    1.214986    1.592715
     59          1           0        0.925158    1.797874    2.678269
     60          1           0        0.286651    0.264123   -0.276006
     61          1           0        4.716965   -1.509696   -3.069583
     62          1           0        3.844793   -2.682661   -1.874448
     63          1           0       -5.649652   -2.138788   -2.996855
     64          1           0        5.407136   -1.097728    0.057270
     65          1           0        5.865201    0.009282   -1.236722
     66          1           0        4.185126    0.684674   -4.145504
     67          1           0        3.467993    2.020829   -3.289385
     68          1           0        2.562077    1.224991   -4.401927
     69          1           0        0.875252    2.611351   -2.813693
     70          1           0       -7.054655   -3.539266   -0.883635
     71          1           0       -7.857918   -3.432182   -2.417556
     72          1           0        3.846503    3.591711    3.834033
     73          1           0       -0.507176    4.280020   -3.174370
     74          1           0       -4.374631    4.389507   -0.537712
     75          1           0       -3.792064    3.780568    1.060694
     76          1           0       -2.868107    5.304754    0.426823
     77          1           0        8.504073   -2.223924   -0.888525
     78          1           0       -1.718664    6.238099   -3.255711
     79          1           0       -3.052741    5.745309   -1.765188
 ---------------------------------------------------------------------

 SCF Done:  E(RB3LYP) =  -1947.86168415     A.U. after   16 cycles

 Excitation energies and oscillator strengths:

 Excited State   1:      Singlet-A      1.1140 eV 1112.94 nm  f=0.0016  <S**2>=0.000
     155 ->156         0.70410
 This state for optimization and/or second-order correction.
 Total Energy, E(TD-HF/TD-DFT) =  -1947.82074444
 Copying the excited state density for this state as the 1-particle RhoCI density.

 The electronic state is 1-A.
 Alpha  occ. eigenvalues --  -19.20593 -19.17336 -19.13375 -19.12638 -19.12033
 Alpha  occ. eigenvalues --  -19.08617 -14.37987 -14.36433 -14.33415 -14.30892
 Alpha  occ. eigenvalues --  -10.32926 -10.31660 -10.28313 -10.27899 -10.26621
 Alpha  occ. eigenvalues --  -10.26249 -10.25288 -10.24121 -10.23885 -10.23841
 Alpha  occ. eigenvalues --  -10.23579 -10.21946 -10.21922 -10.21164 -10.21139
 Alpha  occ. eigenvalues --  -10.21032 -10.20969 -10.20877 -10.20696 -10.20573
 Alpha  occ. eigenvalues --  -10.20440 -10.20127 -10.20117 -10.19971 -10.18720
 Alpha  occ. eigenvalues --  -10.18612 -10.18487 -10.18470 -10.17549 -10.17372
 Alpha  occ. eigenvalues --  -10.17168 -10.17091 -10.16808  -1.13397  -1.09850
 Alpha  occ. eigenvalues --   -1.03167  -1.01932  -1.00954  -1.00801  -1.00506
 Alpha  occ. eigenvalues --   -0.93840  -0.93131  -0.90515  -0.84310  -0.82473
 Alpha  occ. eigenvalues --   -0.80552  -0.80400  -0.79617  -0.79095  -0.77919
 Alpha  occ. eigenvalues --   -0.76819  -0.75870  -0.75206  -0.74702  -0.74509
 Alpha  occ. eigenvalues --   -0.70863  -0.70079  -0.69808  -0.69339  -0.67087
 Alpha  occ. eigenvalues --   -0.66041  -0.65478  -0.63585  -0.62298  -0.61423
 Alpha  occ. eigenvalues --   -0.59699  -0.58999  -0.58815  -0.57997  -0.56598
 Alpha  occ. eigenvalues --   -0.55333  -0.54630  -0.53919  -0.53003  -0.52258
 Alpha  occ. eigenvalues --   -0.51772  -0.51386  -0.50786  -0.50248  -0.49725
 Alpha  occ. eigenvalues --   -0.49578  -0.49250  -0.48828  -0.48268  -0.47948
 Alpha  occ. eigenvalues --   -0.47769  -0.47600  -0.47139  -0.46176  -0.45872
 Alpha  occ. eigenvalues --   -0.45519  -0.45350  -0.44895  -0.44654  -0.43854
 Alpha  occ. eigenvalues --   -0.43255  -0.43107  -0.42929  -0.42555  -0.42275
 Alpha  occ. eigenvalues --   -0.42183  -0.41944  -0.41643  -0.41358  -0.41221
 Alpha  occ. eigenvalues --   -0.40908  -0.40428  -0.40265  -0.40079  -0.39991
 Alpha  occ. eigenvalues --   -0.39751  -0.39453  -0.38766  -0.38367  -0.37891
 Alpha  occ. eigenvalues --   -0.37566  -0.37441  -0.36660  -0.36476  -0.36333
 Alpha  occ. eigenvalues --   -0.36014  -0.35485  -0.34998  -0.34683  -0.34256
 Alpha  occ. eigenvalues --   -0.34131  -0.33718  -0.33596  -0.32494  -0.32287
 Alpha  occ. eigenvalues --   -0.31230  -0.30812  -0.29590  -0.29334  -0.28516
 Alpha  occ. eigenvalues --   -0.28277  -0.27824  -0.25080  -0.24188  -0.23294
 Alpha  occ. eigenvalues --   -0.22899  -0.22681  -0.22235  -0.22049  -0.19135
 Alpha virt. eigenvalues --   -0.12549  -0.07121  -0.04205  -0.01188  -0.00788
 Alpha virt. eigenvalues --    0.00717   0.01475   0.02063   0.03020   0.03103
 Alpha virt. eigenvalues --    0.03666   0.03939   0.04444   0.04586   0.05131

 Mulliken charges:
               1
     1  O   -0.230167
     2  O   -0.182604
     3  O   -0.211577
     4  O   -0.143408
     5  O   -0.204837
     6  O   -0.229900
     7  N   -0.172155
     8  N   -0.293699
     9  N   -0.055615
    10  N   -0.302270
    11  C    0.088011
    12  C    0.328592
    13  C   -0.106536
    14  C   -0.083940
    15  C   -0.089468
    16  C    0.017655
    17  C   -0.190168
    18  C    0.146286
    19  C   -0.060812
    20  C   -0.000041
    21  C    0.127352
    22  C    0.152549
    23  C   -0.077443
    24  C    0.053654
    25  C    0.187154
    26  C   -0.106724
    27  C   -0.078394
    28  C   -0.005584
    29  C    0.028046
    30  C    0.018121
    31  C   -0.095397
    32  C    0.214691
    33  C   -0.034889
    34  C    0.135448
    35  C    0.124986
    36  C    0.001583
    37  C    0.108583
    38  C    0.049117
    39  C   -0.231457
    40  C    0.218971
    41  C   -0.067146
    42  C    0.034398
    43  C   -0.034491
    44  H    0.044578
    45  H   -0.031330
    46  H   -0.068047
    47  H    0.114968
    48  H    0.191378
    49  H   -0.023997
    50  H    0.012400
    51  H   -0.077247
    52  H    0.000198
    53  H   -0.014975
    54  H    0.040571
    55  H    0.012496
    56  H    0.035859
    57  H   -0.023394
    58  H    0.025577
    59  H    0.070396
    60  H    0.177144
    61  H    0.035290
    62  H    0.052451
    63  H   -0.025989
    64  H    0.068881
    65  H    0.047926
    66  H    0.025167
    67  H    0.012916
    68  H    0.001238
    69  H   -0.042278
    70  H   -0.035388
    71  H    0.027437
    72  H    0.165185
    73  H    0.021395
    74  H    0.058329
    75  H    0.014119
    76  H    0.057439
    77  H    0.203901
    78  H    0.022371
    79  H    0.056555
 Sum of Mulliken charges =  -0.00000

 Dipole moment (field-independent basis, Debye):
    X=              5.4361    Y=              2.1033    Z=             -1.2583  Tot=              5.9631
 Quadrupole moment (field-independent basis, Debye-Ang):
   XX=           -217.6721   YY=           -244.7555   ZZ=           -267.1432
   XY=              7.5079   XZ=            -24.3618   YZ=            -12.0937

 Normal termination of Gaussian 16 at Fri Jul 26 01:03:50 2019.
