 Gaussian 16, Revision A.03,
 Gaussian 16:  ES64L-G16RevA.03 25-Dec-2016

 --------------------------
 # td=(NStates=1) B3LYP/SVP
 --------------------------

 --
 TD
 --
 Symbolic Z-matrix:
 Charge =  0 Multiplicity = 1

                         Standard orientation:
 ---------------------------------------------------------------------
 Center     Atomic      Atomic             Coordinates (Angstroms)
 Number     Number       Type             X           Y           Z
 ---------------------------------------------------------------------
      1          8           0       -3.103695   -1.266491   -2.785860
      2          8           0        3.122559    3.194415    2.770712
      3          8           0        3.503933    1.691355    4.457978
      4          8           0        7.657074   -1.683202   -0.471090
      5          8           0        6.707865   -3.169962   -1.947706
      6          8           0       -2.616336    1.704902    1.412963
      7          7           0       -0.265730   -2.360737    1.047244
      8          7           0       -2.631088   -1.259779   -0.568056
      9          7           0        1.095563    0.029990   -0.843419
     10          7           0       -0.943153    1.531417   -0.153344
     11          6           0       -3.388764   -1.427506    0.599191
     12          6           0       -2.693153   -2.302783    1.758813
     13          6           0       -1.224863   -1.977670    1.931304
     14          6           0       -0.609998   -1.072182    2.779731
     15          6           0        0.744303   -1.018089    2.498936
     16          6           0        0.930925   -1.808214    1.268065
     17          6           0       -4.796919   -1.927248    0.271056
     18          6           0        1.819425   -0.337436    3.231941
     19          6           0       -4.783364   -2.048867   -1.082183
     20          6           0        2.017278   -1.835689    0.460896
     21          6           0        2.098206   -0.908208   -0.581222
     22          6           0       -3.483992   -1.535563   -1.610795
     23          6           0        2.997662   -0.747336   -1.720333
     24          6           0       -1.333195   -0.299753    3.841051
     25          6           0       -5.844779   -2.104526    1.364839
     26          6           0        2.580510    0.353241   -2.564276
     27          6           0        1.921358    1.239312    2.749232
     28          6           0        1.271308    0.831270   -1.938601
     29          6           0        4.150298   -1.571141   -1.887227
     30          6           0       -5.816461   -2.559802   -2.023852
     31          6           0        5.358529   -1.167475   -1.192268
     32          6           0        3.239232    0.914239   -3.750650
     33          6           0        0.544218    1.886778   -2.166845
     34          6           0        3.015402    2.005237    3.396243
     35          6           0       -0.572093    2.306930   -1.262007
     36          6           0       -6.883864   -3.349937   -1.651709
     37          6           0        6.588279   -2.130962   -1.297839
     38          6           0       -1.349780    3.492100   -1.317254
     39          6           0       -2.265940    3.379034   -0.196090
     40          6           0       -1.980590    2.153123    0.418582
     41          6           0       -1.207935    4.568887   -2.319445
     42          6           0       -3.330154    4.310019    0.263834
     43          6           0       -1.913209    5.626518   -2.548698
     44          1           0       -3.354463   -0.419884    1.138399
     45          1           0       -2.730303   -3.486844    1.208328
     46          1           0       -3.163737   -2.383021    2.700281
     47          1           0       -0.441578   -2.835998    0.076632
     48          1           0       -2.121592   -0.358070   -0.612142
     49          1           0        1.684016   -0.213748    4.288873
     50          1           0        2.663001   -1.168996    3.094034
     51          1           0        2.871876   -2.568310    0.643388
     52          1           0       -2.258870   -1.089367    4.151298
     53          1           0       -0.538166   -0.055044    4.693413
     54          1           0       -1.748232    0.760777    3.437969
     55          1           0       -5.935847   -1.115683    2.043386
     56          1           0       -5.517010   -3.047491    2.082775
     57          1           0       -6.833236   -2.346544    0.857194
     58          1           0        2.098823    1.180379    1.658372
     59          1           0        0.992856    1.822076    2.673953
     60          1           0        0.226246    0.280162   -0.253063
     61          1           0        4.400166   -1.575482   -2.929790
     62          1           0        3.949156   -2.688980   -1.608639
     63          1           0       -5.611520   -2.302630   -3.156538
     64          1           0        5.033020   -1.035735   -0.025391
     65          1           0        5.819760   -0.149894   -1.300714
     66          1           0        4.073976    0.331128   -4.271922
     67          1           0        3.690074    1.965990   -3.566479
     68          1           0        2.689717    1.008164   -4.540196
     69          1           0        0.700153    2.655523   -2.991835
     70          1           0       -7.152007   -3.951700   -0.688956
     71          1           0       -7.464436   -3.693482   -2.570927
     72          1           0        3.624776    3.692846    3.523138
     73          1           0       -0.544877    4.361560   -3.218461
     74          1           0       -4.009793    4.558982   -0.461136
     75          1           0       -3.653908    3.665458    1.125425
     76          1           0       -3.166530    5.331530    0.560176
     77          1           0        8.424757   -2.284897   -0.641612
     78          1           0       -1.756093    6.199472   -3.299884
     79          1           0       -2.687807    5.985566   -2.026824
 ---------------------------------------------------------------------

 SCF Done:  E(RB3LYP) =  -1947.80464005     A.U. after   20 cycles

 Excitation energies and oscillator strengths:

 Excited State   1:      Singlet-A      0.6256 eV 1981.75 nm  f=0.0031  <S**2>=0.000
     155 ->156         0.70355
 This state for optimization and/or second-order correction.
 Total Energy, E(TD-HF/TD-DFT) =  -1947.78164853
 Copying the excited state density for this state as the 1-particle RhoCI density.

 The electronic state is 1-A.
 Alpha  occ. eigenvalues --  -19.18841 -19.18232 -19.14615 -19.12625 -19.12438
 Alpha  occ. eigenvalues --  -19.08195 -14.37327 -14.36712 -14.33167 -14.31036
 Alpha  occ. eigenvalues --  -10.33991 -10.31378 -10.27601 -10.27049 -10.26428
 Alpha  occ. eigenvalues --  -10.26328 -10.25705 -10.23823 -10.23568 -10.22848
 Alpha  occ. eigenvalues --  -10.22643 -10.22622 -10.22331 -10.22169 -10.21963
 Alpha  occ. eigenvalues --  -10.21878 -10.21621 -10.21588 -10.21209 -10.21201
 Alpha  occ. eigenvalues --  -10.21107 -10.20913 -10.20179 -10.19996 -10.19838
 Alpha  occ. eigenvalues --  -10.19685 -10.19644 -10.19643 -10.19463 -10.18904
 Alpha  occ. eigenvalues --  -10.18262 -10.16697 -10.15931  -1.09498  -1.07890
 Alpha  occ. eigenvalues --   -1.02360  -1.00593  -0.99946  -0.99727  -0.98662
 Alpha  occ. eigenvalues --   -0.97339  -0.93805  -0.92292  -0.84871  -0.82959
 Alpha  occ. eigenvalues --   -0.81921  -0.80756  -0.79413  -0.79207  -0.79118
 Alpha  occ. eigenvalues --   -0.77824  -0.75890  -0.74990  -0.74234  -0.73190
 Alpha  occ. eigenvalues --   -0.72565  -0.70184  -0.69371  -0.68851  -0.67543
 Alpha  occ. eigenvalues --   -0.66095  -0.65447  -0.63940  -0.62235  -0.60156
 Alpha  occ. eigenvalues --   -0.59701  -0.59304  -0.57945  -0.57340  -0.56995
 Alpha  occ. eigenvalues --   -0.55964  -0.55783  -0.54468  -0.53645  -0.52795
 Alpha  occ. eigenvalues --   -0.52075  -0.51496  -0.50977  -0.49960  -0.49606
 Alpha  occ. eigenvalues --   -0.49343  -0.48914  -0.48724  -0.48274  -0.48078
 Alpha  occ. eigenvalues --   -0.47601  -0.47043  -0.46644  -0.46508  -0.46145
 Alpha  occ. eigenvalues --   -0.45739  -0.45340  -0.44993  -0.44685  -0.44459
 Alpha  occ. eigenvalues --   -0.43906  -0.43414  -0.43144  -0.42600  -0.42462
 Alpha  occ. eigenvalues --   -0.41966  -0.41613  -0.40973  -0.40913  -0.40765
 Alpha  occ. eigenvalues --   -0.40586  -0.40123  -0.40000  -0.39929  -0.39403
 Alpha  occ. eigenvalues --   -0.39189  -0.38910  -0.38514  -0.38113  -0.37865
 Alpha  occ. eigenvalues --   -0.37290  -0.37032  -0.36743  -0.36633  -0.36428
 Alpha  occ. eigenvalues --   -0.36024  -0.35434  -0.34606  -0.34288  -0.34090
 Alpha  occ. eigenvalues --   -0.33172  -0.32810  -0.32641  -0.32464  -0.31893
 Alpha  occ. eigenvalues --   -0.30872  -0.30620  -0.29510  -0.29385  -0.29189
 Alpha  occ. eigenvalues --   -0.28137  -0.26718  -0.26162  -0.24735  -0.23797
 Alpha  occ. eigenvalues --   -0.23570  -0.23008  -0.22735  -0.22197  -0.18797
 Alpha virt. eigenvalues --   -0.14153  -0.08538  -0.05214  -0.02353  -0.02082
 Alpha virt. eigenvalues --   -0.00008   0.00666   0.01504   0.02849   0.03949
 Alpha virt. eigenvalues --    0.03972   0.04264   0.04332   0.04742   0.05237

 Mulliken charges:
               1
     1  O   -0.281992
     2  O   -0.204224
     3  O   -0.229673
     4  O   -0.247823
     5  O   -0.225807
     6  O   -0.249052
     7  N   -0.031104
     8  N   -0.140401
     9  N   -0.150385
    10  N   -0.313622
    11  C   -0.005138
    12  C    0.110922
    13  C   -0.092871
    14  C   -0.081329
    15  C   -0.094285
    16  C    0.005255
    17  C   -0.085489
    18  C    0.084224
    19  C   -0.075423
    20  C   -0.163605
    21  C    0.137905
    22  C    0.126785
    23  C   -0.090373
    24  C   -0.031186
    25  C   -0.008879
    26  C   -0.090203
    27  C   -0.029493
    28  C    0.192584
    29  C    0.133738
    30  C   -0.030852
    31  C   -0.081798
    32  C    0.115996
    33  C   -0.101832
    34  C    0.161939
    35  C    0.047861
    36  C   -0.085159
    37  C    0.182930
    38  C    0.068459
    39  C   -0.161136
    40  C    0.158812
    41  C   -0.025431
    42  C    0.108915
    43  C    0.075878
    44  H    0.055418
    45  H   -0.009639
    46  H   -0.011760
    47  H    0.148953
    48  H    0.161292
    49  H    0.002512
    50  H    0.030063
    51  H    0.029635
    52  H    0.025149
    53  H    0.022880
    54  H    0.075006
    55  H    0.067712
    56  H    0.064415
    57  H    0.041505
    58  H    0.015372
    59  H    0.051497
    60  H    0.209834
    61  H   -0.002668
    62  H    0.041232
    63  H    0.051889
    64  H    0.058159
    65  H    0.046120
    66  H    0.021871
    67  H    0.041478
    68  H   -0.022648
    69  H    0.006376
    70  H    0.055616
    71  H    0.032445
    72  H    0.192807
    73  H    0.005422
    74  H    0.003204
    75  H    0.046721
    76  H    0.016313
    77  H    0.193523
    78  H   -0.033282
    79  H   -0.038058
 Sum of Mulliken charges =  -0.00000

 Dipole moment (field-independent basis, Debye):
    X=              1.7696    Y=              3.5954    Z=             -2.1797  Tot=              4.5617
 Quadrupole moment (field-independent basis, Debye-Ang):
   XX=           -236.8438   YY=           -232.5616   ZZ=           -267.6868
   XY=              5.8478   XZ=            -19.7819   YZ=            -16.6060

 Normal termination of Gaussian 16 at Wed Jul 24 14:01:39 2019.
