 Gaussian 16, Revision A.03,
 Gaussian 16:  ES64L-G16RevA.03 25-Dec-2016

 --------------------------
 # td=(NStates=1) B3LYP/SVP
 --------------------------

 --
 TD
 --
 Symbolic Z-matrix:
 Charge =  0 Multiplicity = 1

                         Standard orientation:
 ---------------------------------------------------------------------
 Center     Atomic      Atomic             Coordinates (Angstroms)
 Number     Number       Type             X           Y           Z
 ---------------------------------------------------------------------
      1          8           0       -3.311619   -1.441952   -2.952403
      2          8           0        3.037299    3.165307    3.655086
      3          8           0        3.974136    1.105392    4.246681
      4          8           0        7.736085   -1.443799   -1.006955
      5          8           0        6.445152   -3.037644   -2.264496
      6          8           0       -2.617562    1.473556    1.510360
      7          7           0       -0.254963   -2.421654    0.873623
      8          7           0       -2.546899   -1.258256   -0.720971
      9          7           0        1.184669    0.208446   -0.673998
     10          7           0       -0.888232    1.533252   -0.157971
     11          6           0       -3.346293   -1.423149    0.583844
     12          6           0       -2.650714   -2.387941    1.577522
     13          6           0       -1.203559   -2.097246    1.789619
     14          6           0       -0.438025   -1.334331    2.815699
     15          6           0        0.899800   -1.266743    2.436091
     16          6           0        0.931370   -1.826834    1.163590
     17          6           0       -4.772184   -1.911766    0.141236
     18          6           0        2.110136   -0.569905    3.136212
     19          6           0       -4.777028   -1.960023   -1.163279
     20          6           0        2.072002   -1.920425    0.224388
     21          6           0        2.055013   -0.837766   -0.699384
     22          6           0       -3.497725   -1.504354   -1.700280
     23          6           0        2.939911   -0.573812   -1.812838
     24          6           0       -1.168480   -0.696353    3.974384
     25          6           0       -5.793485   -2.151059    1.308155
     26          6           0        2.534570    0.551662   -2.447553
     27          6           0        1.940093    1.011707    2.932511
     28          6           0        1.304414    1.083970   -1.717645
     29          6           0        4.233220   -1.333291   -2.171666
     30          6           0       -5.855472   -2.451257   -2.042888
     31          6           0        5.358204   -1.065530   -1.301104
     32          6           0        3.095104    1.298009   -3.735936
     33          6           0        0.482754    2.082737   -1.950280
     34          6           0        3.047696    1.786605    3.690804
     35          6           0       -0.662262    2.388453   -1.130319
     36          6           0       -6.938500   -3.090365   -1.566496
     37          6           0        6.576705   -2.024798   -1.582616
     38          6           0       -1.503402    3.569257   -1.200778
     39          6           0       -2.404381    3.384560   -0.096645
     40          6           0       -2.085193    2.109940    0.549981
     41          6           0       -1.345447    4.651510   -2.172471
     42          6           0       -3.435442    4.218570    0.476226
     43          6           0       -2.146228    5.785803   -2.268046
     44          1           0       -3.627278   -0.282005    0.987083
     45          1           0       -2.710070   -3.393095    1.051140
     46          1           0       -3.107714   -2.566241    2.654835
     47          1           0       -0.735965   -2.770009   -0.061189
     48          1           0       -1.790057   -0.496422   -0.681247
     49          1           0        1.896099   -0.970363    4.105505
     50          1           0        3.090732   -0.916648    2.755627
     51          1           0        2.636447   -2.817217    0.038366
     52          1           0       -2.105907   -1.353024    4.394668
     53          1           0       -0.535905   -0.444065    4.948954
     54          1           0       -1.774856    0.111328    3.655052
     55          1           0       -5.575667   -1.494389    2.219116
     56          1           0       -5.922085   -3.315371    1.597842
     57          1           0       -6.762415   -1.640732    0.715146
     58          1           0        2.160842    1.254455    1.768370
     59          1           0        1.102139    1.354092    3.347936
     60          1           0        0.253959    0.496925    0.049084
     61          1           0        4.613069   -1.092855   -3.175447
     62          1           0        4.014280   -2.290362   -2.012086
     63          1           0       -5.771337   -2.129286   -3.153091
     64          1           0        5.216535   -1.341671   -0.120960
     65          1           0        5.685924   -0.147690   -1.273166
     66          1           0        4.240455    0.857575   -3.961665
     67          1           0        3.053924    2.560822   -3.685215
     68          1           0        2.400900    1.130970   -4.599992
     69          1           0        0.712797    2.947881   -2.658607
     70          1           0       -6.838348   -3.793295   -0.581363
     71          1           0       -7.601432   -3.335455   -2.328939
     72          1           0        3.807099    3.256406    4.137141
     73          1           0       -0.434074    4.555524   -2.815612
     74          1           0       -4.199859    4.395745   -0.315975
     75          1           0       -3.908076    3.663151    1.299117
     76          1           0       -2.990599    5.413722    0.639133
     77          1           0        8.670436   -1.897895   -1.224388
     78          1           0       -2.063858    6.542896   -3.099094
     79          1           0       -3.013128    5.972203   -1.607264
 ---------------------------------------------------------------------

 SCF Done:  E(RB3LYP) =  -1947.77786994     A.U. after   21 cycles

 Excitation energies and oscillator strengths:

 Excited State   1:      Singlet-A      0.7645 eV 1621.82 nm  f=0.0090  <S**2>=0.000
     155 ->156         0.70349
 This state for optimization and/or second-order correction.
 Total Energy, E(TD-HF/TD-DFT) =  -1947.74977605
 Copying the excited state density for this state as the 1-particle RhoCI density.

 The electronic state is 1-A.
 Alpha  occ. eigenvalues --  -19.19204 -19.19030 -19.14306 -19.14184 -19.12372
 Alpha  occ. eigenvalues --  -19.08061 -14.36897 -14.35664 -14.34854 -14.32353
 Alpha  occ. eigenvalues --  -10.33569 -10.32357 -10.30139 -10.27240 -10.25348
 Alpha  occ. eigenvalues --  -10.25091 -10.24806 -10.24056 -10.23847 -10.23758
 Alpha  occ. eigenvalues --  -10.23585 -10.22997 -10.22942 -10.22934 -10.22188
 Alpha  occ. eigenvalues --  -10.22165 -10.21723 -10.21416 -10.21286 -10.21050
 Alpha  occ. eigenvalues --  -10.20895 -10.20824 -10.20513 -10.20165 -10.19985
 Alpha  occ. eigenvalues --  -10.19782 -10.19657 -10.19409 -10.18642 -10.18604
 Alpha  occ. eigenvalues --  -10.18489 -10.17232 -10.17007  -1.09945  -1.06625
 Alpha  occ. eigenvalues --   -1.02120  -1.00232  -0.98606  -0.98395  -0.98247
 Alpha  occ. eigenvalues --   -0.96533  -0.94233  -0.90553  -0.83562  -0.82412
 Alpha  occ. eigenvalues --   -0.81231  -0.81136  -0.79406  -0.78384  -0.77576
 Alpha  occ. eigenvalues --   -0.77217  -0.75330  -0.75033  -0.73898  -0.72139
 Alpha  occ. eigenvalues --   -0.70740  -0.69724  -0.69016  -0.67297  -0.67145
 Alpha  occ. eigenvalues --   -0.66068  -0.64986  -0.62734  -0.60997  -0.59550
 Alpha  occ. eigenvalues --   -0.59443  -0.59013  -0.58631  -0.56992  -0.56499
 Alpha  occ. eigenvalues --   -0.55958  -0.55181  -0.54428  -0.53322  -0.52496
 Alpha  occ. eigenvalues --   -0.51197  -0.50640  -0.50234  -0.49210  -0.49150
 Alpha  occ. eigenvalues --   -0.48782  -0.48679  -0.48295  -0.48108  -0.47449
 Alpha  occ. eigenvalues --   -0.47016  -0.46397  -0.46284  -0.45887  -0.45393
 Alpha  occ. eigenvalues --   -0.45066  -0.44689  -0.44224  -0.44006  -0.43146
 Alpha  occ. eigenvalues --   -0.43036  -0.42758  -0.42287  -0.42078  -0.41872
 Alpha  occ. eigenvalues --   -0.41596  -0.40979  -0.40782  -0.40501  -0.40464
 Alpha  occ. eigenvalues --   -0.40176  -0.39926  -0.39904  -0.39510  -0.39402
 Alpha  occ. eigenvalues --   -0.39109  -0.38614  -0.38171  -0.38051  -0.37609
 Alpha  occ. eigenvalues --   -0.37448  -0.37279  -0.36970  -0.36640  -0.36345
 Alpha  occ. eigenvalues --   -0.36085  -0.36009  -0.35855  -0.34767  -0.34341
 Alpha  occ. eigenvalues --   -0.33544  -0.33138  -0.32625  -0.32348  -0.31641
 Alpha  occ. eigenvalues --   -0.31133  -0.30693  -0.30363  -0.29274  -0.28710
 Alpha  occ. eigenvalues --   -0.27131  -0.26936  -0.26183  -0.25358  -0.24307
 Alpha  occ. eigenvalues --   -0.23819  -0.23212  -0.23149  -0.21683  -0.18344
 Alpha virt. eigenvalues --   -0.13443  -0.07779  -0.04172  -0.02919  -0.01136
 Alpha virt. eigenvalues --   -0.01046   0.00460   0.01502   0.02374   0.02401
 Alpha virt. eigenvalues --    0.02893   0.03451   0.03741   0.04626   0.05099

 Mulliken charges:
               1
     1  O   -0.283270
     2  O   -0.146783
     3  O   -0.294669
     4  O   -0.291317
     5  O   -0.220313
     6  O   -0.229855
     7  N   -0.065316
     8  N   -0.256030
     9  N   -0.193679
    10  N   -0.363797
    11  C   -0.026701
    12  C    0.168631
    13  C   -0.132005
    14  C   -0.118308
    15  C   -0.116350
    16  C   -0.033079
    17  C   -0.149412
    18  C    0.154553
    19  C   -0.025388
    20  C   -0.071548
    21  C    0.090039
    22  C    0.168762
    23  C   -0.120342
    24  C    0.027510
    25  C   -0.028904
    26  C   -0.075646
    27  C    0.038689
    28  C    0.161815
    29  C    0.272858
    30  C   -0.044475
    31  C   -0.016066
    32  C   -0.023037
    33  C   -0.132472
    34  C    0.148908
    35  C    0.065930
    36  C   -0.033492
    37  C    0.186912
    38  C    0.075905
    39  C   -0.191333
    40  C    0.227671
    41  C   -0.021113
    42  C    0.037073
    43  C   -0.043392
    44  H    0.091720
    45  H   -0.008114
    46  H    0.031709
    47  H    0.158312
    48  H    0.176913
    49  H    0.013561
    50  H    0.011111
    51  H    0.006169
    52  H   -0.005780
    53  H    0.022544
    54  H    0.016922
    55  H    0.047427
    56  H    0.074826
    57  H    0.072797
    58  H    0.075765
    59  H    0.003508
    60  H    0.281403
    61  H    0.009876
    62  H   -0.040874
    63  H    0.036560
    64  H    0.056904
    65  H   -0.029706
    66  H    0.054823
    67  H    0.049914
    68  H    0.052326
    69  H   -0.011650
    70  H    0.052715
    71  H    0.006345
    72  H    0.139761
    73  H    0.015126
    74  H    0.042574
    75  H    0.041545
    76  H    0.064420
    77  H    0.229526
    78  H    0.051126
    79  H    0.030731
 Sum of Mulliken charges =  -0.00000

 Dipole moment (field-independent basis, Debye):
    X=              1.3707    Y=              4.7845    Z=             -0.7832  Tot=              5.0382
 Quadrupole moment (field-independent basis, Debye-Ang):
   XX=           -230.1681   YY=           -233.4385   ZZ=           -269.8153
   XY=              0.2780   XZ=            -21.3468   YZ=            -16.7534

 Normal termination of Gaussian 16 at Sat Jul 27 06:57:19 2019.
