 Gaussian 16, Revision A.03,
 Gaussian 16:  ES64L-G16RevA.03 25-Dec-2016

 --------------------------
 # td=(NStates=1) B3LYP/SVP
 --------------------------

 --
 TD
 --
 Symbolic Z-matrix:
 Charge =  0 Multiplicity = 1

                         Standard orientation:
 ---------------------------------------------------------------------
 Center     Atomic      Atomic             Coordinates (Angstroms)
 Number     Number       Type             X           Y           Z
 ---------------------------------------------------------------------
      1          8           0       -3.333142   -0.635832   -3.003007
      2          8           0        3.351127    2.222446    3.525289
      3          8           0        3.753144    0.260737    4.414564
      4          8           0        7.570458   -1.631789   -0.676782
      5          8           0        6.823852   -2.091968   -2.879702
      6          8           0       -2.571782    1.194192    1.847889
      7          7           0       -0.322879   -2.510387    0.418541
      8          7           0       -2.754695   -1.053931   -0.808876
      9          7           0        1.071474    0.197035   -0.843506
     10          7           0       -0.916672    1.392380    0.116953
     11          6           0       -3.496438   -1.463098    0.442248
     12          6           0       -2.669455   -2.692906    1.166697
     13          6           0       -1.245321   -2.352277    1.384871
     14          6           0       -0.535811   -1.868827    2.492376
     15          6           0        0.836386   -1.742504    2.128908
     16          6           0        0.970920   -2.151385    0.764396
     17          6           0       -4.766783   -1.910804   -0.083171
     18          6           0        2.027539   -1.102534    2.856220
     19          6           0       -4.890819   -1.599854   -1.402662
     20          6           0        2.110189   -1.916468   -0.295328
     21          6           0        2.063145   -0.745467   -0.995595
     22          6           0       -3.568504   -1.040077   -1.905447
     23          6           0        3.001635   -0.199866   -1.922517
     24          6           0       -1.226962   -1.372768    3.759018
     25          6           0       -5.756885   -2.499263    0.874703
     26          6           0        2.486997    1.033307   -2.327258
     27          6           0        1.999939    0.414430    2.779664
     28          6           0        1.332186    1.352429   -1.590033
     29          6           0        4.269633   -0.833785   -2.361818
     30          6           0       -6.015732   -1.737512   -2.442990
     31          6           0        5.388748   -0.774513   -1.310868
     32          6           0        3.128433    2.050553   -3.265668
     33          6           0        0.490834    2.465427   -1.566392
     34          6           0        3.143111    0.916183    3.667686
     35          6           0       -0.570928    2.491932   -0.704277
     36          6           0       -6.991927   -2.683489   -2.348807
     37          6           0        6.721488   -1.574010   -1.775648
     38          6           0       -1.442806    3.759275   -0.387659
     39          6           0       -2.227725    3.354083    0.719212
     40          6           0       -1.995664    1.895955    0.922048
     41          6           0       -1.402242    4.852180   -1.186932
     42          6           0       -3.263155    4.140091    1.334513
     43          6           0       -2.166517    6.032065   -0.939854
     44          1           0       -3.469700   -0.564217    1.129003
     45          1           0       -2.677707   -3.661314    0.525505
     46          1           0       -3.082008   -3.002599    2.139977
     47          1           0       -0.535278   -2.880276   -0.534364
     48          1           0       -2.141836   -0.167458   -0.954923
     49          1           0        1.892285   -1.576099    4.004608
     50          1           0        2.764848   -1.583623    2.480992
     51          1           0        2.666184   -2.728336   -0.613489
     52          1           0       -1.920577   -1.949233    4.104248
     53          1           0       -0.458340   -1.377483    4.495487
     54          1           0       -1.852073   -0.413143    3.698524
     55          1           0       -5.791792   -1.893009    1.808731
     56          1           0       -5.956873   -3.627394    0.782407
     57          1           0       -6.849454   -2.450371    0.475219
     58          1           0        2.177695    0.799117    1.737401
     59          1           0        1.022630    0.799942    2.939967
     60          1           0        0.194864    0.129387   -0.303750
     61          1           0        4.622396   -0.572841   -3.356237
     62          1           0        3.961601   -1.982482   -2.232037
     63          1           0       -5.682477   -1.117065   -3.471230
     64          1           0        5.210927   -1.213903   -0.264391
     65          1           0        5.893531    0.278572   -1.112252
     66          1           0        4.061543    1.592742   -3.901985
     67          1           0        3.469428    2.981837   -2.805021
     68          1           0        2.351755    2.486948   -3.986636
     69          1           0        0.493353    3.305939   -2.351144
     70          1           0       -7.214032   -3.431979   -1.557023
     71          1           0       -7.837933   -2.615963   -3.014479
     72          1           0        4.208975    2.430297    4.134877
     73          1           0       -0.809394    4.755880   -2.023213
     74          1           0       -4.074435    4.420813    0.581511
     75          1           0       -3.782303    3.493126    1.933943
     76          1           0       -3.004268    5.021859    1.765306
     77          1           0        8.295195   -2.100230   -1.157728
     78          1           0       -2.081151    6.665965   -1.861111
     79          1           0       -2.780467    6.049600   -0.122283
 ---------------------------------------------------------------------

 SCF Done:  E(RB3LYP) =  -1947.83873799     A.U. after   19 cycles

 Excitation energies and oscillator strengths:

 Excited State   1:      Singlet-A      0.8729 eV 1420.34 nm  f=0.0020  <S**2>=0.000
     155 ->156         0.70212
 This state for optimization and/or second-order correction.
 Total Energy, E(TD-HF/TD-DFT) =  -1947.80665877
 Copying the excited state density for this state as the 1-particle RhoCI density.

 The electronic state is 1-A.
 Alpha  occ. eigenvalues --  -19.20882 -19.17632 -19.15642 -19.11811 -19.11598
 Alpha  occ. eigenvalues --  -19.08555 -14.36875 -14.36195 -14.32563 -14.31835
 Alpha  occ. eigenvalues --  -10.34449 -10.30340 -10.28770 -10.26718 -10.25774
 Alpha  occ. eigenvalues --  -10.25483 -10.25400 -10.23790 -10.23300 -10.23230
 Alpha  occ. eigenvalues --  -10.22963 -10.22738 -10.22722 -10.22504 -10.21625
 Alpha  occ. eigenvalues --  -10.21560 -10.21539 -10.21410 -10.21056 -10.20728
 Alpha  occ. eigenvalues --  -10.20628 -10.20249 -10.20206 -10.19948 -10.19276
 Alpha  occ. eigenvalues --  -10.19059 -10.18635 -10.18505 -10.18239 -10.17786
 Alpha  occ. eigenvalues --  -10.16699 -10.15924 -10.15155  -1.10451  -1.09821
 Alpha  occ. eigenvalues --   -1.02774  -1.01958  -1.00390  -0.99759  -0.98977
 Alpha  occ. eigenvalues --   -0.95987  -0.91346  -0.91059  -0.83918  -0.82757
 Alpha  occ. eigenvalues --   -0.82372  -0.79453  -0.79235  -0.78702  -0.77709
 Alpha  occ. eigenvalues --   -0.76956  -0.75731  -0.74923  -0.73750  -0.72226
 Alpha  occ. eigenvalues --   -0.70854  -0.69690  -0.69075  -0.69005  -0.67398
 Alpha  occ. eigenvalues --   -0.66463  -0.65482  -0.63819  -0.62206  -0.59945
 Alpha  occ. eigenvalues --   -0.59268  -0.57882  -0.57759  -0.57245  -0.56574
 Alpha  occ. eigenvalues --   -0.56128  -0.54529  -0.54200  -0.53103  -0.52559
 Alpha  occ. eigenvalues --   -0.51867  -0.51435  -0.51002  -0.49978  -0.49696
 Alpha  occ. eigenvalues --   -0.49402  -0.49000  -0.48239  -0.48036  -0.47487
 Alpha  occ. eigenvalues --   -0.47305  -0.47188  -0.46627  -0.45909  -0.45381
 Alpha  occ. eigenvalues --   -0.45091  -0.44806  -0.44625  -0.44399  -0.43708
 Alpha  occ. eigenvalues --   -0.43268  -0.43080  -0.42988  -0.42719  -0.42267
 Alpha  occ. eigenvalues --   -0.41780  -0.41605  -0.41224  -0.40977  -0.40688
 Alpha  occ. eigenvalues --   -0.40605  -0.40375  -0.39998  -0.39815  -0.39536
 Alpha  occ. eigenvalues --   -0.39179  -0.38735  -0.38437  -0.38420  -0.38126
 Alpha  occ. eigenvalues --   -0.37709  -0.37028  -0.36827  -0.36510  -0.36283
 Alpha  occ. eigenvalues --   -0.35947  -0.35643  -0.35514  -0.34768  -0.34669
 Alpha  occ. eigenvalues --   -0.34231  -0.32970  -0.32669  -0.32433  -0.31827
 Alpha  occ. eigenvalues --   -0.31399  -0.29704  -0.29297  -0.28760  -0.28517
 Alpha  occ. eigenvalues --   -0.27726  -0.26695  -0.25770  -0.24982  -0.23649
 Alpha  occ. eigenvalues --   -0.23378  -0.22624  -0.22455  -0.21749  -0.19000
 Alpha virt. eigenvalues --   -0.13272  -0.08927  -0.03848  -0.02764  -0.01813
 Alpha virt. eigenvalues --    0.01906   0.02123   0.02521   0.02918   0.03348
 Alpha virt. eigenvalues --    0.03533   0.03654   0.04479   0.05076   0.05337

 Mulliken charges:
               1
     1  O   -0.218948
     2  O   -0.221903
     3  O   -0.186705
     4  O   -0.193825
     5  O   -0.222748
     6  O   -0.285901
     7  N   -0.062297
     8  N   -0.259155
     9  N   -0.105099
    10  N   -0.362468
    11  C    0.065502
    12  C    0.159560
    13  C   -0.086405
    14  C   -0.140559
    15  C   -0.172334
    16  C   -0.053596
    17  C   -0.137295
    18  C    0.168489
    19  C   -0.086843
    20  C   -0.073823
    21  C    0.153374
    22  C    0.103296
    23  C   -0.048615
    24  C    0.186130
    25  C    0.058980
    26  C   -0.102998
    27  C    0.020445
    28  C    0.161982
    29  C    0.105893
    30  C   -0.021135
    31  C   -0.095412
    32  C    0.029640
    33  C   -0.134891
    34  C    0.119518
    35  C    0.087908
    36  C   -0.047586
    37  C    0.160279
    38  C    0.112604
    39  C   -0.190016
    40  C    0.236232
    41  C   -0.079476
    42  C    0.164604
    43  C    0.058951
    44  H    0.079409
    45  H   -0.002089
    46  H    0.006000
    47  H    0.116414
    48  H    0.162288
    49  H    0.032954
    50  H   -0.069805
    51  H   -0.003955
    52  H   -0.075211
    53  H   -0.021737
    54  H    0.039625
    55  H    0.044593
    56  H    0.039568
    57  H    0.002726
    58  H    0.024418
    59  H    0.039692
    60  H    0.187693
    61  H    0.034206
    62  H    0.034386
    63  H    0.070336
    64  H    0.068053
    65  H    0.053238
    66  H    0.044194
    67  H    0.032939
    68  H    0.033340
    69  H    0.021425
    70  H    0.020767
    71  H    0.016396
    72  H    0.211202
    73  H   -0.049653
    74  H    0.027584
    75  H   -0.012776
    76  H    0.014617
    77  H    0.179876
    78  H    0.044511
    79  H   -0.010580
 Sum of Mulliken charges =  -0.00000

 Dipole moment (field-independent basis, Debye):
    X=              3.2719    Y=              3.2381    Z=             -1.4948  Tot=              4.8399
 Quadrupole moment (field-independent basis, Debye-Ang):
   XX=           -227.7629   YY=           -227.7733   ZZ=           -275.2218
   XY=              6.1166   XZ=            -18.3634   YZ=             -6.1622

 Normal termination of Gaussian 16 at Thu Jul 25 10:08:26 2019.
