 Gaussian 16, Revision A.03,
 Gaussian 16:  ES64L-G16RevA.03 25-Dec-2016

 --------------------------
 # td=(NStates=1) B3LYP/SVP
 --------------------------

 --
 TD
 --
 Symbolic Z-matrix:
 Charge =  0 Multiplicity = 1

                         Standard orientation:
 ---------------------------------------------------------------------
 Center     Atomic      Atomic             Coordinates (Angstroms)
 Number     Number       Type             X           Y           Z
 ---------------------------------------------------------------------
      1          8           0        5.283731   -0.017700   -3.175177
      2          8           0       -3.173383   -2.944794    3.222503
      3          8           0       -3.402514   -0.701032    3.024617
      4          8           0       -1.125083    7.090163    1.601663
      5          8           0       -0.433158    7.192867   -0.480033
      6          8           0       -1.939318   -3.910059   -0.083501
      7          7           0        2.306799    0.717386    0.644963
      8          7           0        4.263154   -0.751838   -1.142146
      9          7           0       -1.853708    0.723041   -0.306397
     10          7           0       -2.717839   -1.733576   -0.560829
     11          6           0        4.806620   -1.407656   -0.055846
     12          6           0        4.406446   -0.593254    1.178527
     13          6           0        2.958412   -0.197941    1.433543
     14          6           0        1.881671   -0.795828    2.167899
     15          6           0        0.706936   -0.106935    1.823896
     16          6           0        1.022977    0.871249    0.821988
     17          6           0        6.247389   -1.485910   -0.208526
     18          6           0       -0.675097   -0.280891    2.609026
     19          6           0        6.605923   -0.842726   -1.338416
     20          6           0        0.270995    1.941940    0.222599
     21          6           0       -1.056944    1.814561   -0.260442
     22          6           0        5.341043   -0.414179   -2.065022
     23          6           0       -1.813988    2.908136   -0.935935
     24          6           0        2.025446   -1.853646    3.341886
     25          6           0        7.187517   -2.264349    0.769189
     26          6           0       -2.994795    2.390438   -1.262408
     27          6           0       -1.229072   -1.741409    2.581055
     28          6           0       -3.013767    1.039657   -0.999691
     29          6           0       -1.264215    4.337130   -0.928055
     30          6           0        7.823759   -0.791560   -2.111326
     31          6           0       -1.451629    5.044020    0.455339
     32          6           0       -4.065126    3.265998   -1.896805
     33          6           0       -4.054009    0.121210   -1.235271
     34          6           0       -2.735918   -1.712408    2.964296
     35          6           0       -3.787747   -1.282245   -1.069075
     36          6           0        9.147147   -0.859738   -1.559954
     37          6           0       -0.940786    6.538915    0.498164
     38          6           0       -4.708045   -2.404909   -1.596700
     39          6           0       -4.072839   -3.552222   -1.180763
     40          6           0       -2.792051   -3.139867   -0.602343
     41          6           0       -5.995667   -2.139668   -2.143473
     42          6           0       -4.414304   -5.029179   -1.325677
     43          6           0       -6.754534   -3.271040   -2.586013
     44          1           0        4.424800   -2.407624   -0.049742
     45          1           0        5.145549    0.320642    1.178010
     46          1           0        4.909004   -1.122326    2.115621
     47          1           0        2.525869    0.896389   -0.532076
     48          1           0        3.278397   -0.822679   -1.400497
     49          1           0       -0.452141    0.157698    3.717218
     50          1           0       -1.437367    0.305471    2.127632
     51          1           0        0.637935    2.864139   -0.104405
     52          1           0        3.115069   -1.734861    3.819943
     53          1           0        1.199689   -1.697137    4.066322
     54          1           0        1.965386   -3.002904    2.875679
     55          1           0        6.528411   -3.080715    1.313476
     56          1           0        7.710430   -1.609495    1.485977
     57          1           0        8.013794   -2.742074    0.225838
     58          1           0       -1.338806   -2.240427    1.505174
     59          1           0       -0.898335   -2.345219    3.209319
     60          1           0       -1.454644   -0.100214   -0.242379
     61          1           0       -1.697050    4.852469   -1.783040
     62          1           0       -0.237769    4.249157   -1.140579
     63          1           0        7.611411   -0.559135   -3.163552
     64          1           0       -0.936626    4.407884    1.165954
     65          1           0       -2.528452    5.155173    0.823878
     66          1           0       -3.887275    4.401303   -2.061179
     67          1           0       -4.903709    3.280316   -1.098465
     68          1           0       -4.275841    2.795481   -3.058408
     69          1           0       -5.067269    0.375528   -1.523434
     70          1           0        9.429492   -1.082785   -0.486801
     71          1           0       10.032623   -0.551966   -2.211021
     72          1           0       -4.216785   -3.041208    3.555766
     73          1           0       -6.456294   -1.061646   -2.431835
     74          1           0       -5.280958   -5.317862   -0.833521
     75          1           0       -4.476162   -5.402466   -2.426076
     76          1           0       -3.538257   -5.530188   -1.060317
     77          1           0       -0.573454    7.881235    1.679251
     78          1           0       -7.671460   -3.130920   -3.291707
     79          1           0       -6.540747   -4.353837   -2.329721
 ---------------------------------------------------------------------

 SCF Done:  E(RB3LYP) =  -1947.82274413     A.U. after   16 cycles

 Excitation energies and oscillator strengths:

 Excited State   1:      Singlet-A      1.9480 eV  636.48 nm  f=0.4477  <S**2>=0.000
     155 ->156         0.70131
     155 <-156        -0.11279
 This state for optimization and/or second-order correction.
 Total Energy, E(TD-HF/TD-DFT) =  -1947.75115736
 Copying the excited state density for this state as the 1-particle RhoCI density.

 The electronic state is 1-A.
 Alpha  occ. eigenvalues --  -19.20704 -19.17346 -19.11665 -19.11611 -19.10617
 Alpha  occ. eigenvalues --  -19.10149 -14.38322 -14.35986 -14.35275 -14.28797
 Alpha  occ. eigenvalues --  -10.32922 -10.29724 -10.29359 -10.26608 -10.24738
 Alpha  occ. eigenvalues --  -10.23776 -10.23656 -10.22946 -10.22839 -10.22719
 Alpha  occ. eigenvalues --  -10.22551 -10.22542 -10.22474 -10.22221 -10.22121
 Alpha  occ. eigenvalues --  -10.22020 -10.21820 -10.21598 -10.21585 -10.21326
 Alpha  occ. eigenvalues --  -10.21273 -10.20841 -10.20710 -10.20616 -10.20126
 Alpha  occ. eigenvalues --  -10.20067 -10.19648 -10.19585 -10.19495 -10.19256
 Alpha  occ. eigenvalues --  -10.18985 -10.18303 -10.17438  -1.14397  -1.06591
 Alpha  occ. eigenvalues --   -1.05096  -1.00148  -0.99685  -0.99112  -0.97887
 Alpha  occ. eigenvalues --   -0.97390  -0.95963  -0.93080  -0.83504  -0.82200
 Alpha  occ. eigenvalues --   -0.81428  -0.80456  -0.79111  -0.78455  -0.77447
 Alpha  occ. eigenvalues --   -0.76527  -0.75027  -0.74434  -0.73734  -0.71674
 Alpha  occ. eigenvalues --   -0.70981  -0.70141  -0.69748  -0.69140  -0.67804
 Alpha  occ. eigenvalues --   -0.66415  -0.65000  -0.63747  -0.63173  -0.61673
 Alpha  occ. eigenvalues --   -0.60667  -0.58651  -0.58219  -0.58006  -0.57405
 Alpha  occ. eigenvalues --   -0.56143  -0.55050  -0.54386  -0.53927  -0.53113
 Alpha  occ. eigenvalues --   -0.52421  -0.51897  -0.51394  -0.50595  -0.49708
 Alpha  occ. eigenvalues --   -0.49065  -0.48515  -0.48273  -0.47524  -0.47288
 Alpha  occ. eigenvalues --   -0.46752  -0.46333  -0.45733  -0.45328  -0.45221
 Alpha  occ. eigenvalues --   -0.44904  -0.44291  -0.44094  -0.43914  -0.43342
 Alpha  occ. eigenvalues --   -0.43298  -0.42526  -0.42453  -0.42321  -0.41970
 Alpha  occ. eigenvalues --   -0.41810  -0.41670  -0.41459  -0.41067  -0.40918
 Alpha  occ. eigenvalues --   -0.40552  -0.40274  -0.40261  -0.39853  -0.39505
 Alpha  occ. eigenvalues --   -0.39358  -0.38959  -0.38801  -0.38505  -0.37690
 Alpha  occ. eigenvalues --   -0.37171  -0.36859  -0.36721  -0.36457  -0.36063
 Alpha  occ. eigenvalues --   -0.35787  -0.35385  -0.35148  -0.35010  -0.34303
 Alpha  occ. eigenvalues --   -0.33937  -0.33604  -0.32385  -0.31697  -0.31348
 Alpha  occ. eigenvalues --   -0.31075  -0.30356  -0.28931  -0.27446  -0.27205
 Alpha  occ. eigenvalues --   -0.27050  -0.26717  -0.26228  -0.25568  -0.24395
 Alpha  occ. eigenvalues --   -0.24235  -0.24013  -0.23461  -0.22181  -0.18672
 Alpha virt. eigenvalues --   -0.11048  -0.07056  -0.06177  -0.01652  -0.01041
 Alpha virt. eigenvalues --   -0.00594   0.00019   0.02023   0.02289   0.03071
 Alpha virt. eigenvalues --    0.03306   0.03621   0.04083   0.04437   0.05305

 Mulliken charges:
               1
     1  O   -0.167562
     2  O   -0.244497
     3  O   -0.240330
     4  O   -0.069310
     5  O   -0.310002
     6  O   -0.245017
     7  N   -0.089723
     8  N   -0.251736
     9  N    0.042873
    10  N   -0.209154
    11  C    0.140337
    12  C    0.093615
    13  C   -0.052716
    14  C   -0.107805
    15  C   -0.102586
    16  C    0.020897
    17  C   -0.177120
    18  C    0.069024
    19  C   -0.072255
    20  C   -0.023529
    21  C   -0.037618
    22  C    0.164873
    23  C   -0.109199
    24  C    0.001844
    25  C    0.057257
    26  C   -0.101858
    27  C    0.059046
    28  C    0.154069
    29  C    0.169785
    30  C   -0.012696
    31  C   -0.016855
    32  C   -0.011544
    33  C   -0.112844
    34  C    0.114047
    35  C    0.005870
    36  C   -0.077858
    37  C    0.110259
    38  C    0.056794
    39  C   -0.193785
    40  C    0.164293
    41  C   -0.082078
    42  C    0.135531
    43  C   -0.077637
    44  H    0.001695
    45  H    0.008626
    46  H    0.004283
    47  H    0.179066
    48  H    0.134228
    49  H    0.033848
    50  H    0.009483
    51  H   -0.048886
    52  H    0.037134
    53  H    0.039386
    54  H    0.054160
    55  H    0.040549
    56  H    0.043795
    57  H    0.035744
    58  H    0.105142
    59  H   -0.066249
    60  H    0.086831
    61  H    0.010276
    62  H   -0.003355
    63  H    0.028551
    64  H    0.036827
    65  H    0.050065
    66  H    0.040799
    67  H    0.047226
    68  H    0.060274
    69  H   -0.023978
    70  H    0.038400
    71  H    0.046650
    72  H    0.235271
    73  H    0.050082
    74  H    0.020197
    75  H    0.026020
    76  H   -0.001891
    77  H    0.191186
    78  H    0.042827
    79  H    0.042644
 Sum of Mulliken charges =  -0.00000

 Dipole moment (field-independent basis, Debye):
    X=             -0.2429    Y=              0.6752    Z=              2.5322  Tot=              2.6319
 Quadrupole moment (field-independent basis, Debye-Ang):
   XX=           -216.0511   YY=           -248.4429   ZZ=           -257.7030
   XY=             -6.8047   XZ=             26.1479   YZ=             10.5861

 Normal termination of Gaussian 16 at Wed Sep 18 08:35:16 2019.
