 Gaussian 16, Revision A.03,
 Gaussian 16:  ES64L-G16RevA.03 25-Dec-2016

 --------------------------
 # td=(NStates=1) B3LYP/SVP
 --------------------------

 --
 TD
 --
 Symbolic Z-matrix:
 Charge =  0 Multiplicity = 1

                         Standard orientation:
 ---------------------------------------------------------------------
 Center     Atomic      Atomic             Coordinates (Angstroms)
 Number     Number       Type             X           Y           Z
 ---------------------------------------------------------------------
      1          8           0       -3.293510   -0.879920   -2.969208
      2          8           0        3.402479    2.581771    3.444360
      3          8           0        3.706010    0.617829    4.611746
      4          8           0        7.803764   -1.305441   -1.232622
      5          8           0        6.523684   -2.974069   -2.263220
      6          8           0       -2.625284    1.465680    1.691392
      7          7           0       -0.171579   -2.752004    0.608120
      8          7           0       -2.712918   -1.063210   -0.762039
      9          7           0        1.193123    0.221530   -0.598236
     10          7           0       -1.021710    1.462848   -0.011153
     11          6           0       -3.321379   -1.347015    0.567353
     12          6           0       -2.614464   -2.469737    1.290705
     13          6           0       -1.197758   -2.313694    1.461593
     14          6           0       -0.514895   -1.635698    2.504001
     15          6           0        0.863855   -1.528953    2.233668
     16          6           0        1.010574   -2.110279    0.930334
     17          6           0       -4.732907   -1.874423    0.077214
     18          6           0        1.950273   -0.850111    3.033188
     19          6           0       -4.827710   -1.864371   -1.337795
     20          6           0        2.084122   -1.957912   -0.047295
     21          6           0        2.066323   -0.792421   -0.784177
     22          6           0       -3.525684   -1.258902   -1.835482
     23          6           0        2.952887   -0.358471   -1.860332
     24          6           0       -1.285097   -1.175740    3.861574
     25          6           0       -5.768709   -2.365437    1.090968
     26          6           0        2.461710    0.920921   -2.386390
     27          6           0        2.072480    0.635273    2.802085
     28          6           0        1.439830    1.321161   -1.490939
     29          6           0        4.195084   -1.058446   -2.303232
     30          6           0       -5.871383   -2.222475   -2.271447
     31          6           0        5.466232   -0.773482   -1.454916
     32          6           0        3.046311    1.833941   -3.509965
     33          6           0        0.537478    2.340152   -1.630968
     34          6           0        3.138106    1.212686    3.694348
     35          6           0       -0.658529    2.495298   -0.799995
     36          6           0       -6.902091   -3.136420   -2.141867
     37          6           0        6.599900   -1.816729   -1.674131
     38          6           0       -1.541405    3.653855   -0.701499
     39          6           0       -2.334344    3.401827    0.353768
     40          6           0       -2.037120    2.074203    0.790522
     41          6           0       -1.397344    4.775817   -1.611051
     42          6           0       -3.565008    4.183019    0.799851
     43          6           0       -2.088787    5.932424   -1.620152
     44          1           0       -3.611304   -0.507140    1.220916
     45          1           0       -3.049628   -3.380693    0.837232
     46          1           0       -3.091140   -2.398405    2.213720
     47          1           0       -0.491665   -2.937757   -0.469341
     48          1           0       -2.093583   -0.305158   -0.777931
     49          1           0        1.819459   -1.059904    3.982334
     50          1           0        2.918352   -1.465733    3.052822
     51          1           0        3.140900   -2.538974    0.049826
     52          1           0       -1.897164   -1.966833    4.066740
     53          1           0       -0.646717   -0.586358    4.613879
     54          1           0       -2.120539   -0.350132    3.511019
     55          1           0       -5.931116   -1.586477    1.860154
     56          1           0       -5.593437   -3.433530    1.546845
     57          1           0       -6.610280   -2.354453    0.436714
     58          1           0        2.094283    1.184735    1.731761
     59          1           0        1.179868    1.291878    3.407806
     60          1           0        0.308725    0.361764   -0.162859
     61          1           0        4.265746   -0.827225   -3.339291
     62          1           0        4.019997   -2.168185   -2.381140
     63          1           0       -5.722571   -2.106082   -3.349175
     64          1           0        5.148903   -0.525948   -0.329415
     65          1           0        5.941501    0.187121   -1.610607
     66          1           0        3.947032    1.523946   -4.004353
     67          1           0        3.277848    2.899944   -2.930668
     68          1           0        2.409291    2.153170   -4.336044
     69          1           0        0.740646    3.164302   -2.267079
     70          1           0       -7.226124   -3.425388   -1.080529
     71          1           0       -7.571278   -3.223772   -2.900709
     72          1           0        4.102942    2.877428    4.100829
     73          1           0       -0.587945    4.804436   -2.251322
     74          1           0       -4.323369    4.506115   -0.027162
     75          1           0       -4.198152    3.684029    1.658332
     76          1           0       -3.408388    5.167765    1.426937
     77          1           0        8.435173   -1.935190   -1.308095
     78          1           0       -1.891052    6.699514   -2.374321
     79          1           0       -3.034086    6.227081   -0.911479
 ---------------------------------------------------------------------

 SCF Done:  E(RB3LYP) =  -1947.83762366     A.U. after   17 cycles

 Excitation energies and oscillator strengths:

 Excited State   1:      Singlet-A      0.8137 eV 1523.80 nm  f=0.0005  <S**2>=0.000
     155 ->156         0.70341
 This state for optimization and/or second-order correction.
 Total Energy, E(TD-HF/TD-DFT) =  -1947.80772243
 Copying the excited state density for this state as the 1-particle RhoCI density.

 The electronic state is 1-A.
 Alpha  occ. eigenvalues --  -19.19650 -19.17206 -19.14442 -19.12523 -19.12474
 Alpha  occ. eigenvalues --  -19.08090 -14.37229 -14.36019 -14.32442 -14.31590
 Alpha  occ. eigenvalues --  -10.35051 -10.31963 -10.28456 -10.26540 -10.25823
 Alpha  occ. eigenvalues --  -10.25605 -10.25157 -10.23989 -10.23482 -10.23410
 Alpha  occ. eigenvalues --  -10.22866 -10.22779 -10.22721 -10.22410 -10.22249
 Alpha  occ. eigenvalues --  -10.22189 -10.22058 -10.21628 -10.21611 -10.21592
 Alpha  occ. eigenvalues --  -10.21481 -10.20958 -10.20927 -10.20136 -10.19875
 Alpha  occ. eigenvalues --  -10.19557 -10.19283 -10.18751 -10.18738 -10.18604
 Alpha  occ. eigenvalues --  -10.18399 -10.17664 -10.17542  -1.10281  -1.06516
 Alpha  occ. eigenvalues --   -1.02961  -1.00641  -0.98749  -0.98601  -0.98524
 Alpha  occ. eigenvalues --   -0.95136  -0.94402  -0.91298  -0.83136  -0.82462
 Alpha  occ. eigenvalues --   -0.82130  -0.80136  -0.80011  -0.78973  -0.78357
 Alpha  occ. eigenvalues --   -0.77258  -0.75788  -0.75120  -0.74215  -0.72866
 Alpha  occ. eigenvalues --   -0.70939  -0.69970  -0.69889  -0.69605  -0.67521
 Alpha  occ. eigenvalues --   -0.66276  -0.65869  -0.63685  -0.62611  -0.61151
 Alpha  occ. eigenvalues --   -0.59799  -0.59405  -0.57591  -0.57216  -0.56862
 Alpha  occ. eigenvalues --   -0.55578  -0.55201  -0.54347  -0.53554  -0.52981
 Alpha  occ. eigenvalues --   -0.51747  -0.51359  -0.51083  -0.50197  -0.49236
 Alpha  occ. eigenvalues --   -0.48922  -0.48447  -0.48306  -0.47807  -0.47330
 Alpha  occ. eigenvalues --   -0.46804  -0.46553  -0.46310  -0.45880  -0.45675
 Alpha  occ. eigenvalues --   -0.45185  -0.44881  -0.44406  -0.44108  -0.43701
 Alpha  occ. eigenvalues --   -0.43334  -0.42793  -0.42388  -0.42104  -0.41825
 Alpha  occ. eigenvalues --   -0.41728  -0.41335  -0.41079  -0.40950  -0.40754
 Alpha  occ. eigenvalues --   -0.40671  -0.40460  -0.40094  -0.39961  -0.39735
 Alpha  occ. eigenvalues --   -0.39588  -0.39041  -0.38719  -0.38530  -0.38281
 Alpha  occ. eigenvalues --   -0.37795  -0.37531  -0.37165  -0.36440  -0.36227
 Alpha  occ. eigenvalues --   -0.36046  -0.35235  -0.35116  -0.34931  -0.34091
 Alpha  occ. eigenvalues --   -0.33822  -0.32748  -0.32651  -0.31736  -0.31542
 Alpha  occ. eigenvalues --   -0.31366  -0.30532  -0.30383  -0.29334  -0.29245
 Alpha  occ. eigenvalues --   -0.27677  -0.26520  -0.25996  -0.25190  -0.24875
 Alpha  occ. eigenvalues --   -0.23630  -0.23322  -0.22327  -0.21818  -0.18720
 Alpha virt. eigenvalues --   -0.13230  -0.08493  -0.05296  -0.04031  -0.02273
 Alpha virt. eigenvalues --   -0.00095   0.00591   0.02048   0.02215   0.03407
 Alpha virt. eigenvalues --    0.04107   0.04192   0.04602   0.05016   0.05530

 Mulliken charges:
               1
     1  O   -0.235623
     2  O   -0.259815
     3  O   -0.247281
     4  O   -0.145499
     5  O   -0.287155
     6  O   -0.203084
     7  N   -0.117765
     8  N   -0.173655
     9  N   -0.089489
    10  N   -0.321942
    11  C    0.060602
    12  C    0.255044
    13  C   -0.058369
    14  C   -0.123932
    15  C   -0.096647
    16  C   -0.020514
    17  C   -0.243164
    18  C    0.221216
    19  C   -0.009676
    20  C   -0.149111
    21  C    0.146060
    22  C    0.119338
    23  C   -0.146772
    24  C    0.057513
    25  C    0.076893
    26  C   -0.076266
    27  C   -0.078527
    28  C    0.110457
    29  C    0.133443
    30  C   -0.046990
    31  C   -0.023980
    32  C    0.042543
    33  C   -0.030081
    34  C    0.154077
    35  C    0.045331
    36  C   -0.028039
    37  C    0.196220
    38  C    0.118707
    39  C   -0.123635
    40  C    0.171635
    41  C    0.010425
    42  C   -0.032596
    43  C   -0.065086
    44  H    0.055308
    45  H   -0.017731
    46  H   -0.052099
    47  H    0.164900
    48  H    0.116808
    49  H   -0.058692
    50  H    0.007841
    51  H    0.057790
    52  H    0.000054
    53  H    0.034144
    54  H    0.035878
    55  H    0.025811
    56  H    0.061786
    57  H    0.014926
    58  H    0.076751
    59  H    0.073427
    60  H    0.147800
    61  H    0.001670
    62  H    0.038150
    63  H    0.013501
    64  H    0.072778
    65  H    0.029289
    66  H    0.020128
    67  H    0.044768
    68  H    0.037614
    69  H   -0.045366
    70  H    0.019572
    71  H    0.004324
    72  H    0.195631
    73  H   -0.032623
    74  H    0.059370
    75  H    0.040455
    76  H    0.037421
    77  H    0.146937
    78  H    0.031711
    79  H    0.055159
 Sum of Mulliken charges =  -0.00000

 Dipole moment (field-independent basis, Debye):
    X=              2.3847    Y=              5.2818    Z=             -0.7463  Tot=              5.8431
 Quadrupole moment (field-independent basis, Debye-Ang):
   XX=           -229.6900   YY=           -236.0452   ZZ=           -268.4546
   XY=              7.7722   XZ=            -20.1139   YZ=            -11.5494

 Normal termination of Gaussian 16 at Sun Jul 28 07:28:55 2019.
