 Gaussian 16, Revision A.03,
 Gaussian 16:  ES64L-G16RevA.03 25-Dec-2016

 --------------------------
 # td=(NStates=1) B3LYP/SVP
 --------------------------

 --
 TD
 --
 Symbolic Z-matrix:
 Charge =  0 Multiplicity = 1

                         Standard orientation:
 ---------------------------------------------------------------------
 Center     Atomic      Atomic             Coordinates (Angstroms)
 Number     Number       Type             X           Y           Z
 ---------------------------------------------------------------------
      1          8           0        5.391601   -0.003600   -3.313218
      2          8           0       -2.786633   -3.045399    3.246097
      3          8           0       -3.297123   -0.827522    3.025381
      4          8           0       -1.631891    7.192554    1.604405
      5          8           0       -0.883529    7.133175   -0.533879
      6          8           0       -1.640853   -3.983020   -0.163441
      7          7           0        2.385009    1.038182    0.724958
      8          7           0        4.446598   -0.431218   -1.299822
      9          7           0       -2.012542    0.728876   -0.380803
     10          7           0       -2.483776   -1.904923   -0.623703
     11          6           0        4.757186   -1.100269   -0.067159
     12          6           0        4.478223   -0.273245    1.230736
     13          6           0        2.996760   -0.014647    1.323391
     14          6           0        1.984243   -0.600992    2.143003
     15          6           0        0.733024    0.050270    1.805195
     16          6           0        0.969550    1.063767    0.883363
     17          6           0        6.293805   -1.391047   -0.238609
     18          6           0       -0.614605   -0.156602    2.505252
     19          6           0        6.747156   -0.850726   -1.452471
     20          6           0        0.129029    2.047228    0.235048
     21          6           0       -1.237757    1.865120   -0.350744
     22          6           0        5.534240   -0.314874   -2.090286
     23          6           0       -2.048952    2.918389   -0.893678
     24          6           0        2.128246   -1.775644    3.106872
     25          6           0        7.061937   -2.045937    0.905422
     26          6           0       -3.237808    2.292697   -1.307945
     27          6           0       -1.035154   -1.620588    2.491654
     28          6           0       -3.148913    0.891578   -1.018385
     29          6           0       -1.734477    4.394742   -0.946298
     30          6           0        8.022552   -0.665029   -1.954981
     31          6           0       -1.784938    5.044826    0.439927
     32          6           0       -4.405446    2.925555   -1.926763
     33          6           0       -4.026088   -0.137579   -1.409887
     34          6           0       -2.431778   -1.792822    2.991067
     35          6           0       -3.697006   -1.472723   -1.160768
     36          6           0        9.193721   -0.787097   -1.448067
     37          6           0       -1.377522    6.539913    0.477971
     38          6           0       -4.588402   -2.646829   -1.479727
     39          6           0       -3.911226   -3.818437   -0.889384
     40          6           0       -2.640640   -3.274074   -0.521050
     41          6           0       -5.844385   -2.577356   -2.176920
     42          6           0       -4.171407   -5.274898   -0.840402
     43          6           0       -6.619536   -3.634175   -2.544079
     44          1           0        4.134243   -2.053978   -0.148393
     45          1           0        4.895661    0.685624    1.151151
     46          1           0        4.661634   -0.839877    2.192945
     47          1           0        2.982843    1.336140   -0.086510
     48          1           0        3.494157   -0.448201   -1.659068
     49          1           0       -0.530899    0.106437    3.556678
     50          1           0       -1.396134    0.533025    2.036600
     51          1           0        0.530523    3.032743    0.052207
     52          1           0        3.257610   -2.002208    3.236927
     53          1           0        1.577395   -1.554741    4.084470
     54          1           0        1.628990   -2.644545    2.577907
     55          1           0        6.716117   -3.061125    1.391822
     56          1           0        7.409549   -1.614653    1.886821
     57          1           0        7.932550   -2.325202    0.419818
     58          1           0       -0.868622   -2.111919    1.648057
     59          1           0       -0.469273   -2.142029    3.146369
     60          1           0       -1.675214   -0.242771   -0.116468
     61          1           0       -2.253554    4.765402   -1.824669
     62          1           0       -0.798689    4.550906   -1.363992
     63          1           0        7.982167   -0.236331   -3.025090
     64          1           0       -1.057845    4.674165    1.178360
     65          1           0       -2.689427    4.993003    0.839531
     66          1           0       -4.049310    3.797911   -2.309324
     67          1           0       -5.460861    2.609763   -1.518047
     68          1           0       -4.532809    2.479780   -2.881265
     69          1           0       -4.965195   -0.035722   -2.102999
     70          1           0        9.467833   -0.788454   -0.293462
     71          1           0       10.249293   -0.461549   -2.005196
     72          1           0       -3.726546   -3.019905    3.482528
     73          1           0       -6.443487   -1.711655   -2.153163
     74          1           0       -5.081046   -5.531543   -0.660625
     75          1           0       -3.889000   -5.697917   -1.868339
     76          1           0       -3.537883   -5.789784   -0.081749
     77          1           0       -1.400795    8.111527    1.489692
     78          1           0       -7.649086   -3.319373   -2.743110
     79          1           0       -6.846273   -4.639821   -2.325393
 ---------------------------------------------------------------------

 SCF Done:  E(RB3LYP) =  -1947.84061186     A.U. after   24 cycles

 Excitation energies and oscillator strengths:

 Excited State   1:      Singlet-A      1.8702 eV  662.94 nm  f=0.2467  <S**2>=0.000
     153 ->156        -0.11904
     154 ->156         0.37427
     155 ->156         0.58294
     155 <-156        -0.10599
 This state for optimization and/or second-order correction.
 Total Energy, E(TD-HF/TD-DFT) =  -1947.77188304
 Copying the excited state density for this state as the 1-particle RhoCI density.

 The electronic state is 1-A.
 Alpha  occ. eigenvalues --  -19.20066 -19.18461 -19.12428 -19.10643 -19.09441
 Alpha  occ. eigenvalues --  -19.08215 -14.38656 -14.36894 -14.36600 -14.28358
 Alpha  occ. eigenvalues --  -10.33166 -10.31234 -10.28984 -10.26280 -10.25108
 Alpha  occ. eigenvalues --  -10.24547 -10.24490 -10.24187 -10.23866 -10.23716
 Alpha  occ. eigenvalues --  -10.23711 -10.23035 -10.22788 -10.22033 -10.21752
 Alpha  occ. eigenvalues --  -10.21676 -10.21451 -10.21381 -10.20889 -10.20812
 Alpha  occ. eigenvalues --  -10.20530 -10.20453 -10.20298 -10.20235 -10.20185
 Alpha  occ. eigenvalues --  -10.19926 -10.19884 -10.19816 -10.19464 -10.19138
 Alpha  occ. eigenvalues --  -10.18929 -10.17805 -10.17393  -1.11065  -1.09050
 Alpha  occ. eigenvalues --   -1.01667  -0.99888  -0.98447  -0.98444  -0.97492
 Alpha  occ. eigenvalues --   -0.95655  -0.93983  -0.89234  -0.83842  -0.83050
 Alpha  occ. eigenvalues --   -0.82126  -0.80828  -0.80078  -0.79609  -0.78479
 Alpha  occ. eigenvalues --   -0.77556  -0.77334  -0.76164  -0.75191  -0.73311
 Alpha  occ. eigenvalues --   -0.72837  -0.71437  -0.69898  -0.69643  -0.68673
 Alpha  occ. eigenvalues --   -0.67539  -0.67143  -0.64152  -0.63039  -0.62677
 Alpha  occ. eigenvalues --   -0.61725  -0.60189  -0.58994  -0.58433  -0.56901
 Alpha  occ. eigenvalues --   -0.56700  -0.55937  -0.54597  -0.54399  -0.53428
 Alpha  occ. eigenvalues --   -0.52339  -0.51825  -0.50917  -0.50654  -0.49964
 Alpha  occ. eigenvalues --   -0.49463  -0.49041  -0.48738  -0.48494  -0.48178
 Alpha  occ. eigenvalues --   -0.47685  -0.47135  -0.46935  -0.46649  -0.45955
 Alpha  occ. eigenvalues --   -0.45847  -0.45507  -0.45193  -0.44127  -0.44113
 Alpha  occ. eigenvalues --   -0.43519  -0.43179  -0.43100  -0.43042  -0.42535
 Alpha  occ. eigenvalues --   -0.42049  -0.41883  -0.41600  -0.41495  -0.41188
 Alpha  occ. eigenvalues --   -0.40871  -0.40258  -0.40131  -0.39913  -0.39660
 Alpha  occ. eigenvalues --   -0.39541  -0.39380  -0.38826  -0.38329  -0.38158
 Alpha  occ. eigenvalues --   -0.37985  -0.37810  -0.37580  -0.37327  -0.36737
 Alpha  occ. eigenvalues --   -0.36337  -0.35988  -0.35763  -0.35282  -0.34092
 Alpha  occ. eigenvalues --   -0.34009  -0.33663  -0.32751  -0.32268  -0.32019
 Alpha  occ. eigenvalues --   -0.30379  -0.29792  -0.28030  -0.27674  -0.26673
 Alpha  occ. eigenvalues --   -0.26616  -0.25979  -0.25458  -0.25201  -0.24946
 Alpha  occ. eigenvalues --   -0.24794  -0.23575  -0.22765  -0.21174  -0.18879
 Alpha virt. eigenvalues --   -0.11444  -0.07880  -0.07445  -0.01392  -0.00780
 Alpha virt. eigenvalues --    0.00086   0.00100   0.00825   0.02534   0.03740
 Alpha virt. eigenvalues --    0.04177   0.04289   0.04565   0.05109   0.05157

 Mulliken charges:
               1
     1  O   -0.285046
     2  O   -0.140723
     3  O   -0.322965
     4  O   -0.140413
     5  O   -0.294292
     6  O   -0.278355
     7  N   -0.093814
     8  N   -0.154437
     9  N   -0.031590
    10  N   -0.285690
    11  C    0.026332
    12  C    0.278865
    13  C   -0.172604
    14  C   -0.149054
    15  C   -0.086665
    16  C    0.093579
    17  C   -0.124992
    18  C    0.068821
    19  C    0.027472
    20  C   -0.056015
    21  C    0.028084
    22  C    0.135271
    23  C   -0.139855
    24  C    0.049561
    25  C    0.026918
    26  C   -0.214448
    27  C    0.126334
    28  C    0.146243
    29  C    0.203927
    30  C    0.009532
    31  C    0.099159
    32  C    0.256370
    33  C   -0.160142
    34  C    0.137412
    35  C    0.078387
    36  C   -0.136143
    37  C    0.112324
    38  C    0.028181
    39  C   -0.168409
    40  C    0.136615
    41  C   -0.010279
    42  C    0.171255
    43  C   -0.046441
    44  H    0.043080
    45  H   -0.015920
    46  H    0.027405
    47  H    0.122939
    48  H    0.142001
    49  H    0.002687
    50  H    0.040777
    51  H   -0.003717
    52  H    0.011822
    53  H    0.043787
    54  H    0.063589
    55  H    0.030553
    56  H    0.047051
    57  H    0.006553
    58  H    0.010358
    59  H   -0.030749
    60  H    0.173069
    61  H   -0.002028
    62  H   -0.022899
    63  H    0.038630
    64  H    0.040763
    65  H   -0.001915
    66  H   -0.049905
    67  H    0.046337
    68  H   -0.020921
    69  H    0.016084
    70  H    0.041311
    71  H    0.053602
    72  H    0.182113
    73  H    0.003028
    74  H   -0.041346
    75  H    0.041924
    76  H    0.028578
    77  H    0.181751
    78  H   -0.002935
    79  H    0.004275
 Sum of Mulliken charges =  -0.00000

 Dipole moment (field-independent basis, Debye):
    X=              1.1162    Y=              1.7512    Z=              4.8382  Tot=              5.2650
 Quadrupole moment (field-independent basis, Debye-Ang):
   XX=           -211.9145   YY=           -247.8378   ZZ=           -264.2246
   XY=             -5.1987   XZ=             32.8065   YZ=              1.3487

 Normal termination of Gaussian 16 at Fri Sep 13 01:51:35 2019.
