 Gaussian 16, Revision A.03,
 Gaussian 16:  ES64L-G16RevA.03 25-Dec-2016

 --------------------------
 # td=(NStates=1) B3LYP/SVP
 --------------------------

 --
 TD
 --
 Symbolic Z-matrix:
 Charge =  0 Multiplicity = 1

                         Standard orientation:
 ---------------------------------------------------------------------
 Center     Atomic      Atomic             Coordinates (Angstroms)
 Number     Number       Type             X           Y           Z
 ---------------------------------------------------------------------
      1          8           0       -3.335771   -0.829342   -3.010290
      2          8           0        3.010511    2.430421    3.865083
      3          8           0        3.829253    0.397199    4.530039
      4          8           0        7.824814   -1.375999   -1.169533
      5          8           0        6.740338   -2.486706   -2.775996
      6          8           0       -2.735087    1.350757    1.500861
      7          7           0       -0.313522   -2.503694    0.476827
      8          7           0       -2.851037   -1.080991   -0.746587
      9          7           0        1.142766    0.177329   -0.576113
     10          7           0       -1.075584    1.521352   -0.050599
     11          6           0       -3.536382   -1.372538    0.429887
     12          6           0       -2.677430   -2.598913    1.215073
     13          6           0       -1.220435   -2.316320    1.396260
     14          6           0       -0.565462   -1.713510    2.612517
     15          6           0        0.855049   -1.662790    2.244420
     16          6           0        0.961222   -2.063031    0.925526
     17          6           0       -4.757021   -1.965921   -0.030812
     18          6           0        1.954933   -1.035491    3.138901
     19          6           0       -4.829661   -1.736255   -1.331978
     20          6           0        2.064687   -1.966156   -0.035850
     21          6           0        2.136442   -0.830448   -0.668460
     22          6           0       -3.563827   -1.156099   -1.882523
     23          6           0        2.994156   -0.278220   -1.762785
     24          6           0       -1.227303   -1.213153    3.776007
     25          6           0       -5.854872   -2.571924    0.939500
     26          6           0        2.591350    0.848468   -2.279721
     27          6           0        2.043142    0.448434    2.947173
     28          6           0        1.428252    1.283419   -1.419933
     29          6           0        4.221482   -1.031674   -2.219051
     30          6           0       -5.875978   -2.040569   -2.341036
     31          6           0        5.540657   -0.917222   -1.401531
     32          6           0        3.084317    1.764204   -3.392191
     33          6           0        0.542998    2.314850   -1.542549
     34          6           0        2.988710    1.061209    3.914814
     35          6           0       -0.574887    2.517663   -0.774333
     36          6           0       -7.002645   -2.800739   -2.238820
     37          6           0        6.777354   -1.673369   -1.907831
     38          6           0       -1.416313    3.791138   -0.772685
     39          6           0       -2.450438    3.498332    0.156804
     40          6           0       -2.102111    1.948246    0.708848
     41          6           0       -1.138723    4.955094   -1.381411
     42          6           0       -3.382307    4.297244    0.950386
     43          6           0       -1.918681    6.094718   -1.451188
     44          1           0       -3.502196   -0.525382    1.122295
     45          1           0       -2.686149   -3.585409    0.636108
     46          1           0       -3.037361   -2.870735    2.247342
     47          1           0       -0.348193   -2.810678   -0.497516
     48          1           0       -2.116643   -0.361999   -0.581635
     49          1           0        1.834039   -1.155374    4.131128
     50          1           0        2.957744   -1.517347    2.624899
     51          1           0        2.764016   -3.011754   -0.139547
     52          1           0       -2.234710   -1.663422    4.304607
     53          1           0       -0.582447   -1.052584    4.422954
     54          1           0       -1.576779   -0.144166    3.499861
     55          1           0       -5.821915   -1.946437    1.834981
     56          1           0       -6.035775   -3.781996    0.894090
     57          1           0       -6.789218   -2.346343    0.455048
     58          1           0        2.199797    1.050252    1.984560
     59          1           0        1.015618    0.985212    3.104187
     60          1           0        0.333021    0.421390   -0.033455
     61          1           0        4.335228   -0.558318   -3.294865
     62          1           0        4.008100   -2.027483   -2.275112
     63          1           0       -5.625436   -1.632638   -3.250937
     64          1           0        5.261156   -1.090611   -0.261955
     65          1           0        5.798344    0.152050   -1.275639
     66          1           0        3.958913    1.197171   -3.812599
     67          1           0        3.404217    2.713172   -2.987958
     68          1           0        2.182205    2.062906   -4.019078
     69          1           0        0.704582    3.035061   -2.395166
     70          1           0       -7.297486   -3.348140   -1.468475
     71          1           0       -7.726298   -2.856048   -3.074264
     72          1           0        3.832598    2.846437    4.319586
     73          1           0       -0.081352    4.924528   -1.877869
     74          1           0       -4.119904    4.802791    0.396776
     75          1           0       -3.580205    3.620576    1.797917
     76          1           0       -2.876440    5.138867    1.526379
     77          1           0        8.490143   -1.922465   -1.417287
     78          1           0       -1.627014    6.987793   -2.057524
     79          1           0       -2.946685    6.310449   -0.956414
 ---------------------------------------------------------------------

 SCF Done:  E(RB3LYP) =  -1947.81372587     A.U. after   18 cycles

 Excitation energies and oscillator strengths:

 Excited State   1:      Singlet-A      0.9409 eV 1317.70 nm  f=0.0035  <S**2>=0.000
     155 ->156         0.70444
 This state for optimization and/or second-order correction.
 Total Energy, E(TD-HF/TD-DFT) =  -1947.77914791
 Copying the excited state density for this state as the 1-particle RhoCI density.

 The electronic state is 1-A.
 Alpha  occ. eigenvalues --  -19.19747 -19.18106 -19.13940 -19.13653 -19.12008
 Alpha  occ. eigenvalues --  -19.08525 -14.37102 -14.36905 -14.32860 -14.31513
 Alpha  occ. eigenvalues --  -10.33533 -10.31660 -10.29135 -10.26882 -10.26169
 Alpha  occ. eigenvalues --  -10.26031 -10.25792 -10.22885 -10.22667 -10.22576
 Alpha  occ. eigenvalues --  -10.22539 -10.22398 -10.21936 -10.21800 -10.21650
 Alpha  occ. eigenvalues --  -10.21580 -10.21477 -10.21077 -10.20950 -10.20701
 Alpha  occ. eigenvalues --  -10.20584 -10.20310 -10.20280 -10.19951 -10.19911
 Alpha  occ. eigenvalues --  -10.19697 -10.19344 -10.18011 -10.17722 -10.17172
 Alpha  occ. eigenvalues --  -10.17145 -10.17076 -10.17063  -1.13736  -1.07383
 Alpha  occ. eigenvalues --   -1.06581  -1.03755  -1.02080  -0.98817  -0.98497
 Alpha  occ. eigenvalues --   -0.96844  -0.94882  -0.94725  -0.84200  -0.83256
 Alpha  occ. eigenvalues --   -0.82543  -0.80647  -0.79753  -0.78720  -0.78441
 Alpha  occ. eigenvalues --   -0.76870  -0.76109  -0.75502  -0.74112  -0.73065
 Alpha  occ. eigenvalues --   -0.71226  -0.70620  -0.70303  -0.69470  -0.67975
 Alpha  occ. eigenvalues --   -0.67070  -0.66659  -0.64115  -0.62776  -0.61784
 Alpha  occ. eigenvalues --   -0.60668  -0.60183  -0.58563  -0.57688  -0.56260
 Alpha  occ. eigenvalues --   -0.55612  -0.55259  -0.54294  -0.53922  -0.53298
 Alpha  occ. eigenvalues --   -0.52667  -0.51810  -0.51418  -0.50310  -0.50139
 Alpha  occ. eigenvalues --   -0.49808  -0.49322  -0.49021  -0.48528  -0.47928
 Alpha  occ. eigenvalues --   -0.46823  -0.46539  -0.46471  -0.46197  -0.46061
 Alpha  occ. eigenvalues --   -0.45564  -0.45378  -0.45154  -0.44606  -0.44283
 Alpha  occ. eigenvalues --   -0.43767  -0.43745  -0.42781  -0.42696  -0.42362
 Alpha  occ. eigenvalues --   -0.42024  -0.41765  -0.41658  -0.41346  -0.41126
 Alpha  occ. eigenvalues --   -0.40720  -0.40472  -0.40240  -0.40000  -0.39685
 Alpha  occ. eigenvalues --   -0.39450  -0.39181  -0.38847  -0.38604  -0.37791
 Alpha  occ. eigenvalues --   -0.37427  -0.37112  -0.36964  -0.36883  -0.36555
 Alpha  occ. eigenvalues --   -0.36489  -0.36407  -0.35408  -0.35370  -0.34632
 Alpha  occ. eigenvalues --   -0.34493  -0.33978  -0.33332  -0.32966  -0.31660
 Alpha  occ. eigenvalues --   -0.30953  -0.30511  -0.30051  -0.29729  -0.29361
 Alpha  occ. eigenvalues --   -0.28093  -0.27443  -0.25880  -0.25154  -0.23732
 Alpha  occ. eigenvalues --   -0.23464  -0.23195  -0.22707  -0.22276  -0.17922
 Alpha virt. eigenvalues --   -0.12201  -0.07227  -0.03617  -0.02593  -0.00870
 Alpha virt. eigenvalues --   -0.00508   0.01717   0.02636   0.03322   0.03566
 Alpha virt. eigenvalues --    0.03649   0.04055   0.04691   0.04850   0.05338

 Mulliken charges:
               1
     1  O   -0.207121
     2  O   -0.241766
     3  O   -0.252511
     4  O   -0.093041
     5  O   -0.196516
     6  O   -0.160376
     7  N   -0.013881
     8  N   -0.167660
     9  N   -0.131491
    10  N   -0.274773
    11  C    0.031274
    12  C    0.154684
    13  C   -0.137851
    14  C   -0.153306
    15  C   -0.085841
    16  C   -0.073130
    17  C   -0.149538
    18  C    0.211967
    19  C   -0.088735
    20  C   -0.270626
    21  C    0.314155
    22  C    0.133949
    23  C   -0.131779
    24  C    0.158388
    25  C    0.092087
    26  C   -0.114464
    27  C   -0.086076
    28  C    0.090236
    29  C    0.130508
    30  C    0.042954
    31  C   -0.057631
    32  C    0.127411
    33  C   -0.127524
    34  C    0.159158
    35  C    0.112060
    36  C    0.006212
    37  C    0.130068
    38  C    0.109819
    39  C   -0.236861
    40  C    0.154962
    41  C   -0.063628
    42  C    0.092190
    43  C   -0.080505
    44  H    0.058633
    45  H   -0.009474
    46  H    0.010323
    47  H    0.120611
    48  H    0.138316
    49  H   -0.020380
    50  H    0.029758
    51  H    0.071756
    52  H    0.026966
    53  H   -0.093585
    54  H    0.024685
    55  H    0.026625
    56  H    0.056481
    57  H    0.002555
    58  H    0.042103
    59  H    0.035613
    60  H    0.152747
    61  H    0.025692
    62  H   -0.011313
    63  H   -0.029774
    64  H    0.057703
    65  H    0.019051
    66  H    0.030604
    67  H    0.025219
    68  H    0.052424
    69  H    0.001226
    70  H   -0.042415
    71  H    0.018770
    72  H    0.212728
    73  H    0.006891
    74  H    0.033008
    75  H    0.030715
    76  H    0.027516
    77  H    0.137260
    78  H    0.034894
    79  H    0.040618
 Sum of Mulliken charges =  -0.00000

 Dipole moment (field-independent basis, Debye):
    X=              4.0712    Y=              4.0401    Z=              0.2082  Tot=              5.7394
 Quadrupole moment (field-independent basis, Debye-Ang):
   XX=           -235.0721   YY=           -231.7365   ZZ=           -274.7055
   XY=              7.3410   XZ=            -20.8558   YZ=             -4.5073

 Normal termination of Gaussian 16 at Sat Jul 27 06:18:15 2019.
