 Gaussian 16, Revision A.03,
 Gaussian 16:  ES64L-G16RevA.03 25-Dec-2016

 --------------------------
 # td=(NStates=1) B3LYP/SVP
 --------------------------

 --
 TD
 --
 Symbolic Z-matrix:
 Charge =  0 Multiplicity = 1

                         Standard orientation:
 ---------------------------------------------------------------------
 Center     Atomic      Atomic             Coordinates (Angstroms)
 Number     Number       Type             X           Y           Z
 ---------------------------------------------------------------------
      1          8           0       -3.270340   -1.451434   -2.829065
      2          8           0        2.963184    3.213686    2.808210
      3          8           0        3.644235    1.659393    4.283184
      4          8           0        7.862288   -1.676700   -0.667104
      5          8           0        6.738113   -3.027973   -1.965753
      6          8           0       -2.688186    1.556711    1.331080
      7          7           0       -0.347480   -2.410696    0.939342
      8          7           0       -2.647468   -1.266090   -0.654005
      9          7           0        1.161202    0.089894   -0.589262
     10          7           0       -0.995473    1.419423   -0.171451
     11          6           0       -3.401696   -1.403529    0.626042
     12          6           0       -2.591463   -2.299455    1.604848
     13          6           0       -1.279372   -1.962919    1.813832
     14          6           0       -0.644421   -1.104617    2.746988
     15          6           0        0.723208   -1.083625    2.429380
     16          6           0        0.939787   -1.876098    1.342157
     17          6           0       -4.648616   -1.923378    0.213513
     18          6           0        1.791563   -0.350609    3.284756
     19          6           0       -4.741831   -1.955781   -1.100542
     20          6           0        2.030354   -1.900421    0.413571
     21          6           0        2.127875   -0.952837   -0.582396
     22          6           0       -3.534045   -1.460424   -1.690455
     23          6           0        3.093741   -0.619345   -1.636045
     24          6           0       -1.382409   -0.457374    3.819460
     25          6           0       -5.823979   -2.263924    1.213235
     26          6           0        2.560989    0.457337   -2.350699
     27          6           0        1.918821    1.123372    2.667117
     28          6           0        1.419363    0.845698   -1.734014
     29          6           0        4.367190   -1.420857   -1.976492
     30          6           0       -5.903722   -2.326147   -1.937336
     31          6           0        5.451613   -1.082896   -1.007571
     32          6           0        3.330640    0.993179   -3.585289
     33          6           0        0.550220    1.962642   -2.069161
     34          6           0        2.902748    2.006174    3.372565
     35          6           0       -0.579745    2.228960   -1.208830
     36          6           0       -7.059318   -2.997179   -1.675278
     37          6           0        6.745250   -1.973985   -1.311131
     38          6           0       -1.435808    3.402220   -1.194482
     39          6           0       -2.439263    3.297740   -0.216814
     40          6           0       -2.036288    2.075633    0.391560
     41          6           0       -1.319846    4.428156   -2.274164
     42          6           0       -3.476453    4.217951    0.292246
     43          6           0       -1.778474    5.623386   -2.367355
     44          1           0       -3.481668   -0.383058    0.998481
     45          1           0       -2.781335   -3.256394    1.173868
     46          1           0       -3.149671   -2.257483    2.628327
     47          1           0       -0.479004   -3.047291    0.071434
     48          1           0       -1.891799   -0.666551   -0.673032
     49          1           0        1.563861   -0.560305    4.406447
     50          1           0        2.756192   -0.897014    3.288367
     51          1           0        2.545314   -2.662976    0.559103
     52          1           0       -1.952056   -1.110957    4.626123
     53          1           0       -0.654083    0.188981    4.479817
     54          1           0       -2.275591    0.258618    3.363357
     55          1           0       -5.344178   -2.116163    2.096852
     56          1           0       -5.976208   -3.456005    1.127116
     57          1           0       -6.784687   -1.635588    0.759511
     58          1           0        2.250309    1.134044    1.474319
     59          1           0        0.984414    1.616022    3.003437
     60          1           0        0.296153   -0.017020   -0.226219
     61          1           0        4.638329   -1.303389   -2.976410
     62          1           0        4.184723   -2.470778   -1.941779
     63          1           0       -5.503487   -2.257967   -3.017232
     64          1           0        5.006591   -1.124141    0.120863
     65          1           0        5.953955   -0.093610   -1.207167
     66          1           0        4.150760    0.260251   -3.983801
     67          1           0        3.902689    1.975312   -3.289712
     68          1           0        2.764269    1.209058   -4.423236
     69          1           0        0.720356    2.725243   -2.908070
     70          1           0       -7.574770   -3.212892   -0.594578
     71          1           0       -7.648239   -3.079325   -2.653424
     72          1           0        3.643991    3.793149    3.208418
     73          1           0       -0.770269    4.076571   -3.099361
     74          1           0       -4.084016    4.660962   -0.578202
     75          1           0       -4.079152    3.777841    1.011290
     76          1           0       -2.933827    5.244004    0.542896
     77          1           0        8.566926   -2.283778   -0.969607
     78          1           0       -1.659030    6.369213   -3.129628
     79          1           0       -2.355244    6.103934   -1.504664
 ---------------------------------------------------------------------

 SCF Done:  E(RB3LYP) =  -1947.82185314     A.U. after   20 cycles

 Excitation energies and oscillator strengths:

 Excited State   1:      Singlet-A      0.8877 eV 1396.66 nm  f=0.0054  <S**2>=0.000
     155 ->156         0.70412
 This state for optimization and/or second-order correction.
 Total Energy, E(TD-HF/TD-DFT) =  -1947.78923002
 Copying the excited state density for this state as the 1-particle RhoCI density.

 The electronic state is 1-A.
 Alpha  occ. eigenvalues --  -19.19963 -19.17838 -19.13413 -19.11209 -19.10842
 Alpha  occ. eigenvalues --  -19.07596 -14.37107 -14.37047 -14.31377 -14.29855
 Alpha  occ. eigenvalues --  -10.33848 -10.30933 -10.27030 -10.26463 -10.26113
 Alpha  occ. eigenvalues --  -10.25131 -10.24821 -10.24573 -10.24069 -10.23065
 Alpha  occ. eigenvalues --  -10.22811 -10.22400 -10.21628 -10.21391 -10.21348
 Alpha  occ. eigenvalues --  -10.21250 -10.20857 -10.20762 -10.20584 -10.20567
 Alpha  occ. eigenvalues --  -10.20168 -10.20141 -10.19934 -10.19736 -10.19730
 Alpha  occ. eigenvalues --  -10.19684 -10.19007 -10.18990 -10.18970 -10.18916
 Alpha  occ. eigenvalues --  -10.17410 -10.16552 -10.16360  -1.11721  -1.08947
 Alpha  occ. eigenvalues --   -1.02902  -1.01319  -1.00068  -0.99766  -0.98987
 Alpha  occ. eigenvalues --   -0.95914  -0.92803  -0.92578  -0.84680  -0.83026
 Alpha  occ. eigenvalues --   -0.81228  -0.80436  -0.80123  -0.79320  -0.78689
 Alpha  occ. eigenvalues --   -0.77452  -0.75989  -0.75521  -0.73900  -0.72877
 Alpha  occ. eigenvalues --   -0.71247  -0.70378  -0.70282  -0.69525  -0.67698
 Alpha  occ. eigenvalues --   -0.66521  -0.66111  -0.63756  -0.62391  -0.60936
 Alpha  occ. eigenvalues --   -0.59728  -0.59230  -0.58958  -0.58631  -0.57882
 Alpha  occ. eigenvalues --   -0.56257  -0.55602  -0.54531  -0.53603  -0.53030
 Alpha  occ. eigenvalues --   -0.52348  -0.51793  -0.50949  -0.50062  -0.49653
 Alpha  occ. eigenvalues --   -0.49140  -0.48665  -0.48167  -0.47984  -0.47480
 Alpha  occ. eigenvalues --   -0.47194  -0.46819  -0.46733  -0.46592  -0.46205
 Alpha  occ. eigenvalues --   -0.45199  -0.45021  -0.44745  -0.44311  -0.43998
 Alpha  occ. eigenvalues --   -0.43379  -0.43255  -0.42854  -0.42290  -0.42035
 Alpha  occ. eigenvalues --   -0.41922  -0.41910  -0.41325  -0.40945  -0.40612
 Alpha  occ. eigenvalues --   -0.40304  -0.40024  -0.39934  -0.39681  -0.39313
 Alpha  occ. eigenvalues --   -0.39184  -0.38934  -0.38410  -0.38185  -0.38054
 Alpha  occ. eigenvalues --   -0.37909  -0.37519  -0.36512  -0.36421  -0.36299
 Alpha  occ. eigenvalues --   -0.35945  -0.35784  -0.35099  -0.34698  -0.34033
 Alpha  occ. eigenvalues --   -0.33008  -0.32937  -0.32655  -0.31814  -0.31713
 Alpha  occ. eigenvalues --   -0.31432  -0.29813  -0.29459  -0.29026  -0.28143
 Alpha  occ. eigenvalues --   -0.27790  -0.26509  -0.25195  -0.24406  -0.23765
 Alpha  occ. eigenvalues --   -0.23580  -0.23405  -0.22603  -0.21998  -0.18992
 Alpha virt. eigenvalues --   -0.13227  -0.08168  -0.03545  -0.02465  -0.00393
 Alpha virt. eigenvalues --    0.01191   0.01418   0.02269   0.02846   0.03170
 Alpha virt. eigenvalues --    0.04021   0.04373   0.04911   0.04927   0.05285

 Mulliken charges:
               1
     1  O   -0.186338
     2  O   -0.184497
     3  O   -0.245131
     4  O   -0.152859
     5  O   -0.266759
     6  O   -0.247896
     7  N   -0.147861
     8  N   -0.213573
     9  N   -0.065352
    10  N   -0.276385
    11  C    0.079606
    12  C    0.180848
    13  C   -0.035687
    14  C   -0.033138
    15  C   -0.083326
    16  C   -0.054120
    17  C   -0.206699
    18  C    0.054859
    19  C   -0.077983
    20  C    0.012553
    21  C    0.154984
    22  C    0.120868
    23  C   -0.090491
    24  C   -0.064088
    25  C    0.082074
    26  C   -0.102635
    27  C   -0.011261
    28  C    0.135745
    29  C    0.189455
    30  C   -0.022321
    31  C   -0.070052
    32  C    0.076892
    33  C   -0.103072
    34  C    0.105750
    35  C    0.073997
    36  C   -0.093028
    37  C    0.134623
    38  C    0.017611
    39  C   -0.144282
    40  C    0.126741
    41  C    0.022933
    42  C    0.102169
    43  C   -0.044041
    44  H    0.044656
    45  H   -0.045292
    46  H    0.006242
    47  H    0.148556
    48  H    0.099990
    49  H    0.036076
    50  H   -0.008012
    51  H   -0.097890
    52  H    0.023149
    53  H    0.012557
    54  H    0.067887
    55  H   -0.015044
    56  H    0.050274
    57  H    0.085701
    58  H    0.095690
    59  H    0.053283
    60  H    0.148953
    61  H   -0.021118
    62  H    0.017695
    63  H    0.029032
    64  H    0.093996
    65  H    0.040733
    66  H    0.035022
    67  H    0.047310
    68  H    0.016582
    69  H    0.015242
    70  H    0.052165
    71  H    0.038622
    72  H    0.185702
    73  H   -0.030112
    74  H    0.029340
    75  H    0.021836
    76  H    0.049641
    77  H    0.194075
    78  H    0.018777
    79  H    0.009854
 Sum of Mulliken charges =  -0.00000

 Dipole moment (field-independent basis, Debye):
    X=              4.5653    Y=              3.0166    Z=             -1.8375  Tot=              5.7722
 Quadrupole moment (field-independent basis, Debye-Ang):
   XX=           -234.0961   YY=           -234.4210   ZZ=           -269.1212
   XY=              1.8044   XZ=            -25.7644   YZ=            -15.9808

 Normal termination of Gaussian 16 at Sat Jul 27 04:05:09 2019.
