 Gaussian 16, Revision A.03,
 Gaussian 16:  ES64L-G16RevA.03 25-Dec-2016

 --------------------------
 # td=(NStates=1) B3LYP/SVP
 --------------------------

 --
 TD
 --
 Symbolic Z-matrix:
 Charge =  0 Multiplicity = 1

                         Standard orientation:
 ---------------------------------------------------------------------
 Center     Atomic      Atomic             Coordinates (Angstroms)
 Number     Number       Type             X           Y           Z
 ---------------------------------------------------------------------
      1          8           0       -3.130129   -1.530442   -2.952061
      2          8           0        2.668918    3.252360    3.390409
      3          8           0        3.625666    1.397422    4.383872
      4          8           0        7.896446   -1.384225   -1.004657
      5          8           0        6.566118   -3.053359   -1.783128
      6          8           0       -2.728577    1.687232    1.331411
      7          7           0       -0.216233   -2.479414    0.929997
      8          7           0       -2.660769   -1.233911   -0.671722
      9          7           0        1.050421    0.044034   -0.705548
     10          7           0       -0.974612    1.477207   -0.222172
     11          6           0       -3.300689   -1.337587    0.547529
     12          6           0       -2.639915   -2.371304    1.588044
     13          6           0       -1.179996   -2.054909    1.877782
     14          6           0       -0.594234   -1.281406    2.881327
     15          6           0        0.783824   -1.209728    2.587448
     16          6           0        0.929845   -1.755177    1.341744
     17          6           0       -4.664079   -1.769475    0.198279
     18          6           0        1.796982   -0.405315    3.234048
     19          6           0       -4.718051   -2.182260   -1.120158
     20          6           0        2.074814   -1.868082    0.380537
     21          6           0        2.177138   -0.904542   -0.570308
     22          6           0       -3.405330   -1.635642   -1.771093
     23          6           0        2.990068   -0.637493   -1.647984
     24          6           0       -1.326853   -0.561950    4.040766
     25          6           0       -5.750427   -2.019250    1.229453
     26          6           0        2.513271    0.340086   -2.485583
     27          6           0        1.732350    1.185765    3.017778
     28          6           0        1.322671    0.875539   -1.880710
     29          6           0        4.313002   -1.533072   -1.973621
     30          6           0       -5.710861   -2.627716   -2.043363
     31          6           0        5.584862   -0.989188   -1.256667
     32          6           0        3.278153    0.970924   -3.580360
     33          6           0        0.570538    1.873815   -2.105762
     34          6           0        2.743366    1.925972    3.645582
     35          6           0       -0.506651    2.281982   -1.264389
     36          6           0       -6.979359   -3.165453   -1.675788
     37          6           0        6.714491   -1.951455   -1.311579
     38          6           0       -1.363782    3.565736   -1.355891
     39          6           0       -2.274147    3.431806   -0.278079
     40          6           0       -2.129930    2.080727    0.346328
     41          6           0       -1.254487    4.594744   -2.317326
     42          6           0       -3.360102    4.371176    0.191588
     43          6           0       -1.968587    5.752536   -2.475108
     44          1           0       -3.484481   -0.347426    1.093437
     45          1           0       -2.676646   -3.303003    1.135124
     46          1           0       -3.196074   -2.262242    2.532676
     47          1           0       -0.397270   -2.927522    0.082071
     48          1           0       -1.958992   -0.431715   -0.767974
     49          1           0        1.577838   -0.415968    4.366498
     50          1           0        2.809420   -0.680464    2.877512
     51          1           0        2.946429   -2.539222    0.603307
     52          1           0       -2.188524   -1.177348    4.403078
     53          1           0       -0.706147   -0.349260    4.992202
     54          1           0       -1.794801    0.406506    3.637633
     55          1           0       -5.587825   -1.571506    2.198638
     56          1           0       -5.808174   -3.215449    1.196767
     57          1           0       -6.794253   -1.659678    0.795167
     58          1           0        1.629840    1.495269    1.814186
     59          1           0        0.547239    1.498339    3.537048
     60          1           0        0.142375    0.201150   -0.169994
     61          1           0        4.806833   -1.422511   -2.938469
     62          1           0        4.170434   -2.491064   -1.639168
     63          1           0       -5.658041   -2.741050   -3.173289
     64          1           0        5.281076   -0.585118   -0.207458
     65          1           0        5.949012   -0.094226   -1.739211
     66          1           0        4.056277    0.270074   -4.133259
     67          1           0        3.791060    1.899726   -3.246706
     68          1           0        2.689055    1.570448   -4.486803
     69          1           0        0.804687    2.823532   -2.619667
     70          1           0       -7.121460   -3.495588   -0.687117
     71          1           0       -7.726537   -3.690891   -2.272100
     72          1           0        3.543814    3.636594    3.646903
     73          1           0       -0.410319    4.200751   -3.324300
     74          1           0       -4.194779    4.382165   -0.633241
     75          1           0       -3.802460    3.766831    0.960644
     76          1           0       -3.113511    5.336386    0.536134
     77          1           0        8.454989   -2.186023   -1.127161
     78          1           0       -1.720173    6.386936   -3.472935
     79          1           0       -2.826469    6.166438   -1.977603
 ---------------------------------------------------------------------

 SCF Done:  E(RB3LYP) =  -1947.81754693     A.U. after   16 cycles

 Excitation energies and oscillator strengths:

 Excited State   1:      Singlet-A      1.0339 eV 1199.25 nm  f=0.0018  <S**2>=0.000
     155 ->156         0.70079
 This state for optimization and/or second-order correction.
 Total Energy, E(TD-HF/TD-DFT) =  -1947.77955358
 Copying the excited state density for this state as the 1-particle RhoCI density.

 The electronic state is 1-A.
 Alpha  occ. eigenvalues --  -19.20356 -19.18378 -19.14386 -19.13701 -19.11763
 Alpha  occ. eigenvalues --  -19.08793 -14.36409 -14.35633 -14.33125 -14.31980
 Alpha  occ. eigenvalues --  -10.33375 -10.31515 -10.29306 -10.26949 -10.26671
 Alpha  occ. eigenvalues --  -10.25721 -10.25138 -10.24255 -10.23313 -10.22965
 Alpha  occ. eigenvalues --  -10.22900 -10.22873 -10.22817 -10.22447 -10.22184
 Alpha  occ. eigenvalues --  -10.22117 -10.21964 -10.21941 -10.21521 -10.21437
 Alpha  occ. eigenvalues --  -10.20831 -10.20792 -10.20493 -10.20283 -10.19937
 Alpha  occ. eigenvalues --  -10.19936 -10.19713 -10.19632 -10.19496 -10.18614
 Alpha  occ. eigenvalues --  -10.17908 -10.17662 -10.17227  -1.12025  -1.08426
 Alpha  occ. eigenvalues --   -1.04353  -1.02817  -1.00716  -0.98020  -0.96543
 Alpha  occ. eigenvalues --   -0.95510  -0.93293  -0.92227  -0.83560  -0.82558
 Alpha  occ. eigenvalues --   -0.81298  -0.80968  -0.79782  -0.79546  -0.78009
 Alpha  occ. eigenvalues --   -0.76609  -0.76209  -0.75703  -0.73898  -0.72419
 Alpha  occ. eigenvalues --   -0.70713  -0.70513  -0.69022  -0.68643  -0.67960
 Alpha  occ. eigenvalues --   -0.67342  -0.66178  -0.63722  -0.61819  -0.59938
 Alpha  occ. eigenvalues --   -0.59662  -0.59344  -0.58559  -0.57243  -0.56741
 Alpha  occ. eigenvalues --   -0.55658  -0.54605  -0.54316  -0.53263  -0.52766
 Alpha  occ. eigenvalues --   -0.52050  -0.51732  -0.51335  -0.50922  -0.50585
 Alpha  occ. eigenvalues --   -0.49682  -0.49372  -0.48725  -0.48445  -0.48311
 Alpha  occ. eigenvalues --   -0.47182  -0.46916  -0.46154  -0.45880  -0.45443
 Alpha  occ. eigenvalues --   -0.45023  -0.44854  -0.44673  -0.44490  -0.44308
 Alpha  occ. eigenvalues --   -0.43399  -0.43163  -0.42882  -0.42428  -0.42071
 Alpha  occ. eigenvalues --   -0.41883  -0.41663  -0.41099  -0.40857  -0.40491
 Alpha  occ. eigenvalues --   -0.40323  -0.39883  -0.39772  -0.39393  -0.39154
 Alpha  occ. eigenvalues --   -0.39095  -0.38541  -0.38419  -0.38099  -0.37772
 Alpha  occ. eigenvalues --   -0.37569  -0.37233  -0.37116  -0.36639  -0.36298
 Alpha  occ. eigenvalues --   -0.35933  -0.35752  -0.35191  -0.34849  -0.34339
 Alpha  occ. eigenvalues --   -0.34035  -0.33886  -0.33226  -0.32927  -0.32485
 Alpha  occ. eigenvalues --   -0.31095  -0.30119  -0.30071  -0.29721  -0.29650
 Alpha  occ. eigenvalues --   -0.27104  -0.26698  -0.26453  -0.24872  -0.23995
 Alpha  occ. eigenvalues --   -0.23645  -0.23517  -0.22896  -0.21388  -0.19493
 Alpha virt. eigenvalues --   -0.13338  -0.08568  -0.04844  -0.03250  -0.02094
 Alpha virt. eigenvalues --   -0.01610   0.00769   0.01226   0.02323   0.02514
 Alpha virt. eigenvalues --    0.03308   0.03783   0.04261   0.05070   0.05192

 Mulliken charges:
               1
     1  O   -0.226666
     2  O   -0.187689
     3  O   -0.282419
     4  O   -0.167347
     5  O   -0.226173
     6  O   -0.198705
     7  N   -0.093619
     8  N   -0.198027
     9  N   -0.263002
    10  N   -0.370734
    11  C    0.045482
    12  C    0.290581
    13  C   -0.095929
    14  C   -0.114492
    15  C   -0.036070
    16  C   -0.009213
    17  C   -0.184805
    18  C    0.120698
    19  C   -0.033797
    20  C   -0.132970
    21  C    0.201292
    22  C    0.140255
    23  C   -0.079238
    24  C    0.025847
    25  C    0.022949
    26  C   -0.028099
    27  C   -0.166532
    28  C    0.247659
    29  C    0.164678
    30  C   -0.052563
    31  C   -0.072054
    32  C   -0.029147
    33  C   -0.107682
    34  C    0.180619
    35  C    0.025131
    36  C   -0.061975
    37  C    0.148124
    38  C    0.101912
    39  C   -0.233064
    40  C    0.219659
    41  C   -0.081656
    42  C    0.104705
    43  C   -0.077745
    44  H    0.052650
    45  H   -0.052606
    46  H   -0.016490
    47  H    0.102890
    48  H    0.153314
    49  H    0.019213
    50  H    0.007900
    51  H    0.027025
    52  H    0.010724
    53  H    0.025016
    54  H    0.055865
    55  H    0.022517
    56  H    0.065218
    57  H    0.055200
    58  H    0.073233
    59  H    0.084093
    60  H    0.214136
    61  H    0.011331
    62  H    0.006252
    63  H    0.034513
    64  H    0.055149
    65  H    0.027637
    66  H    0.056602
    67  H    0.040050
    68  H    0.039329
    69  H   -0.001076
    70  H   -0.014462
    71  H    0.017167
    72  H    0.190931
    73  H    0.050505
    74  H    0.044397
    75  H    0.011223
    76  H    0.034754
    77  H    0.180102
    78  H    0.052809
    79  H    0.034710
 Sum of Mulliken charges =  -0.00000

 Dipole moment (field-independent basis, Debye):
    X=              3.2810    Y=              3.8266    Z=             -1.1155  Tot=              5.1626
 Quadrupole moment (field-independent basis, Debye-Ang):
   XX=           -234.6537   YY=           -236.1256   ZZ=           -269.9905
   XY=              0.8603   XZ=            -26.8446   YZ=            -14.3114

 Normal termination of Gaussian 16 at Thu Jul 25 17:06:37 2019.
