 Gaussian 16, Revision A.03,
 Gaussian 16:  ES64L-G16RevA.03 25-Dec-2016

 --------------------------
 # td=(NStates=1) B3LYP/SVP
 --------------------------

 --
 TD
 --
 Symbolic Z-matrix:
 Charge =  0 Multiplicity = 1

                         Standard orientation:
 ---------------------------------------------------------------------
 Center     Atomic      Atomic             Coordinates (Angstroms)
 Number     Number       Type             X           Y           Z
 ---------------------------------------------------------------------
      1          8           0       -3.196892   -1.735165   -2.679255
      2          8           0        3.287223    3.550449    2.606039
      3          8           0        3.785415    1.844086    4.159868
      4          8           0        7.647573   -1.729578   -0.631079
      5          8           0        6.529241   -3.583335   -1.555039
      6          8           0       -2.854399    1.656481    1.172715
      7          7           0       -0.325453   -2.290659    1.233228
      8          7           0       -2.736961   -1.305439   -0.464866
      9          7           0        1.027922    0.024232   -0.725985
     10          7           0       -1.176536    1.434380   -0.431355
     11          6           0       -3.343040   -1.282738    0.788381
     12          6           0       -2.609847   -2.168362    1.951996
     13          6           0       -1.221560   -1.678362    2.038377
     14          6           0       -0.663287   -0.705080    2.792324
     15          6           0        0.769970   -0.681345    2.501806
     16          6           0        0.968603   -1.632422    1.470973
     17          6           0       -4.721684   -1.939890    0.427111
     18          6           0        1.960890    0.093170    3.029068
     19          6           0       -4.699835   -2.326420   -0.901866
     20          6           0        2.026327   -1.932014    0.459364
     21          6           0        2.014528   -1.060529   -0.594570
     22          6           0       -3.476221   -1.762238   -1.428739
     23          6           0        2.982970   -0.867622   -1.654692
     24          6           0       -1.321753    0.140045    3.842513
     25          6           0       -5.899299   -1.979510    1.436739
     26          6           0        2.548329    0.241174   -2.405160
     27          6           0        1.948778    1.466675    2.596525
     28          6           0        1.315337    0.768732   -1.865058
     29          6           0        4.199353   -1.759217   -1.925679
     30          6           0       -5.700511   -2.849065   -1.688801
     31          6           0        5.411776   -1.342158   -1.132897
     32          6           0        3.109303    0.743070   -3.641751
     33          6           0        0.544170    1.840580   -2.139311
     34          6           0        3.132831    2.241738    3.237583
     35          6           0       -0.612290    2.183328   -1.355537
     36          6           0       -6.765454   -3.579786   -1.326970
     37          6           0        6.512397   -2.381986   -1.082682
     38          6           0       -1.405935    3.519602   -1.529800
     39          6           0       -2.321448    3.422916   -0.502420
     40          6           0       -2.098021    2.016571    0.186371
     41          6           0       -1.168623    4.466375   -2.616610
     42          6           0       -3.420470    4.462718   -0.177312
     43          6           0       -1.709271    5.611562   -2.837072
     44          1           0       -3.434955   -0.224485    1.065654
     45          1           0       -2.626560   -3.206016    1.650455
     46          1           0       -3.147263   -1.874282    2.884134
     47          1           0       -0.345104   -3.108851    0.422450
     48          1           0       -2.077275   -0.676219   -0.731187
     49          1           0        1.687616   -0.083222    4.186136
     50          1           0        2.872872   -0.375243    2.862970
     51          1           0        2.866419   -2.493402    0.647442
     52          1           0       -1.910118   -0.551138    4.390052
     53          1           0       -0.533310    0.587125    4.523004
     54          1           0       -1.945490    1.038204    3.389910
     55          1           0       -5.531104   -1.237543    2.222435
     56          1           0       -6.113738   -3.033026    2.001452
     57          1           0       -6.632706   -1.700027    0.891967
     58          1           0        2.022867    1.463332    1.528734
     59          1           0        1.011104    2.208848    2.796958
     60          1           0        0.227002    0.080554   -0.021478
     61          1           0        4.318747   -1.757025   -2.960914
     62          1           0        3.871105   -2.841428   -1.593558
     63          1           0       -5.717321   -2.726027   -2.678819
     64          1           0        5.143479   -1.285816    0.039062
     65          1           0        5.690349   -0.514228   -1.511560
     66          1           0        4.004537    0.215365   -3.781619
     67          1           0        3.278213    1.826260   -3.451073
     68          1           0        2.346089    0.828379   -4.449292
     69          1           0        0.937940    2.393771   -3.037719
     70          1           0       -6.812877   -3.847601   -0.180316
     71          1           0       -7.406109   -3.902253   -2.119155
     72          1           0        4.062594    3.764369    3.186269
     73          1           0       -0.320032    4.032540   -3.334517
     74          1           0       -4.016652    4.868204   -1.150927
     75          1           0       -4.175084    3.987656    0.552090
     76          1           0       -2.886880    5.410634    0.566251
     77          1           0        8.269919   -2.475486   -0.782727
     78          1           0       -1.471446    6.199096   -3.628553
     79          1           0       -2.336987    6.210790   -1.970389
 ---------------------------------------------------------------------

 SCF Done:  E(RB3LYP) =  -1947.78782819     A.U. after   19 cycles

 Excitation energies and oscillator strengths:

 Excited State   1:      Singlet-A      1.0961 eV 1131.10 nm  f=0.0005  <S**2>=0.000
     155 ->156         0.70147
 This state for optimization and/or second-order correction.
 Total Energy, E(TD-HF/TD-DFT) =  -1947.74754598
 Copying the excited state density for this state as the 1-particle RhoCI density.

 The electronic state is 1-A.
 Alpha  occ. eigenvalues --  -19.20898 -19.17824 -19.15544 -19.15059 -19.11776
 Alpha  occ. eigenvalues --  -19.05885 -14.37770 -14.37201 -14.32486 -14.31590
 Alpha  occ. eigenvalues --  -10.35184 -10.32832 -10.28639 -10.27346 -10.27000
 Alpha  occ. eigenvalues --  -10.26008 -10.24853 -10.23723 -10.23309 -10.23287
 Alpha  occ. eigenvalues --  -10.23092 -10.22599 -10.22539 -10.21834 -10.21767
 Alpha  occ. eigenvalues --  -10.21737 -10.21405 -10.21391 -10.21354 -10.21237
 Alpha  occ. eigenvalues --  -10.21167 -10.20469 -10.20432 -10.19925 -10.19799
 Alpha  occ. eigenvalues --  -10.19774 -10.19458 -10.18654 -10.18166 -10.17891
 Alpha  occ. eigenvalues --  -10.17273 -10.17122 -10.16419  -1.10287  -1.08626
 Alpha  occ. eigenvalues --   -1.01563  -1.00692  -0.99837  -0.99609  -0.97964
 Alpha  occ. eigenvalues --   -0.95194  -0.94928  -0.91455  -0.85086  -0.83612
 Alpha  occ. eigenvalues --   -0.81644  -0.81419  -0.81177  -0.81069  -0.78648
 Alpha  occ. eigenvalues --   -0.76764  -0.76251  -0.75523  -0.74940  -0.73926
 Alpha  occ. eigenvalues --   -0.70958  -0.70736  -0.70151  -0.69569  -0.67092
 Alpha  occ. eigenvalues --   -0.66406  -0.65793  -0.63549  -0.61225  -0.60968
 Alpha  occ. eigenvalues --   -0.60544  -0.60224  -0.57801  -0.57140  -0.56067
 Alpha  occ. eigenvalues --   -0.55773  -0.55654  -0.54281  -0.53963  -0.53446
 Alpha  occ. eigenvalues --   -0.52439  -0.51962  -0.51520  -0.50707  -0.50323
 Alpha  occ. eigenvalues --   -0.49455  -0.49311  -0.49197  -0.48911  -0.48820
 Alpha  occ. eigenvalues --   -0.47990  -0.47888  -0.47299  -0.46626  -0.45920
 Alpha  occ. eigenvalues --   -0.45820  -0.45492  -0.45080  -0.44877  -0.44309
 Alpha  occ. eigenvalues --   -0.44086  -0.43321  -0.43173  -0.42904  -0.42701
 Alpha  occ. eigenvalues --   -0.42390  -0.42227  -0.41982  -0.41488  -0.41223
 Alpha  occ. eigenvalues --   -0.41027  -0.40635  -0.40201  -0.39844  -0.39559
 Alpha  occ. eigenvalues --   -0.39330  -0.38890  -0.38577  -0.38495  -0.38100
 Alpha  occ. eigenvalues --   -0.37800  -0.37724  -0.37358  -0.36705  -0.36439
 Alpha  occ. eigenvalues --   -0.36372  -0.35904  -0.34908  -0.34565  -0.34203
 Alpha  occ. eigenvalues --   -0.33749  -0.33702  -0.33153  -0.32936  -0.32683
 Alpha  occ. eigenvalues --   -0.32128  -0.30334  -0.30062  -0.29768  -0.29484
 Alpha  occ. eigenvalues --   -0.28750  -0.27197  -0.25514  -0.24034  -0.23713
 Alpha  occ. eigenvalues --   -0.23428  -0.22962  -0.21935  -0.21705  -0.19731
 Alpha virt. eigenvalues --   -0.13161  -0.07665  -0.04327  -0.04105  -0.02235
 Alpha virt. eigenvalues --   -0.01069   0.01132   0.01949   0.02713   0.03037
 Alpha virt. eigenvalues --    0.03556   0.04016   0.04174   0.04537   0.04775

 Mulliken charges:
               1
     1  O   -0.326193
     2  O   -0.256785
     3  O   -0.195838
     4  O   -0.191184
     5  O   -0.283790
     6  O   -0.291327
     7  N   -0.179040
     8  N   -0.024887
     9  N   -0.205972
    10  N   -0.136836
    11  C    0.022509
    12  C    0.283274
    13  C   -0.084412
    14  C   -0.127622
    15  C   -0.130062
    16  C   -0.032146
    17  C   -0.223875
    18  C    0.141771
    19  C    0.085133
    20  C   -0.074600
    21  C    0.142120
    22  C    0.050525
    23  C   -0.086792
    24  C    0.062680
    25  C    0.111540
    26  C   -0.151698
    27  C   -0.013820
    28  C    0.161179
    29  C    0.094990
    30  C   -0.045595
    31  C    0.084637
    32  C    0.143134
    33  C   -0.130076
    34  C    0.158643
    35  C    0.110223
    36  C   -0.032397
    37  C    0.179553
    38  C    0.043656
    39  C   -0.195121
    40  C    0.150994
    41  C   -0.003564
    42  C   -0.053414
    43  C   -0.031312
    44  H    0.052779
    45  H   -0.030742
    46  H   -0.007997
    47  H    0.184132
    48  H    0.087290
    49  H    0.035864
    50  H   -0.022321
    51  H   -0.024146
    52  H    0.004203
    53  H    0.000770
    54  H    0.062329
    55  H    0.030906
    56  H    0.056729
    57  H   -0.009166
    58  H    0.016162
    59  H    0.076010
    60  H    0.227621
    61  H    0.011278
    62  H    0.045768
    63  H   -0.052716
    64  H    0.072483
    65  H   -0.023425
    66  H    0.003176
    67  H    0.023037
    68  H    0.048765
    69  H   -0.009764
    70  H    0.019103
    71  H    0.012903
    72  H    0.170966
    73  H    0.014259
    74  H    0.071011
    75  H    0.047012
    76  H    0.057668
    77  H    0.182825
    78  H   -0.007399
    79  H    0.054421
 Sum of Mulliken charges =  -0.00000

 Dipole moment (field-independent basis, Debye):
    X=              5.4764    Y=              2.3458    Z=             -0.7414  Tot=              6.0036
 Quadrupole moment (field-independent basis, Debye-Ang):
   XX=           -240.7625   YY=           -248.3256   ZZ=           -262.9887
   XY=              1.0558   XZ=            -22.9995   YZ=            -18.6344

 Normal termination of Gaussian 16 at Tue Jul 30 03:00:21 2019.
