 Gaussian 16, Revision A.03,
 Gaussian 16:  ES64L-G16RevA.03 25-Dec-2016

 --------------------------
 # td=(NStates=1) B3LYP/SVP
 --------------------------

 --
 TD
 --
 Symbolic Z-matrix:
 Charge =  0 Multiplicity = 1

                         Standard orientation:
 ---------------------------------------------------------------------
 Center     Atomic      Atomic             Coordinates (Angstroms)
 Number     Number       Type             X           Y           Z
 ---------------------------------------------------------------------
      1          8           0        5.208814   -0.232690   -3.401336
      2          8           0       -2.990318   -3.007106    3.148465
      3          8           0       -3.194362   -0.829620    3.286821
      4          8           0       -1.866893    7.297368    1.472571
      5          8           0       -1.082994    7.218208   -0.633242
      6          8           0       -1.592080   -3.948792    0.210852
      7          7           0        2.436704    1.059813    0.702212
      8          7           0        4.278274   -0.554451   -1.267427
      9          7           0       -1.920166    0.655532   -0.350617
     10          7           0       -2.479459   -1.990443   -0.507676
     11          6           0        4.752389   -1.100055   -0.042756
     12          6           0        4.382520   -0.320555    1.278618
     13          6           0        2.902336    0.035613    1.476718
     14          6           0        1.969659   -0.560468    2.210783
     15          6           0        0.693495    0.019608    1.849331
     16          6           0        0.998833    1.033731    0.889842
     17          6           0        6.237359   -1.267564   -0.184627
     18          6           0       -0.499887   -0.132733    2.714073
     19          6           0        6.664648   -0.724168   -1.380081
     20          6           0        0.209817    2.057191    0.247729
     21          6           0       -1.116433    1.852613   -0.282962
     22          6           0        5.298699   -0.487768   -2.214165
     23          6           0       -2.021941    2.931309   -0.860205
     24          6           0        2.174498   -1.660082    3.105324
     25          6           0        7.151465   -1.697509    0.918762
     26          6           0       -3.259013    2.294211   -1.207433
     27          6           0       -0.970800   -1.659608    2.648664
     28          6           0       -3.021022    0.797603   -1.090460
     29          6           0       -1.642660    4.340423   -0.999815
     30          6           0        7.934765   -0.592822   -2.091953
     31          6           0       -2.021229    5.166262    0.293794
     32          6           0       -4.352939    2.815539   -2.037204
     33          6           0       -3.850632   -0.256156   -1.508953
     34          6           0       -2.494793   -1.747072    2.923758
     35          6           0       -3.606076   -1.631616   -1.196370
     36          6           0        9.170842   -0.498413   -1.531170
     37          6           0       -1.586707    6.606612    0.315401
     38          6           0       -4.426001   -2.848181   -1.467634
     39          6           0       -3.662933   -3.860804   -1.000043
     40          6           0       -2.494056   -3.362646   -0.384844
     41          6           0       -5.603899   -2.699384   -2.264831
     42          6           0       -4.016201   -5.328095   -1.103265
     43          6           0       -6.499998   -3.602113   -2.604583
     44          1           0        4.374049   -2.239005    0.072377
     45          1           0        4.900612    0.536628    1.350260
     46          1           0        4.689745   -0.814806    2.281287
     47          1           0        2.912696    1.376328   -0.191154
     48          1           0        3.335809   -0.610641   -1.641894
     49          1           0       -0.488540    0.138402    3.890225
     50          1           0       -1.434438    0.351409    2.269563
     51          1           0        0.771929    3.149309    0.064794
     52          1           0        3.370820   -1.653083    3.313086
     53          1           0        1.630577   -1.578254    4.006012
     54          1           0        1.659559   -2.594249    2.818706
     55          1           0        6.666240   -2.132321    1.836269
     56          1           0        7.772876   -0.783580    1.345937
     57          1           0        7.985249   -2.360178    0.476752
     58          1           0       -0.752307   -2.342052    1.692122
     59          1           0       -0.726983   -2.271641    3.487810
     60          1           0       -1.737224   -0.387790    0.014963
     61          1           0       -2.355422    4.637353   -1.685619
     62          1           0       -0.655728    4.620173   -1.198276
     63          1           0        8.167500   -0.516422   -3.190405
     64          1           0       -1.536280    4.684194    1.258555
     65          1           0       -3.083736    4.948331    0.560069
     66          1           0       -4.321631    3.891602   -2.499969
     67          1           0       -5.345757    2.718054   -1.527507
     68          1           0       -4.659657    2.138560   -2.966109
     69          1           0       -4.702368   -0.062309   -2.070013
     70          1           0        9.101119   -0.314581   -0.388589
     71          1           0       10.071876   -0.532655   -2.136523
     72          1           0       -4.019332   -2.929912    2.845756
     73          1           0       -5.872917   -1.757489   -2.299910
     74          1           0       -4.724282   -5.641119   -0.231618
     75          1           0       -4.717640   -5.788001   -2.070044
     76          1           0       -3.088331   -5.919623   -0.811733
     77          1           0       -1.575723    8.191495    1.402247
     78          1           0       -7.677747   -3.273918   -2.924206
     79          1           0       -6.364025   -4.527726   -2.378340
 ---------------------------------------------------------------------

 SCF Done:  E(RB3LYP) =  -1947.82812985     A.U. after   19 cycles

 Excitation energies and oscillator strengths:

 Excited State   1:      Singlet-A      1.9955 eV  621.31 nm  f=0.3695  <S**2>=0.000
     154 ->156         0.13012
     155 ->156         0.69111
     155 <-156        -0.10745
 This state for optimization and/or second-order correction.
 Total Energy, E(TD-HF/TD-DFT) =  -1947.75479510
 Copying the excited state density for this state as the 1-particle RhoCI density.

 The electronic state is 1-A.
 Alpha  occ. eigenvalues --  -19.18235 -19.15967 -19.13289 -19.11145 -19.10999
 Alpha  occ. eigenvalues --  -19.10177 -14.38523 -14.37385 -14.36929 -14.28771
 Alpha  occ. eigenvalues --  -10.33407 -10.30264 -10.29627 -10.26793 -10.26086
 Alpha  occ. eigenvalues --  -10.25908 -10.25684 -10.24688 -10.24110 -10.23635
 Alpha  occ. eigenvalues --  -10.22949 -10.22942 -10.22807 -10.22806 -10.22488
 Alpha  occ. eigenvalues --  -10.22300 -10.21973 -10.21839 -10.21596 -10.21368
 Alpha  occ. eigenvalues --  -10.21278 -10.20797 -10.20683 -10.20592 -10.20302
 Alpha  occ. eigenvalues --  -10.20278 -10.20048 -10.19946 -10.19895 -10.19670
 Alpha  occ. eigenvalues --  -10.19527 -10.19196 -10.18502  -1.09308  -1.06841
 Alpha  occ. eigenvalues --   -1.02978  -1.01287  -0.99954  -0.97877  -0.97182
 Alpha  occ. eigenvalues --   -0.97142  -0.95219  -0.92187  -0.83218  -0.82491
 Alpha  occ. eigenvalues --   -0.82145  -0.81523  -0.80971  -0.79217  -0.77892
 Alpha  occ. eigenvalues --   -0.77497  -0.76405  -0.75705  -0.74745  -0.72716
 Alpha  occ. eigenvalues --   -0.71597  -0.70821  -0.69922  -0.68925  -0.68136
 Alpha  occ. eigenvalues --   -0.66755  -0.66353  -0.63998  -0.61331  -0.60808
 Alpha  occ. eigenvalues --   -0.60742  -0.59748  -0.57613  -0.57564  -0.56384
 Alpha  occ. eigenvalues --   -0.56079  -0.55647  -0.55306  -0.54293  -0.53926
 Alpha  occ. eigenvalues --   -0.52315  -0.51523  -0.51131  -0.50573  -0.50023
 Alpha  occ. eigenvalues --   -0.49058  -0.48742  -0.48616  -0.47990  -0.47771
 Alpha  occ. eigenvalues --   -0.47522  -0.46706  -0.46344  -0.45959  -0.45801
 Alpha  occ. eigenvalues --   -0.44829  -0.44389  -0.44300  -0.44126  -0.43860
 Alpha  occ. eigenvalues --   -0.43679  -0.43439  -0.43166  -0.42941  -0.42919
 Alpha  occ. eigenvalues --   -0.42435  -0.42018  -0.41461  -0.41003  -0.40811
 Alpha  occ. eigenvalues --   -0.40365  -0.40267  -0.40113  -0.40046  -0.39979
 Alpha  occ. eigenvalues --   -0.39491  -0.39295  -0.39033  -0.38886  -0.38287
 Alpha  occ. eigenvalues --   -0.38116  -0.37420  -0.36818  -0.36760  -0.36496
 Alpha  occ. eigenvalues --   -0.36344  -0.36030  -0.35510  -0.35333  -0.34936
 Alpha  occ. eigenvalues --   -0.34590  -0.34440  -0.32832  -0.32522  -0.31790
 Alpha  occ. eigenvalues --   -0.31495  -0.30047  -0.29080  -0.28614  -0.27669
 Alpha  occ. eigenvalues --   -0.27178  -0.26096  -0.25976  -0.25417  -0.25028
 Alpha  occ. eigenvalues --   -0.24627  -0.24469  -0.23908  -0.22702  -0.19599
 Alpha virt. eigenvalues --   -0.11568  -0.07680  -0.05992  -0.01815  -0.01430
 Alpha virt. eigenvalues --   -0.00354   0.00595   0.00846   0.02153   0.02923
 Alpha virt. eigenvalues --    0.03219   0.03469   0.03701   0.04155   0.04726

 Mulliken charges:
               1
     1  O   -0.209173
     2  O   -0.264100
     3  O   -0.231994
     4  O   -0.186737
     5  O   -0.247680
     6  O   -0.212161
     7  N   -0.137101
     8  N   -0.186296
     9  N   -0.141450
    10  N   -0.302192
    11  C    0.120700
    12  C    0.226908
    13  C   -0.112628
    14  C   -0.134806
    15  C   -0.024039
    16  C    0.057983
    17  C   -0.165647
    18  C    0.027895
    19  C   -0.022545
    20  C   -0.129917
    21  C    0.139091
    22  C    0.137068
    23  C   -0.166645
    24  C    0.143456
    25  C    0.006892
    26  C   -0.054094
    27  C   -0.087291
    28  C    0.095094
    29  C    0.255231
    30  C   -0.050475
    31  C   -0.094269
    32  C   -0.018016
    33  C   -0.045202
    34  C    0.124876
    35  C    0.041991
    36  C   -0.062605
    37  C    0.174653
    38  C    0.083119
    39  C   -0.161787
    40  C    0.133950
    41  C    0.051793
    42  C   -0.016949
    43  C    0.013966
    44  H    0.042127
    45  H   -0.050790
    46  H    0.002135
    47  H    0.147450
    48  H    0.138124
    49  H    0.056379
    50  H    0.038359
    51  H    0.060103
    52  H    0.022586
    53  H   -0.020868
    54  H    0.027266
    55  H    0.029990
    56  H    0.055187
    57  H    0.057626
    58  H    0.109216
    59  H    0.024045
    60  H    0.204304
    61  H   -0.019980
    62  H    0.003973
    63  H    0.026888
    64  H    0.054751
    65  H    0.050618
    66  H    0.048745
    67  H    0.023259
    68  H    0.043522
    69  H   -0.064730
    70  H    0.022535
    71  H    0.032486
    72  H    0.227028
    73  H   -0.070100
    74  H    0.034966
    75  H    0.061431
    76  H    0.041702
    77  H    0.172536
    78  H    0.052586
    79  H   -0.054324
 Sum of Mulliken charges =  -0.00000

 Dipole moment (field-independent basis, Debye):
    X=              0.3846    Y=              1.9211    Z=              1.9562  Tot=              2.7686
 Quadrupole moment (field-independent basis, Debye-Ang):
   XX=           -213.0728   YY=           -254.5073   ZZ=           -271.4120
   XY=             -3.7537   XZ=             33.0959   YZ=              6.6798

 Normal termination of Gaussian 16 at Tue Sep 24 07:53:17 2019.
