 Gaussian 16, Revision A.03,
 Gaussian 16:  ES64L-G16RevA.03 25-Dec-2016

 --------------------------
 # td=(NStates=1) B3LYP/SVP
 --------------------------

 --
 TD
 --
 Symbolic Z-matrix:
 Charge =  0 Multiplicity = 1

                         Standard orientation:
 ---------------------------------------------------------------------
 Center     Atomic      Atomic             Coordinates (Angstroms)
 Number     Number       Type             X           Y           Z
 ---------------------------------------------------------------------
      1          8           0       -3.248846   -1.682118   -2.762357
      2          8           0        2.906073    3.517515    2.926305
      3          8           0        3.707912    1.818111    4.165431
      4          8           0        7.694399   -1.624599   -0.692635
      5          8           0        6.641865   -3.308745   -1.647823
      6          8           0       -2.691150    1.670947    1.290639
      7          7           0       -0.165417   -2.380611    1.079193
      8          7           0       -2.683035   -1.281940   -0.540744
      9          7           0        1.238098    0.071750   -0.711172
     10          7           0       -1.037007    1.518393   -0.298773
     11          6           0       -3.379808   -1.413946    0.715804
     12          6           0       -2.648043   -2.311211    1.667584
     13          6           0       -1.228682   -1.950292    1.900889
     14          6           0       -0.587720   -1.007966    2.889759
     15          6           0        0.773264   -0.954624    2.519656
     16          6           0        0.931352   -1.761342    1.380381
     17          6           0       -4.778457   -1.805101    0.369988
     18          6           0        1.823562   -0.099355    3.140743
     19          6           0       -4.751574   -2.043918   -0.960516
     20          6           0        2.075223   -1.833743    0.400397
     21          6           0        2.176201   -0.958513   -0.593171
     22          6           0       -3.495856   -1.609808   -1.595854
     23          6           0        3.011747   -0.798533   -1.772528
     24          6           0       -1.215677   -0.212449    3.913977
     25          6           0       -5.701958   -2.229333    1.513741
     26          6           0        2.596890    0.392267   -2.424649
     27          6           0        1.871438    1.439296    2.515883
     28          6           0        1.361111    0.865428   -1.776037
     29          6           0        4.287196   -1.618371   -1.882284
     30          6           0       -5.711853   -2.749363   -1.851362
     31          6           0        5.508688   -1.284731   -1.045024
     32          6           0        3.169431    0.867383   -3.780362
     33          6           0        0.554327    1.902312   -2.063928
     34          6           0        2.858457    2.245346    3.327133
     35          6           0       -0.600690    2.288759   -1.278997
     36          6           0       -6.829704   -3.427418   -1.505487
     37          6           0        6.628793   -2.165260   -1.152058
     38          6           0       -1.508859    3.425949   -1.415963
     39          6           0       -2.444906    3.377741   -0.432223
     40          6           0       -2.141768    2.130508    0.242884
     41          6           0       -1.376126    4.383600   -2.484076
     42          6           0       -3.496196    4.247002   -0.004268
     43          6           0       -1.917207    5.613910   -2.611547
     44          1           0       -3.526048   -0.559025    1.066051
     45          1           0       -2.500641   -3.412205    1.317077
     46          1           0       -3.075760   -2.246007    2.830080
     47          1           0       -0.376214   -2.819916    0.218390
     48          1           0       -2.006895   -0.633653   -0.675025
     49          1           0        1.567206    0.000449    4.370086
     50          1           0        2.862647   -0.625172    3.277221
     51          1           0        2.847473   -2.403908    0.533086
     52          1           0       -2.059957   -0.824899    4.244315
     53          1           0       -0.454438    0.236757    4.686852
     54          1           0       -1.779107    0.667863    3.464976
     55          1           0       -5.507041   -1.655362    2.485958
     56          1           0       -5.523827   -3.350706    1.649534
     57          1           0       -6.741984   -2.071925    1.187644
     58          1           0        1.948502    1.403903    1.429005
     59          1           0        0.926548    2.027564    2.625120
     60          1           0        0.557806    0.516837   -0.158672
     61          1           0        4.783797   -1.530113   -2.906744
     62          1           0        3.818900   -2.602592   -1.604561
     63          1           0       -5.471626   -2.690572   -2.938241
     64          1           0        5.455177   -1.050628    0.064581
     65          1           0        5.828739   -0.217405   -1.269349
     66          1           0        4.055737    0.248889   -4.137270
     67          1           0        3.544338    1.867648   -3.605746
     68          1           0        2.451691    0.914071   -4.751753
     69          1           0        0.910267    2.484903   -2.957671
     70          1           0       -7.024114   -3.495655   -0.372068
     71          1           0       -7.450495   -3.747898   -2.280380
     72          1           0        3.606185    3.820057    3.543202
     73          1           0       -0.656880    3.994147   -3.417870
     74          1           0       -4.064845    4.668277   -0.950366
     75          1           0       -4.154960    3.625215    0.735560
     76          1           0       -3.306777    5.203475    0.379341
     77          1           0        8.400906   -2.323698   -0.790740
     78          1           0       -1.677137    6.223606   -3.577731
     79          1           0       -2.633243    6.070308   -1.860826
 ---------------------------------------------------------------------

 SCF Done:  E(RB3LYP) =  -1947.85658222     A.U. after   16 cycles

 Excitation energies and oscillator strengths:

 Excited State   1:      Singlet-A      0.7902 eV 1568.99 nm  f=0.0001  <S**2>=0.000
     155 ->156         0.70477
 This state for optimization and/or second-order correction.
 Total Energy, E(TD-HF/TD-DFT) =  -1947.82754237
 Copying the excited state density for this state as the 1-particle RhoCI density.

 The electronic state is 1-A.
 Alpha  occ. eigenvalues --  -19.20292 -19.18972 -19.12569 -19.12398 -19.12396
 Alpha  occ. eigenvalues --  -19.08415 -14.36935 -14.36674 -14.32259 -14.31052
 Alpha  occ. eigenvalues --  -10.32543 -10.32388 -10.28319 -10.26062 -10.26007
 Alpha  occ. eigenvalues --  -10.25879 -10.25404 -10.23709 -10.23517 -10.23061
 Alpha  occ. eigenvalues --  -10.22787 -10.22641 -10.22604 -10.22094 -10.21753
 Alpha  occ. eigenvalues --  -10.21304 -10.21301 -10.21291 -10.21256 -10.21157
 Alpha  occ. eigenvalues --  -10.21063 -10.20843 -10.20752 -10.20746 -10.20227
 Alpha  occ. eigenvalues --  -10.20160 -10.20126 -10.18221 -10.17893 -10.17843
 Alpha  occ. eigenvalues --  -10.17718 -10.17232 -10.16657  -1.13290  -1.10392
 Alpha  occ. eigenvalues --   -1.02110  -1.02009  -1.00787  -0.99697  -0.98041
 Alpha  occ. eigenvalues --   -0.97898  -0.94976  -0.93644  -0.84815  -0.82825
 Alpha  occ. eigenvalues --   -0.82428  -0.80573  -0.80168  -0.79627  -0.78790
 Alpha  occ. eigenvalues --   -0.77788  -0.76368  -0.75771  -0.74320  -0.73173
 Alpha  occ. eigenvalues --   -0.71742  -0.70938  -0.70236  -0.70165  -0.68482
 Alpha  occ. eigenvalues --   -0.67581  -0.66307  -0.64021  -0.62332  -0.61737
 Alpha  occ. eigenvalues --   -0.60071  -0.59095  -0.58999  -0.57480  -0.57216
 Alpha  occ. eigenvalues --   -0.56561  -0.55849  -0.55044  -0.54128  -0.52898
 Alpha  occ. eigenvalues --   -0.52380  -0.52118  -0.51758  -0.51169  -0.50175
 Alpha  occ. eigenvalues --   -0.49771  -0.49357  -0.48940  -0.48911  -0.48621
 Alpha  occ. eigenvalues --   -0.47923  -0.47189  -0.46945  -0.46552  -0.46366
 Alpha  occ. eigenvalues --   -0.45857  -0.45738  -0.45023  -0.44546  -0.43922
 Alpha  occ. eigenvalues --   -0.43551  -0.43250  -0.42719  -0.42300  -0.42039
 Alpha  occ. eigenvalues --   -0.41806  -0.41476  -0.41202  -0.41014  -0.40838
 Alpha  occ. eigenvalues --   -0.40750  -0.40444  -0.40286  -0.39982  -0.39512
 Alpha  occ. eigenvalues --   -0.39466  -0.39284  -0.39110  -0.38768  -0.38626
 Alpha  occ. eigenvalues --   -0.38100  -0.37600  -0.37368  -0.37135  -0.36614
 Alpha  occ. eigenvalues --   -0.36220  -0.36014  -0.35583  -0.35446  -0.35077
 Alpha  occ. eigenvalues --   -0.33623  -0.32720  -0.32440  -0.32027  -0.31483
 Alpha  occ. eigenvalues --   -0.31047  -0.29961  -0.29726  -0.29139  -0.28532
 Alpha  occ. eigenvalues --   -0.27923  -0.27098  -0.26681  -0.25348  -0.24480
 Alpha  occ. eigenvalues --   -0.24199  -0.22727  -0.22619  -0.22387  -0.18355
 Alpha virt. eigenvalues --   -0.13078  -0.08259  -0.03961  -0.02015  -0.01224
 Alpha virt. eigenvalues --   -0.00905   0.02251   0.02403   0.02998   0.03229
 Alpha virt. eigenvalues --    0.03466   0.04024   0.04548   0.04812   0.05069

 Mulliken charges:
               1
     1  O   -0.206354
     2  O   -0.157578
     3  O   -0.294579
     4  O   -0.125689
     5  O   -0.273607
     6  O   -0.236898
     7  N    0.021795
     8  N   -0.176824
     9  N   -0.048720
    10  N   -0.253492
    11  C    0.291793
    12  C    0.113261
    13  C   -0.152411
    14  C   -0.097000
    15  C   -0.056717
    16  C   -0.026764
    17  C   -0.201819
    18  C   -0.037377
    19  C   -0.085150
    20  C   -0.064004
    21  C    0.157212
    22  C    0.122254
    23  C   -0.055861
    24  C    0.076197
    25  C    0.056737
    26  C   -0.110131
    27  C    0.001094
    28  C    0.035897
    29  C    0.098718
    30  C   -0.035130
    31  C   -0.015278
    32  C    0.029210
    33  C   -0.067551
    34  C    0.164348
    35  C    0.080730
    36  C   -0.005128
    37  C    0.093183
    38  C    0.077430
    39  C   -0.137513
    40  C    0.144713
    41  C   -0.075591
    42  C    0.045333
    43  C   -0.067108
    44  H   -0.078383
    45  H    0.002160
    46  H    0.026315
    47  H    0.101666
    48  H    0.093315
    49  H    0.031430
    50  H    0.037312
    51  H   -0.066497
    52  H   -0.011413
    53  H    0.021946
    54  H    0.038858
    55  H    0.036090
    56  H    0.057778
    57  H    0.042889
    58  H    0.038872
    59  H    0.044841
    60  H    0.143237
    61  H    0.032629
    62  H    0.044312
    63  H    0.009342
    64  H    0.045476
    65  H    0.035938
    66  H    0.026505
    67  H    0.025431
    68  H    0.065487
    69  H   -0.012999
    70  H    0.010723
    71  H    0.006148
    72  H    0.173246
    73  H    0.038494
    74  H    0.028986
    75  H    0.059733
    76  H    0.022866
    77  H    0.196950
    78  H    0.050916
    79  H    0.033774
 Sum of Mulliken charges =  -0.00000

 Dipole moment (field-independent basis, Debye):
    X=              3.1684    Y=              4.4938    Z=             -1.3969  Tot=              5.6731
 Quadrupole moment (field-independent basis, Debye-Ang):
   XX=           -234.7495   YY=           -241.6953   ZZ=           -266.3671
   XY=              1.0966   XZ=            -21.7888   YZ=            -16.6033

 Normal termination of Gaussian 16 at Mon Jul 29 00:45:12 2019.
