 Gaussian 16, Revision A.03,
 Gaussian 16:  ES64L-G16RevA.03 25-Dec-2016

 --------------------------
 # td=(NStates=1) B3LYP/SVP
 --------------------------

 --
 TD
 --
 Symbolic Z-matrix:
 Charge =  0 Multiplicity = 1

                         Standard orientation:
 ---------------------------------------------------------------------
 Center     Atomic      Atomic             Coordinates (Angstroms)
 Number     Number       Type             X           Y           Z
 ---------------------------------------------------------------------
      1          8           0       -3.295045   -1.973626   -2.532824
      2          8           0        2.970993    3.764862    2.548234
      3          8           0        3.561878    2.322385    4.235387
      4          8           0        7.773182   -1.675867   -0.767782
      5          8           0        6.544199   -3.629773   -1.044211
      6          8           0       -2.655915    1.845192    1.042993
      7          7           0       -0.281490   -2.129444    1.326268
      8          7           0       -2.730228   -1.343169   -0.439162
      9          7           0        1.109368    0.009230   -0.734152
     10          7           0       -0.915056    1.372613   -0.415652
     11          6           0       -3.380147   -1.224898    0.796940
     12          6           0       -2.649489   -1.875537    2.058362
     13          6           0       -1.289418   -1.546380    2.093368
     14          6           0       -0.570704   -0.543121    2.961826
     15          6           0        0.836159   -0.607283    2.516287
     16          6           0        0.946059   -1.558093    1.543213
     17          6           0       -4.732941   -1.769467    0.574660
     18          6           0        1.807646    0.342645    3.212320
     19          6           0       -4.874833   -2.265695   -0.712065
     20          6           0        2.114555   -1.830129    0.645974
     21          6           0        2.085739   -1.011295   -0.547353
     22          6           0       -3.480663   -1.895798   -1.356296
     23          6           0        3.071579   -1.045038   -1.597137
     24          6           0       -1.244692    0.295686    3.906543
     25          6           0       -5.902540   -1.759608    1.549319
     26          6           0        2.631046   -0.078288   -2.486005
     27          6           0        1.709736    1.772403    2.716928
     28          6           0        1.424976    0.564622   -1.959802
     29          6           0        4.247060   -2.000252   -1.670667
     30          6           0       -5.866664   -2.936149   -1.574947
     31          6           0        5.528259   -1.390878   -1.032356
     32          6           0        3.234125    0.286754   -3.689284
     33          6           0        0.682793    1.661825   -2.400060
     34          6           0        2.926850    2.625253    3.328943
     35          6           0       -0.478207    2.124223   -1.657795
     36          6           0       -6.982214   -3.524154   -1.014208
     37          6           0        6.522172   -2.405622   -0.889514
     38          6           0       -1.278386    3.276192   -1.935697
     39          6           0       -2.330591    3.277260   -0.955407
     40          6           0       -1.932432    2.112283    0.026727
     41          6           0       -1.080395    4.083048   -3.045202
     42          6           0       -3.404926    4.243849   -0.575283
     43          6           0       -1.823264    5.124743   -3.350653
     44          1           0       -3.517318   -0.156201    0.966841
     45          1           0       -3.160065   -2.930906    1.846063
     46          1           0       -3.313819   -1.625879    3.246882
     47          1           0       -0.504162   -2.729087    0.485101
     48          1           0       -1.882672   -0.658865   -0.759728
     49          1           0        1.578845    0.231081    4.257872
     50          1           0        2.816923   -0.017327    2.993432
     51          1           0        3.027386   -2.575397    0.905884
     52          1           0       -1.977738   -0.099508    4.651895
     53          1           0       -0.479226    0.715117    4.563933
     54          1           0       -1.738042    1.097004    3.592863
     55          1           0       -5.743015   -0.717501    2.186020
     56          1           0       -5.919866   -2.518473    2.559440
     57          1           0       -6.946416   -1.890451    1.149923
     58          1           0        1.876504    1.875428    1.583135
     59          1           0        0.766029    2.071880    2.814457
     60          1           0        0.233480    0.079097   -0.145986
     61          1           0        4.471672   -1.992422   -2.750231
     62          1           0        3.805328   -3.024897   -1.276013
     63          1           0       -5.567767   -2.938267   -2.825728
     64          1           0        5.399085   -0.987991    0.003095
     65          1           0        5.761784   -0.473496   -1.658024
     66          1           0        4.087547   -0.266825   -3.752238
     67          1           0        3.634956    1.221377   -3.955364
     68          1           0        2.529678   -0.110722   -4.862768
     69          1           0        0.831300    2.347632   -3.269869
     70          1           0       -7.148829   -3.576515    0.166574
     71          1           0       -7.404595   -4.189027   -1.788924
     72          1           0        3.664838    4.257773    3.084778
     73          1           0       -0.515868    3.495085   -3.938723
     74          1           0       -4.082081    4.426005   -1.367480
     75          1           0       -3.994064    3.944305    0.233928
     76          1           0       -3.071738    5.295133   -0.133179
     77          1           0        8.570668   -2.416642   -0.504550
     78          1           0       -1.561523    5.693863   -4.334684
     79          1           0       -2.797208    5.417018   -2.874181
 ---------------------------------------------------------------------

 SCF Done:  E(RB3LYP) =  -1947.70450321     A.U. after   20 cycles

 Excitation energies and oscillator strengths:

 Excited State   1:      Singlet-A      0.8065 eV 1537.39 nm  f=0.0009  <S**2>=0.000
     155 ->156         0.70364
 This state for optimization and/or second-order correction.
 Total Energy, E(TD-HF/TD-DFT) =  -1947.67486643
 Copying the excited state density for this state as the 1-particle RhoCI density.

 The electronic state is 1-A.
 Alpha  occ. eigenvalues --  -19.18436 -19.18342 -19.15575 -19.14470 -19.10456
 Alpha  occ. eigenvalues --  -19.07208 -14.38206 -14.37431 -14.33918 -14.31106
 Alpha  occ. eigenvalues --  -10.34172 -10.32024 -10.27642 -10.27228 -10.26350
 Alpha  occ. eigenvalues --  -10.26223 -10.25353 -10.24979 -10.24199 -10.24176
 Alpha  occ. eigenvalues --  -10.23648 -10.23182 -10.22911 -10.22295 -10.22134
 Alpha  occ. eigenvalues --  -10.21766 -10.21552 -10.21468 -10.21468 -10.21425
 Alpha  occ. eigenvalues --  -10.21407 -10.21173 -10.20933 -10.20504 -10.19960
 Alpha  occ. eigenvalues --  -10.19909 -10.19148 -10.18600 -10.18359 -10.18135
 Alpha  occ. eigenvalues --  -10.17753 -10.17650 -10.15958  -1.11035  -1.07257
 Alpha  occ. eigenvalues --   -1.03030  -1.01696  -0.99529  -0.99020  -0.98648
 Alpha  occ. eigenvalues --   -0.96096  -0.93604  -0.90677  -0.85661  -0.82619
 Alpha  occ. eigenvalues --   -0.82378  -0.80796  -0.80020  -0.79246  -0.78124
 Alpha  occ. eigenvalues --   -0.76408  -0.75763  -0.75186  -0.74643  -0.72952
 Alpha  occ. eigenvalues --   -0.71846  -0.70792  -0.70501  -0.67612  -0.67177
 Alpha  occ. eigenvalues --   -0.65943  -0.65316  -0.62661  -0.61092  -0.58876
 Alpha  occ. eigenvalues --   -0.58494  -0.58370  -0.58121  -0.57689  -0.56912
 Alpha  occ. eigenvalues --   -0.55121  -0.54647  -0.53799  -0.53509  -0.52867
 Alpha  occ. eigenvalues --   -0.52252  -0.51826  -0.51393  -0.50215  -0.49783
 Alpha  occ. eigenvalues --   -0.49517  -0.49272  -0.49151  -0.48521  -0.47795
 Alpha  occ. eigenvalues --   -0.47687  -0.47175  -0.46209  -0.46099  -0.45352
 Alpha  occ. eigenvalues --   -0.45334  -0.44962  -0.44332  -0.44030  -0.43625
 Alpha  occ. eigenvalues --   -0.43244  -0.42673  -0.42057  -0.42018  -0.41927
 Alpha  occ. eigenvalues --   -0.41715  -0.41359  -0.40878  -0.40721  -0.40652
 Alpha  occ. eigenvalues --   -0.40374  -0.40230  -0.39707  -0.39504  -0.39212
 Alpha  occ. eigenvalues --   -0.39161  -0.38801  -0.38648  -0.38539  -0.37965
 Alpha  occ. eigenvalues --   -0.37767  -0.37445  -0.37041  -0.36863  -0.36700
 Alpha  occ. eigenvalues --   -0.36468  -0.35893  -0.34957  -0.34684  -0.34052
 Alpha  occ. eigenvalues --   -0.33654  -0.32993  -0.32733  -0.32536  -0.31725
 Alpha  occ. eigenvalues --   -0.30331  -0.30160  -0.29364  -0.29160  -0.28737
 Alpha  occ. eigenvalues --   -0.28040  -0.27661  -0.24801  -0.24387  -0.23161
 Alpha  occ. eigenvalues --   -0.22772  -0.22744  -0.22525  -0.21574  -0.18918
 Alpha virt. eigenvalues --   -0.13525  -0.08694  -0.03997  -0.03953  -0.03554
 Alpha virt. eigenvalues --    0.00395   0.00715   0.01065   0.01483   0.02148
 Alpha virt. eigenvalues --    0.02521   0.02961   0.03661   0.04301   0.04571

 Mulliken charges:
               1
     1  O   -0.229022
     2  O   -0.212136
     3  O   -0.141737
     4  O   -0.336945
     5  O   -0.215419
     6  O   -0.275985
     7  N   -0.085570
     8  N   -0.179489
     9  N   -0.123994
    10  N   -0.345329
    11  C    0.141448
    12  C   -0.040946
    13  C    0.033320
    14  C   -0.100286
    15  C   -0.098022
    16  C   -0.055357
    17  C   -0.169718
    18  C    0.152978
    19  C   -0.075142
    20  C   -0.120817
    21  C    0.061800
    22  C    0.062488
    23  C   -0.067201
    24  C    0.158684
    25  C   -0.052197
    26  C   -0.074440
    27  C   -0.003312
    28  C    0.226602
    29  C    0.072069
    30  C   -0.075037
    31  C    0.004447
    32  C    0.046735
    33  C   -0.119085
    34  C    0.138322
    35  C    0.055546
    36  C   -0.062361
    37  C    0.196671
    38  C    0.077386
    39  C   -0.155046
    40  C    0.184955
    41  C   -0.067214
    42  C    0.091870
    43  C   -0.072836
    44  H    0.039762
    45  H    0.018625
    46  H    0.038929
    47  H    0.132422
    48  H    0.183577
    49  H    0.018213
    50  H   -0.028170
    51  H    0.066996
    52  H   -0.003972
    53  H   -0.032914
    54  H   -0.011571
    55  H    0.038356
    56  H    0.037876
    57  H    0.050151
    58  H    0.028944
    59  H   -0.002188
    60  H    0.229895
    61  H    0.028854
    62  H    0.074084
    63  H    0.076807
    64  H    0.063028
    65  H    0.069615
    66  H   -0.039133
    67  H    0.025747
    68  H    0.047141
    69  H   -0.006460
    70  H    0.060048
    71  H    0.029685
    72  H    0.171353
    73  H    0.049872
    74  H    0.021544
    75  H    0.003500
    76  H    0.050154
    77  H    0.236976
    78  H    0.040862
    79  H    0.040712
 Sum of Mulliken charges =  -0.00000

 Dipole moment (field-independent basis, Debye):
    X=              4.9617    Y=              3.4187    Z=             -1.8186  Tot=              6.2940
 Quadrupole moment (field-independent basis, Debye-Ang):
   XX=           -239.7557   YY=           -246.4139   ZZ=           -257.5707
   XY=             -4.1611   XZ=            -17.7436   YZ=            -14.3139

 Normal termination of Gaussian 16 at Tue Jul 30 16:47:13 2019.
