 Gaussian 16, Revision A.03,
 Gaussian 16:  ES64L-G16RevA.03 25-Dec-2016

 --------------------------
 # td=(NStates=1) B3LYP/SVP
 --------------------------

 --
 TD
 --
 Symbolic Z-matrix:
 Charge =  0 Multiplicity = 1

                         Standard orientation:
 ---------------------------------------------------------------------
 Center     Atomic      Atomic             Coordinates (Angstroms)
 Number     Number       Type             X           Y           Z
 ---------------------------------------------------------------------
      1          8           0        5.377945   -0.195338   -3.325387
      2          8           0       -2.968607   -2.877320    3.366786
      3          8           0       -3.429505   -0.617427    2.937470
      4          8           0       -1.427149    7.272269    1.310321
      5          8           0       -0.418633    6.828492   -0.629201
      6          8           0       -1.862516   -3.954629    0.100465
      7          7           0        2.344181    0.848816    0.584885
      8          7           0        4.376901   -0.600445   -1.338369
      9          7           0       -1.891477    0.660648   -0.219394
     10          7           0       -2.633291   -1.788214   -0.393193
     11          6           0        4.805509   -1.400447   -0.081052
     12          6           0        4.460839   -0.350884    1.118665
     13          6           0        2.937921   -0.169039    1.308079
     14          6           0        1.997084   -0.763653    2.103078
     15          6           0        0.725574   -0.096758    1.872292
     16          6           0        1.005397    0.861839    0.867261
     17          6           0        6.256720   -1.423622   -0.216039
     18          6           0       -0.564870   -0.261878    2.595811
     19          6           0        6.691406   -0.908135   -1.455664
     20          6           0        0.136210    1.987822    0.392912
     21          6           0       -1.157244    1.744091   -0.213565
     22          6           0        5.477727   -0.467254   -2.179800
     23          6           0       -1.995654    2.855852   -0.758909
     24          6           0        2.149797   -1.788702    3.132136
     25          6           0        7.172702   -1.895208    0.850160
     26          6           0       -3.249571    2.347461   -1.137128
     27          6           0       -1.212370   -1.651874    2.649667
     28          6           0       -3.072865    0.915554   -0.951994
     29          6           0       -1.607028    4.219947   -0.867338
     30          6           0        7.990011   -0.753768   -1.984722
     31          6           0       -1.650180    4.973098    0.420792
     32          6           0       -4.361177    3.133918   -1.765375
     33          6           0       -4.046158   -0.022858   -1.315216
     34          6           0       -2.705698   -1.594456    2.955902
     35          6           0       -3.837066   -1.415145   -1.107938
     36          6           0        9.190917   -0.567099   -1.331881
     37          6           0       -1.113073    6.434055    0.311807
     38          6           0       -4.607560   -2.513462   -1.575903
     39          6           0       -3.945911   -3.617536   -1.126132
     40          6           0       -2.703922   -3.223433   -0.338903
     41          6           0       -5.873180   -2.401824   -2.312874
     42          6           0       -4.261705   -5.106123   -1.295920
     43          6           0       -6.720921   -3.279099   -2.763371
     44          1           0        4.329623   -2.292547    0.260926
     45          1           0        4.967766    0.522229    1.180220
     46          1           0        4.809875   -0.990716    2.002879
     47          1           0        2.922208    1.496589   -0.057922
     48          1           0        3.509596   -0.756644   -1.710124
     49          1           0       -0.430315    0.109386    3.714770
     50          1           0       -1.252491    0.526120    2.067332
     51          1           0        0.686956    2.944407    0.043830
     52          1           0        3.077701   -2.004124    3.239850
     53          1           0        1.933573   -1.358229    4.138198
     54          1           0        1.394903   -2.629949    3.021240
     55          1           0        6.369361   -2.658259    1.152699
     56          1           0        7.333064   -1.115615    1.628857
     57          1           0        8.417275   -2.106239    0.516163
     58          1           0       -1.201633   -2.030067    1.475812
     59          1           0       -0.699392   -2.432120    3.185579
     60          1           0       -1.585009   -0.365783   -0.067717
     61          1           0       -2.065951    4.946524   -1.752983
     62          1           0       -0.434225    4.281567   -1.154280
     63          1           0        7.923133   -0.550180   -2.969554
     64          1           0       -0.992764    4.500437    1.391491
     65          1           0       -2.640570    5.023047    0.789095
     66          1           0       -4.102842    4.063197   -1.825626
     67          1           0       -5.260164    3.016247   -1.142341
     68          1           0       -4.924347    2.765120   -2.747794
     69          1           0       -5.014964    0.283769   -1.842553
     70          1           0        9.477359   -0.733933   -0.302843
     71          1           0       10.054378   -0.519044   -1.883636
     72          1           0       -3.986558   -2.876398    3.579725
     73          1           0       -5.963571   -1.449669   -2.562064
     74          1           0       -5.247040   -5.554606   -0.661850
     75          1           0       -4.095917   -5.378523   -2.269183
     76          1           0       -3.381624   -5.798267   -0.872224
     77          1           0       -1.077825    8.174161    0.958268
     78          1           0       -7.640158   -2.944830   -3.439823
     79          1           0       -6.625854   -4.409348   -2.398604
 ---------------------------------------------------------------------

 SCF Done:  E(RB3LYP) =  -1947.79517993     A.U. after   17 cycles

 Excitation energies and oscillator strengths:

 Excited State   1:      Singlet-A      1.8796 eV  659.64 nm  f=0.3303  <S**2>=0.000
     154 ->156         0.16897
     155 ->156         0.67215
     155 <-156        -0.12108
 This state for optimization and/or second-order correction.
 Total Energy, E(TD-HF/TD-DFT) =  -1947.72610733
 Copying the excited state density for this state as the 1-particle RhoCI density.

 The electronic state is 1-A.
 Alpha  occ. eigenvalues --  -19.19656 -19.17489 -19.13029 -19.11926 -19.10691
 Alpha  occ. eigenvalues --  -19.09988 -14.38135 -14.36816 -14.34580 -14.28906
 Alpha  occ. eigenvalues --  -10.32911 -10.30726 -10.27918 -10.26239 -10.25844
 Alpha  occ. eigenvalues --  -10.25265 -10.24754 -10.23628 -10.22966 -10.22875
 Alpha  occ. eigenvalues --  -10.22853 -10.22755 -10.22494 -10.22483 -10.22290
 Alpha  occ. eigenvalues --  -10.21947 -10.21392 -10.21351 -10.20667 -10.20420
 Alpha  occ. eigenvalues --  -10.20363 -10.20310 -10.20039 -10.19998 -10.19821
 Alpha  occ. eigenvalues --  -10.19769 -10.19733 -10.19492 -10.18956 -10.18707
 Alpha  occ. eigenvalues --  -10.18689 -10.18240 -10.17903  -1.10154  -1.06712
 Alpha  occ. eigenvalues --   -1.04329  -1.02263  -0.99798  -0.99191  -0.98921
 Alpha  occ. eigenvalues --   -0.97724  -0.93079  -0.89919  -0.83538  -0.82889
 Alpha  occ. eigenvalues --   -0.81013  -0.80685  -0.80159  -0.79592  -0.77759
 Alpha  occ. eigenvalues --   -0.77183  -0.75332  -0.74930  -0.74053  -0.72650
 Alpha  occ. eigenvalues --   -0.71696  -0.71410  -0.70425  -0.68837  -0.68045
 Alpha  occ. eigenvalues --   -0.66405  -0.65359  -0.63316  -0.62600  -0.60347
 Alpha  occ. eigenvalues --   -0.59837  -0.58205  -0.57639  -0.57068  -0.56788
 Alpha  occ. eigenvalues --   -0.55312  -0.54963  -0.54760  -0.53915  -0.53336
 Alpha  occ. eigenvalues --   -0.51743  -0.51424  -0.50890  -0.49980  -0.49852
 Alpha  occ. eigenvalues --   -0.49402  -0.48821  -0.48200  -0.47772  -0.47027
 Alpha  occ. eigenvalues --   -0.46887  -0.46365  -0.46103  -0.45725  -0.45348
 Alpha  occ. eigenvalues --   -0.45148  -0.44903  -0.44448  -0.44208  -0.43776
 Alpha  occ. eigenvalues --   -0.43753  -0.43582  -0.43117  -0.42664  -0.42532
 Alpha  occ. eigenvalues --   -0.42341  -0.41692  -0.41666  -0.41191  -0.40965
 Alpha  occ. eigenvalues --   -0.40736  -0.40509  -0.40254  -0.39945  -0.39790
 Alpha  occ. eigenvalues --   -0.39507  -0.39243  -0.38941  -0.38645  -0.38385
 Alpha  occ. eigenvalues --   -0.38112  -0.37880  -0.37381  -0.36729  -0.36592
 Alpha  occ. eigenvalues --   -0.36431  -0.36089  -0.35374  -0.34757  -0.33271
 Alpha  occ. eigenvalues --   -0.33151  -0.32729  -0.32548  -0.31732  -0.31483
 Alpha  occ. eigenvalues --   -0.31263  -0.30991  -0.28627  -0.28228  -0.27977
 Alpha  occ. eigenvalues --   -0.27278  -0.26977  -0.25633  -0.25147  -0.24245
 Alpha  occ. eigenvalues --   -0.23756  -0.23505  -0.23294  -0.21837  -0.18993
 Alpha virt. eigenvalues --   -0.11597  -0.06771  -0.06402  -0.00891  -0.00404
 Alpha virt. eigenvalues --   -0.00046   0.01599   0.01833   0.02620   0.02848
 Alpha virt. eigenvalues --    0.03860   0.04078   0.04297   0.04619   0.04834

 Mulliken charges:
               1
     1  O   -0.179619
     2  O   -0.227286
     3  O   -0.221870
     4  O   -0.193066
     5  O   -0.262594
     6  O   -0.181434
     7  N   -0.099491
     8  N   -0.190421
     9  N   -0.056237
    10  N   -0.407673
    11  C    0.076764
    12  C    0.168026
    13  C   -0.085357
    14  C   -0.148157
    15  C   -0.089994
    16  C    0.015270
    17  C   -0.116898
    18  C    0.047446
    19  C   -0.038120
    20  C   -0.086163
    21  C    0.076284
    22  C    0.122831
    23  C   -0.037408
    24  C    0.206626
    25  C   -0.011150
    26  C   -0.114347
    27  C   -0.069155
    28  C    0.146729
    29  C   -0.053785
    30  C    0.034879
    31  C   -0.025994
    32  C    0.172972
    33  C   -0.151859
    34  C    0.170545
    35  C    0.111901
    36  C   -0.009533
    37  C    0.137197
    38  C    0.064340
    39  C   -0.217987
    40  C    0.187827
    41  C    0.086908
    42  C    0.035270
    43  C   -0.074706
    44  H    0.024071
    45  H   -0.023534
    46  H   -0.006313
    47  H    0.152957
    48  H    0.101467
    49  H    0.020443
    50  H    0.042425
    51  H    0.018998
    52  H   -0.083416
    53  H    0.003680
    54  H    0.044990
    55  H    0.037419
    56  H    0.055849
    57  H    0.076944
    58  H    0.100847
    59  H    0.023282
    60  H    0.195518
    61  H    0.063173
    62  H    0.041524
    63  H   -0.031790
    64  H    0.081250
    65  H    0.015809
    66  H   -0.044208
    67  H    0.017449
    68  H    0.035642
    69  H    0.003905
    70  H    0.005872
    71  H    0.004237
    72  H    0.194647
    73  H   -0.087524
    74  H    0.064554
    75  H    0.010345
    76  H    0.026562
    77  H    0.210227
    78  H    0.046707
    79  H    0.044478
 Sum of Mulliken charges =  -0.00000

 Dipole moment (field-independent basis, Debye):
    X=             -0.1131    Y=              2.1566    Z=              2.4907  Tot=              3.2966
 Quadrupole moment (field-independent basis, Debye-Ang):
   XX=           -216.5735   YY=           -243.1103   ZZ=           -264.9373
   XY=             -9.5484   XZ=             33.2623   YZ=              1.6966

 Normal termination of Gaussian 16 at Thu Oct  3 08:35:11 2019.
