 Gaussian 16, Revision A.03,
 Gaussian 16:  ES64L-G16RevA.03 25-Dec-2016

 --------------------------
 # td=(NStates=1) B3LYP/SVP
 --------------------------

 --
 TD
 --
 Symbolic Z-matrix:
 Charge =  0 Multiplicity = 1

                         Standard orientation:
 ---------------------------------------------------------------------
 Center     Atomic      Atomic             Coordinates (Angstroms)
 Number     Number       Type             X           Y           Z
 ---------------------------------------------------------------------
      1          8           0        5.301128    0.030606   -3.222600
      2          8           0       -3.019648   -2.933935    3.105318
      3          8           0       -3.238804   -0.675877    3.091257
      4          8           0       -1.868522    7.205832    1.418377
      5          8           0       -0.447894    6.907439   -0.409849
      6          8           0       -1.694310   -3.950658    0.044727
      7          7           0        2.437345    0.892636    0.628674
      8          7           0        4.358945   -0.610316   -1.278287
      9          7           0       -1.829175    0.651598   -0.380665
     10          7           0       -2.680338   -1.797174   -0.395121
     11          6           0        4.752825   -1.168887   -0.022771
     12          6           0        4.553036   -0.328747    1.263479
     13          6           0        3.031111   -0.022434    1.439776
     14          6           0        1.957158   -0.623174    2.157753
     15          6           0        0.733521   -0.074543    1.775395
     16          6           0        1.000830    0.908615    0.806239
     17          6           0        6.248737   -1.270574   -0.130615
     18          6           0       -0.541083   -0.150550    2.498115
     19          6           0        6.668908   -0.867624   -1.337657
     20          6           0        0.294436    1.898094    0.087022
     21          6           0       -1.069160    1.777672   -0.358616
     22          6           0        5.417395   -0.446018   -2.196693
     23          6           0       -2.009934    2.858922   -0.899105
     24          6           0        2.172663   -1.787966    2.983032
     25          6           0        7.181831   -1.975903    0.821212
     26          6           0       -3.150895    2.432205   -1.413036
     27          6           0       -1.093298   -1.596405    2.500466
     28          6           0       -3.044294    0.912496   -1.061674
     29          6           0       -1.483864    4.300121   -0.931745
     30          6           0        7.963101   -0.760470   -1.980430
     31          6           0       -1.807265    5.087734    0.374509
     32          6           0       -4.380827    3.017530   -1.880385
     33          6           0       -4.042027   -0.021814   -1.306414
     34          6           0       -2.565188   -1.662901    2.935870
     35          6           0       -3.777710   -1.465513   -1.043505
     36          6           0        9.195376   -0.709661   -1.457379
     37          6           0       -1.295912    6.480555    0.417892
     38          6           0       -4.622959   -2.634101   -1.383362
     39          6           0       -3.938087   -3.752254   -1.061720
     40          6           0       -2.673078   -3.295132   -0.403616
     41          6           0       -6.027474   -2.533556   -1.932929
     42          6           0       -4.266324   -5.198502   -1.165353
     43          6           0       -6.708519   -3.542347   -2.545111
     44          1           0        4.248008   -2.156096    0.301299
     45          1           0        5.149724    0.726011    1.306503
     46          1           0        4.889267   -0.889317    2.193249
     47          1           0        2.877863    1.818987    0.141867
     48          1           0        3.483907   -0.671836   -1.681294
     49          1           0       -0.473426    0.128307    3.476226
     50          1           0       -1.198049    0.651875    2.096530
     51          1           0        0.608629    3.108257   -0.205773
     52          1           0        3.055321   -1.989241    3.549012
     53          1           0        1.567224   -1.570251    3.906109
     54          1           0        1.783244   -2.879534    2.518503
     55          1           0        6.350644   -2.736895    1.524716
     56          1           0        7.796688   -1.242457    1.426238
     57          1           0        7.803365   -2.622345    0.380082
     58          1           0       -1.013176   -2.037773    1.319398
     59          1           0       -0.367404   -2.258772    3.103140
     60          1           0       -1.655221   -0.398581   -0.225932
     61          1           0       -2.043806    4.999364   -1.783838
     62          1           0       -0.401770    4.266176   -1.088020
     63          1           0        7.983256   -0.707758   -2.959616
     64          1           0       -1.468550    4.339274    1.237484
     65          1           0       -2.899831    5.186033    0.486295
     66          1           0       -4.125888    4.111278   -2.201149
     67          1           0       -5.292314    2.850094   -1.304861
     68          1           0       -4.719015    2.564646   -2.685807
     69          1           0       -4.926802    0.316287   -1.818511
     70          1           0        9.291948   -0.869066   -0.369459
     71          1           0       10.082885   -0.848160   -2.099581
     72          1           0       -3.863340   -2.875705    3.734100
     73          1           0       -6.407300   -1.512295   -1.633074
     74          1           0       -5.329143   -5.358591   -0.897593
     75          1           0       -4.005127   -5.382140   -2.271297
     76          1           0       -3.547138   -5.676893   -0.650605
     77          1           0       -1.438463    8.149946    1.320535
     78          1           0       -7.698648   -3.285018   -3.126019
     79          1           0       -6.398798   -4.581490   -2.550770
 ---------------------------------------------------------------------

 SCF Done:  E(RB3LYP) =  -1947.82601587     A.U. after   16 cycles

 Excitation energies and oscillator strengths:

 Excited State   1:      Singlet-A      1.8730 eV  661.94 nm  f=0.3616  <S**2>=0.000
     155 ->156         0.70690
     155 <-156        -0.11001
 This state for optimization and/or second-order correction.
 Total Energy, E(TD-HF/TD-DFT) =  -1947.75718301
 Copying the excited state density for this state as the 1-particle RhoCI density.

 The electronic state is 1-A.
 Alpha  occ. eigenvalues --  -19.20029 -19.16837 -19.13168 -19.12122 -19.11300
 Alpha  occ. eigenvalues --  -19.10962 -14.37846 -14.35868 -14.33930 -14.30064
 Alpha  occ. eigenvalues --  -10.32946 -10.30216 -10.28306 -10.28151 -10.25299
 Alpha  occ. eigenvalues --  -10.24517 -10.24341 -10.24007 -10.23037 -10.22639
 Alpha  occ. eigenvalues --  -10.22542 -10.22351 -10.21970 -10.21865 -10.21620
 Alpha  occ. eigenvalues --  -10.21550 -10.21474 -10.21191 -10.20961 -10.20743
 Alpha  occ. eigenvalues --  -10.20667 -10.20176 -10.19856 -10.19625 -10.19441
 Alpha  occ. eigenvalues --  -10.19414 -10.19387 -10.19273 -10.19208 -10.18728
 Alpha  occ. eigenvalues --  -10.18380 -10.18142 -10.17235  -1.08636  -1.07271
 Alpha  occ. eigenvalues --   -1.06802  -1.00245  -0.99237  -0.98444  -0.96512
 Alpha  occ. eigenvalues --   -0.96072  -0.94148  -0.91878  -0.82386  -0.82351
 Alpha  occ. eigenvalues --   -0.81163  -0.80909  -0.79926  -0.78888  -0.77429
 Alpha  occ. eigenvalues --   -0.76747  -0.75667  -0.74797  -0.73913  -0.72752
 Alpha  occ. eigenvalues --   -0.70869  -0.70589  -0.70440  -0.68155  -0.67039
 Alpha  occ. eigenvalues --   -0.65272  -0.65119  -0.63518  -0.60674  -0.59735
 Alpha  occ. eigenvalues --   -0.58863  -0.58159  -0.57624  -0.56701  -0.56510
 Alpha  occ. eigenvalues --   -0.55474  -0.54711  -0.54245  -0.53838  -0.53036
 Alpha  occ. eigenvalues --   -0.51432  -0.51269  -0.50359  -0.49817  -0.48892
 Alpha  occ. eigenvalues --   -0.48525  -0.48234  -0.47884  -0.47395  -0.47222
 Alpha  occ. eigenvalues --   -0.46488  -0.46321  -0.45945  -0.45572  -0.45321
 Alpha  occ. eigenvalues --   -0.44799  -0.44587  -0.44162  -0.44077  -0.43823
 Alpha  occ. eigenvalues --   -0.43597  -0.43455  -0.43300  -0.42720  -0.42619
 Alpha  occ. eigenvalues --   -0.41857  -0.41660  -0.41422  -0.41040  -0.40730
 Alpha  occ. eigenvalues --   -0.40623  -0.40445  -0.40068  -0.39793  -0.39665
 Alpha  occ. eigenvalues --   -0.39486  -0.39058  -0.38610  -0.38514  -0.38187
 Alpha  occ. eigenvalues --   -0.37892  -0.37641  -0.37290  -0.36166  -0.35988
 Alpha  occ. eigenvalues --   -0.35784  -0.35625  -0.34646  -0.33991  -0.33956
 Alpha  occ. eigenvalues --   -0.33504  -0.32993  -0.32398  -0.31887  -0.31550
 Alpha  occ. eigenvalues --   -0.30629  -0.30216  -0.28695  -0.28368  -0.28186
 Alpha  occ. eigenvalues --   -0.26645  -0.26403  -0.26285  -0.26156  -0.24672
 Alpha  occ. eigenvalues --   -0.24464  -0.23965  -0.23473  -0.22694  -0.17953
 Alpha virt. eigenvalues --   -0.10568  -0.06176  -0.05313  -0.01884  -0.01529
 Alpha virt. eigenvalues --    0.00622   0.01438   0.01599   0.02480   0.02745
 Alpha virt. eigenvalues --    0.03270   0.03473   0.03978   0.04351   0.04875

 Mulliken charges:
               1
     1  O   -0.113780
     2  O   -0.233935
     3  O   -0.222716
     4  O   -0.214275
     5  O   -0.271284
     6  O   -0.228581
     7  N   -0.161983
     8  N   -0.175066
     9  N   -0.108910
    10  N   -0.333349
    11  C    0.125642
    12  C    0.097776
    13  C   -0.048186
    14  C   -0.116213
    15  C   -0.073863
    16  C    0.102133
    17  C   -0.181858
    18  C    0.165102
    19  C   -0.044051
    20  C   -0.115933
    21  C    0.029748
    22  C    0.117104
    23  C   -0.096925
    24  C    0.026377
    25  C    0.061740
    26  C   -0.102427
    27  C   -0.146340
    28  C    0.070071
    29  C    0.013834
    30  C    0.029987
    31  C   -0.037698
    32  C    0.193493
    33  C   -0.081641
    34  C    0.169188
    35  C    0.088142
    36  C   -0.026421
    37  C    0.184033
    38  C   -0.003689
    39  C   -0.241635
    40  C    0.209033
    41  C   -0.001116
    42  C    0.171722
    43  C   -0.051765
    44  H    0.031342
    45  H    0.021877
    46  H    0.017230
    47  H    0.168734
    48  H    0.100607
    49  H   -0.026054
    50  H    0.011310
    51  H    0.038401
    52  H   -0.011923
    53  H    0.008362
    54  H    0.061253
    55  H    0.029039
    56  H    0.057640
    57  H    0.011290
    58  H    0.114399
    59  H    0.037411
    60  H    0.182959
    61  H    0.034863
    62  H    0.028519
    63  H   -0.056411
    64  H    0.072134
    65  H    0.035308
    66  H    0.027709
    67  H    0.024207
    68  H   -0.035226
    69  H   -0.041873
    70  H   -0.000475
    71  H    0.032172
    72  H    0.210993
    73  H    0.021513
    74  H    0.046495
    75  H    0.040838
    76  H   -0.012991
    77  H    0.216841
    78  H    0.050333
    79  H    0.029685
 Sum of Mulliken charges =  -0.00000

 Dipole moment (field-independent basis, Debye):
    X=             -1.1725    Y=              0.5461    Z=              2.2358  Tot=              2.5830
 Quadrupole moment (field-independent basis, Debye-Ang):
   XX=           -216.0797   YY=           -240.7634   ZZ=           -256.9088
   XY=             -9.4198   XZ=             28.0570   YZ=              6.4406

 Normal termination of Gaussian 16 at Tue Oct  1 12:37:01 2019.
