 Gaussian 16, Revision A.03,
 Gaussian 16:  ES64L-G16RevA.03 25-Dec-2016

 --------------------------
 # td=(NStates=1) B3LYP/SVP
 --------------------------

 --
 TD
 --
 Symbolic Z-matrix:
 Charge =  0 Multiplicity = 1

                         Standard orientation:
 ---------------------------------------------------------------------
 Center     Atomic      Atomic             Coordinates (Angstroms)
 Number     Number       Type             X           Y           Z
 ---------------------------------------------------------------------
      1          8           0       -3.201631   -1.068556   -2.932338
      2          8           0        3.079602    2.958285    3.159909
      3          8           0        3.722423    1.216900    4.406659
      4          8           0        7.732163   -1.115714   -1.150101
      5          8           0        6.615965   -3.099755   -2.008536
      6          8           0       -2.595336    1.497723    1.659687
      7          7           0       -0.114603   -2.404875    0.712129
      8          7           0       -2.670489   -1.168626   -0.634735
      9          7           0        1.205266    0.209721   -0.647932
     10          7           0       -1.101657    1.476513   -0.106514
     11          6           0       -3.343677   -1.419722    0.539695
     12          6           0       -2.526072   -2.405544    1.442566
     13          6           0       -1.083920   -2.213288    1.601220
     14          6           0       -0.488872   -1.495964    2.752362
     15          6           0        0.866819   -1.340568    2.458034
     16          6           0        1.065518   -1.865921    1.109500
     17          6           0       -4.676780   -1.959865    0.081536
     18          6           0        1.933902   -0.661191    3.320739
     19          6           0       -4.763419   -1.992756   -1.255190
     20          6           0        2.142829   -1.822954    0.206642
     21          6           0        2.151463   -0.806190   -0.732523
     22          6           0       -3.477371   -1.348858   -1.698300
     23          6           0        2.957811   -0.444052   -1.959018
     24          6           0       -1.127419   -1.079078    4.009268
     25          6           0       -5.731710   -2.355789    1.174867
     26          6           0        2.428610    0.783404   -2.435449
     27          6           0        1.994204    0.868169    2.834873
     28          6           0        1.304172    1.134622   -1.668753
     29          6           0        4.159676   -1.367257   -2.267812
     30          6           0       -5.792271   -2.380646   -2.132553
     31          6           0        5.371681   -1.136403   -1.261869
     32          6           0        2.937495    1.335613   -3.745491
     33          6           0        0.392353    2.123893   -1.966431
     34          6           0        2.986937    1.700170    3.515950
     35          6           0       -0.620693    2.299259   -1.025911
     36          6           0       -6.792849   -3.310308   -1.803779
     37          6           0        6.578555   -1.834035   -1.572202
     38          6           0       -1.551918    3.594205   -0.944996
     39          6           0       -2.444594    3.436799   -0.006880
     40          6           0       -2.114762    2.045973    0.665751
     41          6           0       -1.484280    4.668693   -1.964245
     42          6           0       -3.525108    4.330210    0.476228
     43          6           0       -1.970376    5.887296   -1.739576
     44          1           0       -3.363115   -0.513642    1.124558
     45          1           0       -2.731873   -3.303839    0.940348
     46          1           0       -2.935551   -2.432472    2.431658
     47          1           0       -0.127222   -2.957811   -0.188652
     48          1           0       -1.942942   -0.509196   -0.630050
     49          1           0        2.007070   -0.791567    4.403864
     50          1           0        2.988101   -0.978737    2.967304
     51          1           0        2.875868   -2.587976    0.242510
     52          1           0       -1.534323   -1.812931    4.734134
     53          1           0       -0.308337   -0.460183    4.612515
     54          1           0       -1.966998   -0.346088    3.691098
     55          1           0       -5.363847   -1.946504    2.229904
     56          1           0       -5.820784   -3.437674    1.339838
     57          1           0       -6.683371   -1.757702    0.797526
     58          1           0        2.113556    0.809242    1.688503
     59          1           0        1.064869    1.380230    3.083863
     60          1           0        0.430775    0.266530   -0.180408
     61          1           0        4.469887   -1.312205   -3.316919
     62          1           0        3.677888   -2.430172   -2.150836
     63          1           0       -5.842233   -2.112698   -3.109773
     64          1           0        5.012084   -1.418388   -0.048321
     65          1           0        5.428710    0.125893   -1.050687
     66          1           0        3.676237    0.837028   -4.417167
     67          1           0        3.389189    2.356898   -3.479364
     68          1           0        1.908135    1.468811   -4.502247
     69          1           0        0.378113    2.688504   -2.894972
     70          1           0       -6.779357   -3.665596   -0.796579
     71          1           0       -7.407087   -3.568511   -2.522946
     72          1           0        3.490369    3.503746    4.006205
     73          1           0       -0.937768    4.593262   -2.928502
     74          1           0       -3.937829    4.773891   -0.442323
     75          1           0       -4.297893    3.649712    0.947326
     76          1           0       -3.409440    5.078729    1.345921
     77          1           0        8.556576   -1.612854   -1.025541
     78          1           0       -1.786033    6.663137   -2.441221
     79          1           0       -2.882135    6.053443   -0.852964
 ---------------------------------------------------------------------

 SCF Done:  E(RB3LYP) =  -1947.80758945     A.U. after   22 cycles

 Excitation energies and oscillator strengths:

 Excited State   1:      Singlet-A      0.9395 eV 1319.71 nm  f=0.0024  <S**2>=0.000
     155 ->156         0.70460
 This state for optimization and/or second-order correction.
 Total Energy, E(TD-HF/TD-DFT) =  -1947.77306430
 Copying the excited state density for this state as the 1-particle RhoCI density.

 The electronic state is 1-A.
 Alpha  occ. eigenvalues --  -19.19358 -19.19021 -19.14032 -19.13259 -19.10790
 Alpha  occ. eigenvalues --  -19.06923 -14.38372 -14.37021 -14.33056 -14.31527
 Alpha  occ. eigenvalues --  -10.34933 -10.30988 -10.29449 -10.26854 -10.26454
 Alpha  occ. eigenvalues --  -10.26190 -10.26004 -10.25964 -10.24162 -10.24004
 Alpha  occ. eigenvalues --  -10.23776 -10.23423 -10.21925 -10.21338 -10.21267
 Alpha  occ. eigenvalues --  -10.21199 -10.21157 -10.21130 -10.20834 -10.20558
 Alpha  occ. eigenvalues --  -10.20545 -10.20521 -10.20485 -10.20479 -10.20097
 Alpha  occ. eigenvalues --  -10.19834 -10.18770 -10.18601 -10.18481 -10.18411
 Alpha  occ. eigenvalues --  -10.18006 -10.17740 -10.17114  -1.08990  -1.06410
 Alpha  occ. eigenvalues --   -1.03136  -1.00640  -0.98947  -0.98079  -0.97555
 Alpha  occ. eigenvalues --   -0.96831  -0.93667  -0.91894  -0.83757  -0.83472
 Alpha  occ. eigenvalues --   -0.81937  -0.81337  -0.79769  -0.79493  -0.79088
 Alpha  occ. eigenvalues --   -0.77116  -0.75982  -0.75775  -0.74487  -0.73225
 Alpha  occ. eigenvalues --   -0.70705  -0.70576  -0.70092  -0.69362  -0.68105
 Alpha  occ. eigenvalues --   -0.66697  -0.66092  -0.63791  -0.61741  -0.61289
 Alpha  occ. eigenvalues --   -0.61064  -0.59139  -0.58545  -0.58137  -0.57003
 Alpha  occ. eigenvalues --   -0.56793  -0.56299  -0.55422  -0.53644  -0.53418
 Alpha  occ. eigenvalues --   -0.52534  -0.52005  -0.51557  -0.50526  -0.49887
 Alpha  occ. eigenvalues --   -0.49537  -0.48753  -0.48579  -0.48141  -0.47822
 Alpha  occ. eigenvalues --   -0.47111  -0.46886  -0.46525  -0.46489  -0.46083
 Alpha  occ. eigenvalues --   -0.45615  -0.44971  -0.44625  -0.44369  -0.44151
 Alpha  occ. eigenvalues --   -0.43453  -0.43306  -0.43126  -0.42741  -0.42418
 Alpha  occ. eigenvalues --   -0.41933  -0.41521  -0.41365  -0.41033  -0.40662
 Alpha  occ. eigenvalues --   -0.40373  -0.40103  -0.39758  -0.39640  -0.39548
 Alpha  occ. eigenvalues --   -0.39171  -0.39017  -0.38651  -0.38467  -0.37921
 Alpha  occ. eigenvalues --   -0.37634  -0.37070  -0.36445  -0.36269  -0.36157
 Alpha  occ. eigenvalues --   -0.35596  -0.35157  -0.34847  -0.34617  -0.34531
 Alpha  occ. eigenvalues --   -0.34347  -0.33448  -0.32280  -0.31831  -0.31436
 Alpha  occ. eigenvalues --   -0.30803  -0.30466  -0.29697  -0.28512  -0.28469
 Alpha  occ. eigenvalues --   -0.27366  -0.26379  -0.26257  -0.24603  -0.23938
 Alpha  occ. eigenvalues --   -0.23248  -0.22698  -0.22568  -0.22235  -0.18588
 Alpha virt. eigenvalues --   -0.12571  -0.07426  -0.05892  -0.04556  -0.01881
 Alpha virt. eigenvalues --   -0.00438   0.01236   0.01875   0.02121   0.02496
 Alpha virt. eigenvalues --    0.02603   0.03563   0.04024   0.04707   0.04940

 Mulliken charges:
               1
     1  O   -0.325740
     2  O   -0.209092
     3  O   -0.284628
     4  O   -0.238666
     5  O   -0.317160
     6  O   -0.201062
     7  N   -0.002905
     8  N   -0.099406
     9  N   -0.014405
    10  N   -0.286743
    11  C    0.048422
    12  C    0.287930
    13  C   -0.145489
    14  C   -0.114328
    15  C   -0.040612
    16  C   -0.044748
    17  C   -0.174842
    18  C    0.075686
    19  C    0.055058
    20  C   -0.144661
    21  C    0.129289
    22  C    0.119442
    23  C   -0.083899
    24  C    0.008611
    25  C    0.015357
    26  C   -0.122202
    27  C   -0.031349
    28  C    0.159755
    29  C    0.110519
    30  C   -0.058664
    31  C   -0.115499
    32  C   -0.007479
    33  C   -0.117202
    34  C    0.132067
    35  C    0.108853
    36  C    0.054168
    37  C    0.256148
    38  C    0.051073
    39  C   -0.198932
    40  C    0.188351
    41  C   -0.040314
    42  C    0.045782
    43  C   -0.064724
    44  H    0.027463
    45  H   -0.062715
    46  H   -0.023992
    47  H    0.138103
    48  H    0.116254
    49  H    0.027524
    50  H   -0.002403
    51  H    0.001215
    52  H    0.028458
    53  H    0.016327
    54  H    0.046079
    55  H    0.033592
    56  H    0.050917
    57  H    0.065830
    58  H    0.056490
    59  H    0.037020
    60  H    0.083193
    61  H    0.022307
    62  H    0.051876
    63  H   -0.038915
    64  H    0.108706
    65  H    0.077665
    66  H    0.045960
    67  H    0.045514
    68  H    0.060030
    69  H    0.005726
    70  H   -0.001497
    71  H   -0.020119
    72  H    0.240266
    73  H    0.005271
    74  H    0.040337
    75  H    0.022698
    76  H    0.060107
    77  H    0.199686
    78  H    0.013977
    79  H    0.059296
 Sum of Mulliken charges =  -0.00000

 Dipole moment (field-independent basis, Debye):
    X=              2.2520    Y=              3.6153    Z=             -0.5667  Tot=              4.2969
 Quadrupole moment (field-independent basis, Debye-Ang):
   XX=           -240.7817   YY=           -237.9333   ZZ=           -264.8575
   XY=              9.8539   XZ=            -19.3563   YZ=             -9.6929

 Normal termination of Gaussian 16 at Mon Jul 29 07:51:21 2019.
