 Gaussian 16, Revision A.03,
 Gaussian 16:  ES64L-G16RevA.03 25-Dec-2016

 --------------------------
 # td=(NStates=1) B3LYP/SVP
 --------------------------

 --
 TD
 --
 Symbolic Z-matrix:
 Charge =  0 Multiplicity = 1

                         Standard orientation:
 ---------------------------------------------------------------------
 Center     Atomic      Atomic             Coordinates (Angstroms)
 Number     Number       Type             X           Y           Z
 ---------------------------------------------------------------------
      1          8           0        5.397883   -0.334158   -3.350423
      2          8           0       -3.247116   -2.762238    3.301128
      3          8           0       -3.490855   -0.575994    2.963813
      4          8           0       -1.399492    7.046104    1.445004
      5          8           0       -0.475477    6.980719   -0.595779
      6          8           0       -1.563065   -3.825780    0.110159
      7          7           0        2.260418    1.000999    0.577657
      8          7           0        4.293640   -0.555654   -1.244887
      9          7           0       -1.885241    0.810776   -0.421207
     10          7           0       -2.602990   -1.837336   -0.475679
     11          6           0        4.658568   -1.258847    0.001542
     12          6           0        4.256038   -0.317857    1.259898
     13          6           0        2.820893    0.079760    1.375496
     14          6           0        1.867720   -0.589596    2.149175
     15          6           0        0.631611    0.041213    1.924021
     16          6           0        0.948160    1.049877    0.894692
     17          6           0        6.140804   -1.457770   -0.117358
     18          6           0       -0.641091   -0.162172    2.619968
     19          6           0        6.529658   -0.891878   -1.287311
     20          6           0        0.111681    2.065180    0.155134
     21          6           0       -1.151061    1.871437   -0.269723
     22          6           0        5.362123   -0.517045   -2.124119
     23          6           0       -1.935271    2.948400   -1.021241
     24          6           0        2.189385   -1.653417    3.057997
     25          6           0        6.883804   -2.061496    1.027933
     26          6           0       -3.073191    2.386511   -1.443220
     27          6           0       -1.314225   -1.595952    2.678612
     28          6           0       -3.065700    0.980726   -1.133124
     29          6           0       -1.438564    4.369857   -1.049821
     30          6           0        7.935211   -0.957937   -1.968746
     31          6           0       -1.531872    5.030535    0.326417
     32          6           0       -4.144167    3.095509   -2.145967
     33          6           0       -4.015774   -0.067543   -1.484719
     34          6           0       -2.751066   -1.546492    3.052994
     35          6           0       -3.722404   -1.536838   -1.125952
     36          6           0        9.163525   -0.951834   -1.398326
     37          6           0       -0.955674    6.455997    0.374033
     38          6           0       -4.556016   -2.690340   -1.415047
     39          6           0       -3.799270   -3.721999   -1.022528
     40          6           0       -2.468991   -3.177415   -0.424851
     41          6           0       -5.846749   -2.608467   -2.102878
     42          6           0       -3.997470   -5.225982   -1.110736
     43          6           0       -6.588439   -3.746072   -2.513340
     44          1           0        4.088079   -2.362913    0.195601
     45          1           0        4.883567    0.702995    1.232399
     46          1           0        4.691595   -0.765700    2.173703
     47          1           0        2.723724    1.608355    0.013212
     48          1           0        3.436276   -0.777933   -1.643562
     49          1           0       -0.375406   -0.017420    3.815494
     50          1           0       -1.446514    0.648888    2.389172
     51          1           0        0.724803    3.111586    0.346551
     52          1           0        3.301564   -1.464058    3.361322
     53          1           0        1.447734   -1.504109    3.980016
     54          1           0        2.234280   -2.673543    2.453201
     55          1           0        6.392463   -2.696235    1.579860
     56          1           0        7.068342   -1.116833    1.629014
     57          1           0        7.650560   -2.575334    0.851207
     58          1           0       -1.309611   -2.264656    1.578070
     59          1           0       -0.610897   -2.235893    3.325963
     60          1           0       -1.665486   -0.317325   -0.265319
     61          1           0       -2.339854    4.929035   -1.717980
     62          1           0       -0.432705    4.299584   -1.594334
     63          1           0        7.734572   -0.778365   -2.943684
     64          1           0       -0.889089    4.378962    0.921368
     65          1           0       -2.535312    5.291728    0.982602
     66          1           0       -3.973830    4.011495   -2.401445
     67          1           0       -4.888720    2.913957   -1.511134
     68          1           0       -4.472591    2.730507   -3.052702
     69          1           0       -4.881444    0.210294   -1.974807
     70          1           0        9.385175   -0.940379   -0.185193
     71          1           0       10.110232   -1.035793   -2.132503
     72          1           0       -4.243366   -2.677649    3.790834
     73          1           0       -6.178788   -1.696169   -1.991211
     74          1           0       -4.950714   -5.478359   -0.726800
     75          1           0       -4.010744   -5.584692   -2.273063
     76          1           0       -3.142948   -5.682029   -0.691905
     77          1           0       -1.194000    8.059769    1.470997
     78          1           0       -7.549943   -3.544497   -2.842796
     79          1           0       -6.029926   -4.696315   -2.617988
 ---------------------------------------------------------------------

 SCF Done:  E(RB3LYP) =  -1947.75443903     A.U. after   16 cycles

 Excitation energies and oscillator strengths:

 Excited State   1:      Singlet-A      1.8708 eV  662.75 nm  f=0.3146  <S**2>=0.000
     155 ->156         0.70218
 This state for optimization and/or second-order correction.
 Total Energy, E(TD-HF/TD-DFT) =  -1947.68568976
 Copying the excited state density for this state as the 1-particle RhoCI density.

 The electronic state is 1-A.
 Alpha  occ. eigenvalues --  -19.19925 -19.16967 -19.12349 -19.11388 -19.10751
 Alpha  occ. eigenvalues --  -19.10357 -14.38088 -14.36223 -14.35524 -14.29866
 Alpha  occ. eigenvalues --  -10.31888 -10.30138 -10.28900 -10.27234 -10.26569
 Alpha  occ. eigenvalues --  -10.25453 -10.25141 -10.23666 -10.22568 -10.22452
 Alpha  occ. eigenvalues --  -10.22395 -10.22343 -10.22165 -10.21669 -10.21526
 Alpha  occ. eigenvalues --  -10.21519 -10.20846 -10.20822 -10.20417 -10.20330
 Alpha  occ. eigenvalues --  -10.20313 -10.20282 -10.20145 -10.20115 -10.20058
 Alpha  occ. eigenvalues --  -10.19883 -10.19679 -10.19529 -10.19260 -10.18954
 Alpha  occ. eigenvalues --  -10.18953 -10.17686 -10.16850  -1.11171  -1.06758
 Alpha  occ. eigenvalues --   -1.01878  -1.01673  -1.01366  -0.99950  -0.98839
 Alpha  occ. eigenvalues --   -0.97144  -0.94427  -0.93831  -0.82693  -0.82438
 Alpha  occ. eigenvalues --   -0.81773  -0.81125  -0.80796  -0.78731  -0.77111
 Alpha  occ. eigenvalues --   -0.76485  -0.75320  -0.74845  -0.73853  -0.72846
 Alpha  occ. eigenvalues --   -0.72718  -0.71257  -0.70488  -0.69134  -0.68210
 Alpha  occ. eigenvalues --   -0.66737  -0.65812  -0.63761  -0.61527  -0.60677
 Alpha  occ. eigenvalues --   -0.60190  -0.59906  -0.58667  -0.58527  -0.56025
 Alpha  occ. eigenvalues --   -0.55669  -0.54841  -0.54487  -0.53699  -0.53257
 Alpha  occ. eigenvalues --   -0.52536  -0.51036  -0.50270  -0.50205  -0.49271
 Alpha  occ. eigenvalues --   -0.48644  -0.48356  -0.48044  -0.47850  -0.47410
 Alpha  occ. eigenvalues --   -0.47351  -0.46732  -0.45941  -0.45830  -0.45438
 Alpha  occ. eigenvalues --   -0.45134  -0.44670  -0.44499  -0.44035  -0.43777
 Alpha  occ. eigenvalues --   -0.43523  -0.43182  -0.42786  -0.42367  -0.42280
 Alpha  occ. eigenvalues --   -0.42176  -0.42082  -0.41779  -0.41619  -0.41188
 Alpha  occ. eigenvalues --   -0.40924  -0.40681  -0.40256  -0.39880  -0.39722
 Alpha  occ. eigenvalues --   -0.39443  -0.39408  -0.39098  -0.38904  -0.38112
 Alpha  occ. eigenvalues --   -0.37535  -0.37099  -0.36757  -0.36661  -0.36592
 Alpha  occ. eigenvalues --   -0.36126  -0.35764  -0.35345  -0.34692  -0.33492
 Alpha  occ. eigenvalues --   -0.33083  -0.32770  -0.32402  -0.30850  -0.30735
 Alpha  occ. eigenvalues --   -0.30569  -0.29999  -0.28808  -0.28025  -0.27776
 Alpha  occ. eigenvalues --   -0.27559  -0.26106  -0.25813  -0.25584  -0.24609
 Alpha  occ. eigenvalues --   -0.24318  -0.24004  -0.23097  -0.22396  -0.18773
 Alpha virt. eigenvalues --   -0.11175  -0.06279  -0.05311  -0.02068  -0.00076
 Alpha virt. eigenvalues --    0.00393   0.00933   0.01040   0.02158   0.02749
 Alpha virt. eigenvalues --    0.02786   0.03890   0.04240   0.04919   0.05185

 Mulliken charges:
               1
     1  O   -0.241321
     2  O   -0.247029
     3  O   -0.250635
     4  O   -0.184638
     5  O   -0.218326
     6  O   -0.226252
     7  N    0.052416
     8  N   -0.158324
     9  N   -0.088004
    10  N   -0.254326
    11  C    0.028608
    12  C    0.103493
    13  C   -0.085789
    14  C   -0.133702
    15  C   -0.011783
    16  C   -0.058823
    17  C   -0.173733
    18  C   -0.036070
    19  C   -0.128400
    20  C   -0.157707
    21  C    0.132291
    22  C    0.161855
    23  C   -0.136529
    24  C    0.030341
    25  C    0.271812
    26  C   -0.132645
    27  C   -0.105298
    28  C    0.076833
    29  C    0.057379
    30  C    0.079959
    31  C   -0.060953
    32  C    0.293990
    33  C   -0.042039
    34  C    0.156807
    35  C    0.070539
    36  C   -0.102565
    37  C    0.127476
    38  C    0.026065
    39  C   -0.247462
    40  C    0.172859
    41  C    0.034727
    42  C    0.099720
    43  C    0.025882
    44  H    0.058212
    45  H    0.002795
    46  H   -0.008200
    47  H    0.078527
    48  H    0.111493
    49  H    0.018086
    50  H    0.048645
    51  H    0.057512
    52  H    0.013194
    53  H    0.047064
    54  H    0.052593
    55  H   -0.043019
    56  H    0.048000
    57  H   -0.043961
    58  H    0.128398
    59  H    0.033322
    60  H    0.214787
    61  H    0.033819
    62  H    0.060253
    63  H   -0.019041
    64  H    0.023812
    65  H    0.080784
    66  H   -0.060442
    67  H   -0.013307
    68  H   -0.016218
    69  H   -0.052740
    70  H    0.052398
    71  H    0.054257
    72  H    0.238085
    73  H   -0.064786
    74  H    0.024492
    75  H    0.041618
    76  H    0.018342
    77  H    0.215412
    78  H    0.012073
    79  H    0.033043
 Sum of Mulliken charges =  -0.00000

 Dipole moment (field-independent basis, Debye):
    X=             -1.1339    Y=              1.8246    Z=              3.7352  Tot=              4.3089
 Quadrupole moment (field-independent basis, Debye-Ang):
   XX=           -226.4952   YY=           -236.9997   ZZ=           -261.0342
   XY=             -8.4516   XZ=             33.1930   YZ=              8.2708

 Normal termination of Gaussian 16 at Fri Oct  4 06:29:53 2019.
