 Gaussian 16, Revision A.03,
 Gaussian 16:  ES64L-G16RevA.03 25-Dec-2016

 --------------------------
 # td=(NStates=1) B3LYP/SVP
 --------------------------

 --
 TD
 --
 Symbolic Z-matrix:
 Charge =  0 Multiplicity = 1

                         Standard orientation:
 ---------------------------------------------------------------------
 Center     Atomic      Atomic             Coordinates (Angstroms)
 Number     Number       Type             X           Y           Z
 ---------------------------------------------------------------------
      1          8           0        5.227789    0.000282   -3.314768
      2          8           0       -2.915098   -2.951503    3.425708
      3          8           0       -3.321836   -0.727464    2.988376
      4          8           0       -1.566442    7.064230    1.561859
      5          8           0       -0.759037    7.119523   -0.529338
      6          8           0       -1.644704   -3.974562    0.038670
      7          7           0        2.288993    1.090492    0.772021
      8          7           0        4.349350   -0.631776   -1.259974
      9          7           0       -1.839538    0.674915   -0.439097
     10          7           0       -2.510361   -1.807250   -0.463389
     11          6           0        4.718727   -1.082686    0.018283
     12          6           0        4.361880   -0.235450    1.202596
     13          6           0        2.971121    0.065389    1.394379
     14          6           0        1.994257   -0.468474    2.253199
     15          6           0        0.742186    0.031164    1.907931
     16          6           0        1.027018    1.008516    0.976254
     17          6           0        6.227847   -1.317530   -0.209343
     18          6           0       -0.607380   -0.101323    2.631747
     19          6           0        6.504112   -0.832465   -1.357334
     20          6           0        0.211424    2.017632    0.203453
     21          6           0       -1.149122    1.796209   -0.325495
     22          6           0        5.333031   -0.373628   -2.152558
     23          6           0       -1.902927    2.901860   -0.950657
     24          6           0        2.177847   -1.657934    3.207039
     25          6           0        6.933920   -1.883088    0.892584
     26          6           0       -3.040731    2.249736   -1.416808
     27          6           0       -1.093003   -1.550300    2.753419
     28          6           0       -3.030545    0.888553   -1.156590
     29          6           0       -1.624073    4.334632   -1.005595
     30          6           0        7.763025   -0.832882   -2.143572
     31          6           0       -1.785084    5.033290    0.382180
     32          6           0       -4.258517    2.940177   -2.132344
     33          6           0       -3.918499   -0.170687   -1.399892
     34          6           0       -2.584504   -1.643038    3.106686
     35          6           0       -3.700779   -1.487326   -1.116709
     36          6           0        9.019639   -1.047218   -1.726427
     37          6           0       -1.345804    6.504351    0.373900
     38          6           0       -4.551548   -2.682094   -1.524180
     39          6           0       -3.747781   -3.804380   -1.173614
     40          6           0       -2.599636   -3.314451   -0.454547
     41          6           0       -5.755168   -2.627343   -2.232019
     42          6           0       -4.089758   -5.228347   -1.048106
     43          6           0       -6.635382   -3.611216   -2.686305
     44          1           0        4.310611   -2.025627    0.132674
     45          1           0        5.058739    0.605695    1.159580
     46          1           0        4.671063   -1.033577    1.990849
     47          1           0        2.739848    1.441125   -0.063954
     48          1           0        3.522189   -0.541080   -1.449925
     49          1           0       -0.457728    0.114159    3.766005
     50          1           0       -1.332702    0.423938    2.091272
     51          1           0        0.634611    3.080798   -0.113553
     52          1           0        3.359645   -1.690313    3.965255
     53          1           0        1.571554   -1.586290    4.168482
     54          1           0        2.116693   -2.700093    2.886897
     55          1           0        6.268348   -2.494333    1.796700
     56          1           0        7.494319   -1.200627    1.539659
     57          1           0        7.724132   -2.537767    0.547759
     58          1           0       -1.036059   -2.031170    1.800247
     59          1           0       -0.736725   -2.304040    3.664988
     60          1           0       -1.537892   -0.320333   -0.179902
     61          1           0       -2.236051    4.817385   -1.941850
     62          1           0       -0.645843    4.804709   -1.370441
     63          1           0        7.759599   -0.647616   -3.173592
     64          1           0       -1.092043    4.360996    0.859055
     65          1           0       -2.826745    4.894525    0.782515
     66          1           0       -4.166711    4.081788   -2.297447
     67          1           0       -5.393261    2.851137   -1.553249
     68          1           0       -4.333268    2.475713   -3.192590
     69          1           0       -4.907784    0.042141   -1.919795
     70          1           0        9.459590   -1.094024   -0.575298
     71          1           0        9.807439   -0.846303   -2.480830
     72          1           0       -3.763112   -3.055676    3.502891
     73          1           0       -6.119985   -1.488838   -2.149113
     74          1           0       -4.982152   -5.313005   -0.368559
     75          1           0       -3.834781   -5.909966   -2.050054
     76          1           0       -3.360780   -5.614327   -0.262229
     77          1           0       -1.462678    8.095860    1.533132
     78          1           0       -7.590758   -3.432246   -2.956557
     79          1           0       -6.260573   -4.669318   -2.269346
 ---------------------------------------------------------------------

 SCF Done:  E(RB3LYP) =  -1947.74796910     A.U. after   19 cycles

 Excitation energies and oscillator strengths:

 Excited State   1:      Singlet-A      1.7856 eV  694.36 nm  f=0.3799  <S**2>=0.000
     154 ->156         0.15457
     155 ->156         0.68447
     155 ->157         0.10606
     155 <-156        -0.13688
 This state for optimization and/or second-order correction.
 Total Energy, E(TD-HF/TD-DFT) =  -1947.68234993
 Copying the excited state density for this state as the 1-particle RhoCI density.

 The electronic state is 1-A.
 Alpha  occ. eigenvalues --  -19.19662 -19.15970 -19.13460 -19.12012 -19.10482
 Alpha  occ. eigenvalues --  -19.10378 -14.38991 -14.36750 -14.34137 -14.29820
 Alpha  occ. eigenvalues --  -10.33482 -10.30666 -10.28633 -10.26474 -10.25238
 Alpha  occ. eigenvalues --  -10.24720 -10.24350 -10.23579 -10.23477 -10.23217
 Alpha  occ. eigenvalues --  -10.23215 -10.22675 -10.22218 -10.22161 -10.22112
 Alpha  occ. eigenvalues --  -10.22102 -10.21988 -10.21789 -10.21764 -10.21588
 Alpha  occ. eigenvalues --  -10.21297 -10.21186 -10.20897 -10.20430 -10.20396
 Alpha  occ. eigenvalues --  -10.20340 -10.20163 -10.19917 -10.19822 -10.19684
 Alpha  occ. eigenvalues --  -10.19467 -10.19459 -10.19162  -1.09904  -1.09094
 Alpha  occ. eigenvalues --   -1.03275  -1.02413  -1.01827  -0.99892  -0.99290
 Alpha  occ. eigenvalues --   -0.98870  -0.96865  -0.89576  -0.84357  -0.82829
 Alpha  occ. eigenvalues --   -0.82445  -0.82035  -0.80909  -0.79888  -0.77739
 Alpha  occ. eigenvalues --   -0.77503  -0.76510  -0.76052  -0.74762  -0.73338
 Alpha  occ. eigenvalues --   -0.72219  -0.70032  -0.69577  -0.69075  -0.68188
 Alpha  occ. eigenvalues --   -0.67908  -0.66656  -0.64433  -0.62861  -0.61996
 Alpha  occ. eigenvalues --   -0.61116  -0.60701  -0.59816  -0.57823  -0.57140
 Alpha  occ. eigenvalues --   -0.56439  -0.55962  -0.55667  -0.54615  -0.53710
 Alpha  occ. eigenvalues --   -0.53193  -0.51815  -0.51608  -0.50201  -0.49545
 Alpha  occ. eigenvalues --   -0.49073  -0.48792  -0.48458  -0.48120  -0.47929
 Alpha  occ. eigenvalues --   -0.47429  -0.47055  -0.46836  -0.46421  -0.45716
 Alpha  occ. eigenvalues --   -0.45219  -0.45118  -0.44808  -0.44398  -0.43978
 Alpha  occ. eigenvalues --   -0.43579  -0.43286  -0.43151  -0.43081  -0.42388
 Alpha  occ. eigenvalues --   -0.42254  -0.42140  -0.41318  -0.40930  -0.40617
 Alpha  occ. eigenvalues --   -0.40199  -0.40050  -0.39709  -0.39577  -0.39343
 Alpha  occ. eigenvalues --   -0.39095  -0.38968  -0.38627  -0.38344  -0.38258
 Alpha  occ. eigenvalues --   -0.37847  -0.37389  -0.37281  -0.37064  -0.36745
 Alpha  occ. eigenvalues --   -0.36085  -0.35740  -0.34381  -0.33991  -0.33552
 Alpha  occ. eigenvalues --   -0.33159  -0.32724  -0.32495  -0.32261  -0.32226
 Alpha  occ. eigenvalues --   -0.32096  -0.31314  -0.29026  -0.28452  -0.28198
 Alpha  occ. eigenvalues --   -0.27087  -0.26763  -0.26179  -0.26092  -0.25975
 Alpha  occ. eigenvalues --   -0.25020  -0.24069  -0.23919  -0.22215  -0.19124
 Alpha virt. eigenvalues --   -0.12212  -0.08281  -0.05247  -0.01662  -0.01223
 Alpha virt. eigenvalues --    0.00169   0.01106   0.01863   0.02023   0.02396
 Alpha virt. eigenvalues --    0.03080   0.03309   0.03940   0.04300   0.04764

 Mulliken charges:
               1
     1  O   -0.222012
     2  O   -0.148497
     3  O   -0.189384
     4  O   -0.200980
     5  O   -0.251199
     6  O   -0.246278
     7  N    0.025702
     8  N   -0.050617
     9  N   -0.070104
    10  N   -0.370760
    11  C    0.067585
    12  C    0.207453
    13  C   -0.092196
    14  C   -0.068431
    15  C   -0.103234
    16  C    0.026186
    17  C   -0.119454
    18  C    0.164418
    19  C   -0.044122
    20  C   -0.094081
    21  C    0.013086
    22  C    0.145584
    23  C   -0.023805
    24  C   -0.036312
    25  C    0.015275
    26  C   -0.083726
    27  C   -0.090730
    28  C    0.137200
    29  C   -0.070504
    30  C    0.015903
    31  C    0.016040
    32  C   -0.029623
    33  C   -0.131058
    34  C    0.126377
    35  C    0.119529
    36  C   -0.095796
    37  C    0.161188
    38  C    0.076064
    39  C   -0.179099
    40  C    0.193247
    41  C   -0.089541
    42  C    0.026684
    43  C   -0.002512
    44  H   -0.017541
    45  H   -0.008283
    46  H    0.009939
    47  H    0.113339
    48  H    0.015253
    49  H    0.028543
    50  H   -0.002056
    51  H    0.046573
    52  H   -0.001626
    53  H    0.029352
    54  H    0.056187
    55  H    0.046895
    56  H    0.035971
    57  H    0.031192
    58  H    0.056098
    59  H    0.051612
    60  H    0.178940
    61  H    0.034642
    62  H    0.042165
    63  H   -0.003432
    64  H    0.032881
    65  H    0.054478
    66  H    0.033429
    67  H    0.055041
    68  H    0.048498
    69  H   -0.012761
    70  H    0.036503
    71  H    0.029014
    72  H    0.110243
    73  H    0.018711
    74  H    0.037646
    75  H    0.070141
    76  H    0.026370
    77  H    0.221875
    78  H    0.005865
    79  H    0.054838
 Sum of Mulliken charges =  -0.00000

 Dipole moment (field-independent basis, Debye):
    X=             -0.6902    Y=              2.1647    Z=              3.7427  Tot=              4.3784
 Quadrupole moment (field-independent basis, Debye-Ang):
   XX=           -220.8022   YY=           -244.1223   ZZ=           -265.8556
   XY=             -6.8763   XZ=             27.0183   YZ=              4.3238

 Normal termination of Gaussian 16 at Tue Oct  1 05:04:16 2019.
