 Gaussian 16, Revision A.03,
 Gaussian 16:  ES64L-G16RevA.03 25-Dec-2016

 --------------------------
 # td=(NStates=1) B3LYP/SVP
 --------------------------

 --
 TD
 --
 Symbolic Z-matrix:
 Charge =  0 Multiplicity = 1

                         Standard orientation:
 ---------------------------------------------------------------------
 Center     Atomic      Atomic             Coordinates (Angstroms)
 Number     Number       Type             X           Y           Z
 ---------------------------------------------------------------------
      1          8           0       -3.101724   -0.879030   -3.019961
      2          8           0        3.261085    2.391604    3.594099
      3          8           0        3.797825    0.386979    4.460371
      4          8           0        7.688112   -1.219737   -0.859383
      5          8           0        6.759813   -2.328284   -2.718489
      6          8           0       -2.686769    1.355695    1.802711
      7          7           0       -0.296444   -2.738688    0.474386
      8          7           0       -2.635388   -0.991827   -0.768520
      9          7           0        1.150143    0.147918   -0.592787
     10          7           0       -1.084805    1.504500    0.089681
     11          6           0       -3.401724   -1.373392    0.506761
     12          6           0       -2.714981   -2.560553    1.214903
     13          6           0       -1.241865   -2.437392    1.454914
     14          6           0       -0.696193   -1.793065    2.545478
     15          6           0        0.723684   -1.680344    2.226372
     16          6           0        0.960941   -2.143285    0.923732
     17          6           0       -4.702835   -1.875439   -0.049301
     18          6           0        1.825744   -1.052256    3.086258
     19          6           0       -4.750616   -1.607992   -1.390750
     20          6           0        2.141908   -1.940512    0.044255
     21          6           0        2.116150   -0.807571   -0.751357
     22          6           0       -3.434544   -1.114659   -1.848066
     23          6           0        3.002932   -0.337495   -1.827478
     24          6           0       -1.472553   -1.100883    3.701919
     25          6           0       -5.750978   -2.308311    0.861711
     26          6           0        2.464465    0.832070   -2.321741
     27          6           0        1.905624    0.542025    2.830561
     28          6           0        1.363790    1.134545   -1.600010
     29          6           0        4.333114   -1.024329   -2.332175
     30          6           0       -5.834746   -1.994337   -2.413946
     31          6           0        5.445452   -0.765264   -1.294416
     32          6           0        3.037211    1.800656   -3.331082
     33          6           0        0.493507    2.198046   -1.608032
     34          6           0        3.051404    1.069551    3.778070
     35          6           0       -0.605254    2.434954   -0.768114
     36          6           0       -6.936728   -2.775873   -2.326303
     37          6           0        6.738499   -1.525433   -1.744795
     38          6           0       -1.510261    3.651291   -0.657032
     39          6           0       -2.431703    3.408313    0.346255
     40          6           0       -2.078126    2.019182    0.858216
     41          6           0       -1.388646    4.731563   -1.498213
     42          6           0       -3.595474    4.149580    0.963755
     43          6           0       -1.740049    6.108257   -1.290667
     44          1           0       -3.265237   -0.677362    1.045775
     45          1           0       -2.833847   -3.482908    0.579193
     46          1           0       -3.233378   -2.989568    2.068501
     47          1           0       -0.345912   -3.181254   -0.532003
     48          1           0       -1.946389   -0.217342   -0.661843
     49          1           0        1.862728   -1.203724    4.277472
     50          1           0        2.815907   -1.354349    2.675327
     51          1           0        2.774165   -2.787886    0.148067
     52          1           0       -2.132301   -1.827361    4.209522
     53          1           0       -0.838086   -0.469360    4.515355
     54          1           0       -1.984398   -0.288955    3.018332
     55          1           0       -5.517469   -1.744691    1.898040
     56          1           0       -5.620380   -3.531306    0.907978
     57          1           0       -6.794931   -2.103066    0.479564
     58          1           0        2.143675    0.845917    1.846076
     59          1           0        0.925283    0.810062    3.120241
     60          1           0        0.267435    0.368868    0.125017
     61          1           0        4.781946   -0.772127   -3.395523
     62          1           0        4.105787   -2.023510   -2.554415
     63          1           0       -5.531054   -1.651928   -3.363357
     64          1           0        4.995276   -0.955592   -0.275391
     65          1           0        5.686037    0.240546   -1.209624
     66          1           0        4.129357    1.593384   -3.662375
     67          1           0        3.290708    2.698239   -2.814774
     68          1           0        2.329885    1.943402   -4.069968
     69          1           0        0.718285    2.949642   -2.288372
     70          1           0       -7.096733   -3.405053   -1.652707
     71          1           0       -7.608421   -2.740304   -3.263296
     72          1           0        4.314012    2.621378    3.950147
     73          1           0       -0.861943    4.557207   -2.719305
     74          1           0       -3.993090    4.946162    0.071057
     75          1           0       -4.471633    3.270005    1.377214
     76          1           0       -3.081028    4.764179    1.865916
     77          1           0        8.437867   -1.905474   -1.342520
     78          1           0       -1.610110    6.904415   -2.150511
     79          1           0       -2.396187    6.518679   -0.454997
 ---------------------------------------------------------------------

 SCF Done:  E(RB3LYP) =  -1947.72702169     A.U. after   19 cycles

 Excitation energies and oscillator strengths:

 Excited State   1:      Singlet-A      0.8144 eV 1522.49 nm  f=0.0001  <S**2>=0.000
     155 ->156         0.70313
 This state for optimization and/or second-order correction.
 Total Energy, E(TD-HF/TD-DFT) =  -1947.69709474
 Copying the excited state density for this state as the 1-particle RhoCI density.

 The electronic state is 1-A.
 Alpha  occ. eigenvalues --  -19.22746 -19.18559 -19.15557 -19.12399 -19.12201
 Alpha  occ. eigenvalues --  -19.06825 -14.37186 -14.36861 -14.32106 -14.31935
 Alpha  occ. eigenvalues --  -10.34965 -10.31702 -10.28937 -10.26549 -10.26364
 Alpha  occ. eigenvalues --  -10.26025 -10.25494 -10.24119 -10.24076 -10.23881
 Alpha  occ. eigenvalues --  -10.23261 -10.22848 -10.22496 -10.22391 -10.22371
 Alpha  occ. eigenvalues --  -10.22207 -10.22155 -10.21446 -10.21332 -10.20892
 Alpha  occ. eigenvalues --  -10.20842 -10.20300 -10.20188 -10.20178 -10.19743
 Alpha  occ. eigenvalues --  -10.19614 -10.18913 -10.18883 -10.18584 -10.18350
 Alpha  occ. eigenvalues --  -10.17623 -10.17229 -10.16968  -1.11138  -1.07687
 Alpha  occ. eigenvalues --   -1.01358  -1.00194  -0.99124  -0.98736  -0.98644
 Alpha  occ. eigenvalues --   -0.93721  -0.93480  -0.90454  -0.83990  -0.82875
 Alpha  occ. eigenvalues --   -0.81747  -0.79958  -0.79161  -0.78751  -0.78081
 Alpha  occ. eigenvalues --   -0.76613  -0.75062  -0.74615  -0.73707  -0.73248
 Alpha  occ. eigenvalues --   -0.70719  -0.69540  -0.69171  -0.68637  -0.66677
 Alpha  occ. eigenvalues --   -0.66029  -0.64156  -0.63683  -0.61300  -0.59896
 Alpha  occ. eigenvalues --   -0.59712  -0.59552  -0.58292  -0.57401  -0.56478
 Alpha  occ. eigenvalues --   -0.55544  -0.54985  -0.53711  -0.52981  -0.52373
 Alpha  occ. eigenvalues --   -0.52164  -0.51970  -0.51181  -0.50310  -0.49744
 Alpha  occ. eigenvalues --   -0.49166  -0.48539  -0.48417  -0.48283  -0.48185
 Alpha  occ. eigenvalues --   -0.47506  -0.47037  -0.46761  -0.46444  -0.46124
 Alpha  occ. eigenvalues --   -0.45397  -0.45208  -0.44481  -0.43788  -0.43516
 Alpha  occ. eigenvalues --   -0.43196  -0.42581  -0.42443  -0.42369  -0.41835
 Alpha  occ. eigenvalues --   -0.41817  -0.41322  -0.41066  -0.40714  -0.40347
 Alpha  occ. eigenvalues --   -0.39934  -0.39856  -0.39726  -0.39362  -0.38816
 Alpha  occ. eigenvalues --   -0.38806  -0.38410  -0.38239  -0.37972  -0.37823
 Alpha  occ. eigenvalues --   -0.37452  -0.37312  -0.36574  -0.36417  -0.35499
 Alpha  occ. eigenvalues --   -0.35344  -0.35222  -0.34983  -0.34511  -0.34189
 Alpha  occ. eigenvalues --   -0.33887  -0.33222  -0.33069  -0.32246  -0.31742
 Alpha  occ. eigenvalues --   -0.30999  -0.30716  -0.29845  -0.28708  -0.28396
 Alpha  occ. eigenvalues --   -0.27833  -0.27365  -0.26183  -0.23808  -0.23720
 Alpha  occ. eigenvalues --   -0.22859  -0.22679  -0.22203  -0.22011  -0.19293
 Alpha virt. eigenvalues --   -0.13706  -0.08587  -0.04014  -0.03183  -0.02998
 Alpha virt. eigenvalues --   -0.00818  -0.00704   0.01680   0.01819   0.02190
 Alpha virt. eigenvalues --    0.02629   0.02881   0.03565   0.04177   0.04444

 Mulliken charges:
               1
     1  O   -0.272021
     2  O   -0.262261
     3  O   -0.240513
     4  O   -0.205690
     5  O   -0.271917
     6  O   -0.284052
     7  N   -0.161751
     8  N   -0.228101
     9  N   -0.205638
    10  N   -0.310777
    11  C    0.296232
    12  C    0.156271
    13  C   -0.067496
    14  C   -0.114940
    15  C   -0.094308
    16  C   -0.048787
    17  C   -0.150921
    18  C    0.030605
    19  C   -0.061584
    20  C   -0.119184
    21  C    0.209149
    22  C    0.138655
    23  C   -0.083480
    24  C    0.006604
    25  C    0.008566
    26  C   -0.122168
    27  C   -0.008171
    28  C    0.147080
    29  C    0.090877
    30  C    0.017643
    31  C   -0.007255
    32  C    0.147005
    33  C   -0.058245
    34  C    0.160647
    35  C    0.123114
    36  C    0.035180
    37  C    0.201939
    38  C    0.132898
    39  C   -0.146694
    40  C    0.195417
    41  C   -0.163181
    42  C   -0.062123
    43  C   -0.093404
    44  H   -0.150174
    45  H   -0.037442
    46  H   -0.006974
    47  H    0.162497
    48  H    0.147518
    49  H    0.053619
    50  H   -0.008684
    51  H    0.016655
    52  H    0.021148
    53  H    0.027946
    54  H    0.088719
    55  H    0.059860
    56  H    0.056824
    57  H    0.047566
    58  H    0.026551
    59  H    0.035334
    60  H    0.259416
    61  H    0.035361
    62  H    0.012899
    63  H   -0.007151
    64  H    0.055469
    65  H    0.008361
    66  H    0.025413
    67  H    0.016515
    68  H    0.026729
    69  H   -0.068419
    70  H   -0.063473
    71  H    0.036453
    72  H    0.238765
    73  H    0.059370
    74  H    0.062615
    75  H    0.095416
    76  H    0.077500
    77  H    0.233683
    78  H    0.053499
    79  H    0.047391
 Sum of Mulliken charges =  -0.00000

 Dipole moment (field-independent basis, Debye):
    X=              5.1494    Y=              3.2626    Z=             -0.9290  Tot=              6.1664
 Quadrupole moment (field-independent basis, Debye-Ang):
   XX=           -226.2905   YY=           -232.1588   ZZ=           -278.2928
   XY=              7.4150   XZ=            -20.8330   YZ=             -7.2686

 Normal termination of Gaussian 16 at Tue Jul 30 08:20:18 2019.
