 Gaussian 16, Revision A.03,
 Gaussian 16:  ES64L-G16RevA.03 25-Dec-2016

 --------------------------
 # td=(NStates=1) B3LYP/SVP
 --------------------------

 --
 TD
 --
 Symbolic Z-matrix:
 Charge =  0 Multiplicity = 1

                         Standard orientation:
 ---------------------------------------------------------------------
 Center     Atomic      Atomic             Coordinates (Angstroms)
 Number     Number       Type             X           Y           Z
 ---------------------------------------------------------------------
      1          8           0       -3.144095   -1.311093   -2.874030
      2          8           0        3.173368    3.037822    3.255562
      3          8           0        3.910917    1.097834    4.272681
      4          8           0        7.802163   -1.470665   -0.944057
      5          8           0        6.568779   -3.098456   -2.090871
      6          8           0       -2.667594    1.594831    1.438524
      7          7           0       -0.334083   -2.525131    0.932274
      8          7           0       -2.699106   -1.180032   -0.658727
      9          7           0        1.046293    0.121838   -0.720159
     10          7           0       -0.946899    1.505730   -0.189169
     11          6           0       -3.359607   -1.257706    0.631487
     12          6           0       -2.690160   -2.296035    1.550046
     13          6           0       -1.255944   -2.085605    1.773309
     14          6           0       -0.524634   -1.310039    2.864046
     15          6           0        0.731623   -1.206755    2.453625
     16          6           0        0.798732   -1.919304    1.185526
     17          6           0       -4.768628   -1.965727    0.146693
     18          6           0        1.793049   -0.502888    3.156153
     19          6           0       -4.863027   -1.982300   -1.192899
     20          6           0        1.980026   -1.946504    0.241072
     21          6           0        2.013615   -0.877337   -0.704114
     22          6           0       -3.495859   -1.549251   -1.756076
     23          6           0        3.083769   -0.543095   -1.663386
     24          6           0       -1.343454   -0.787121    3.958444
     25          6           0       -5.848834   -2.064097    1.127811
     26          6           0        2.516179    0.531476   -2.392596
     27          6           0        1.916907    1.064734    2.893738
     28          6           0        1.335177    0.952337   -1.796244
     29          6           0        4.195935   -1.509528   -1.998322
     30          6           0       -5.716314   -2.493139   -2.123890
     31          6           0        5.522054   -1.075663   -1.211257
     32          6           0        3.227026    1.222451   -3.587861
     33          6           0        0.556431    2.104021   -1.966784
     34          6           0        3.061641    1.739189    3.589888
     35          6           0       -0.580885    2.367104   -1.105983
     36          6           0       -6.798192   -3.294898   -1.786539
     37          6           0        6.628132   -1.982182   -1.460927
     38          6           0       -1.483829    3.589137   -1.248007
     39          6           0       -2.332064    3.447732   -0.180284
     40          6           0       -2.035307    2.137073    0.408479
     41          6           0       -1.166500    4.787940   -2.093300
     42          6           0       -3.295318    4.313614    0.551230
     43          6           0       -2.077004    5.882572   -2.150261
     44          1           0       -3.541495   -0.269617    1.277485
     45          1           0       -2.802130   -3.458734    1.266044
     46          1           0       -3.352077   -2.282644    2.439363
     47          1           0       -0.531041   -2.913581   -0.018598
     48          1           0       -2.286511   -0.130724   -0.727906
     49          1           0        1.629304   -0.893552    4.046558
     50          1           0        2.889702   -0.934797    2.831998
     51          1           0        2.868070   -2.607737    0.414506
     52          1           0       -2.179675   -1.408170    4.346081
     53          1           0       -0.625754   -0.440216    4.875648
     54          1           0       -1.949187    0.221244    3.734091
     55          1           0       -5.642531   -1.508743    2.098593
     56          1           0       -5.973838   -3.221933    1.345061
     57          1           0       -6.836622   -1.555570    0.860637
     58          1           0        1.977885    1.145272    1.651356
     59          1           0        0.950209    1.714568    3.111441
     60          1           0        0.237982    0.351725    0.052875
     61          1           0        4.503007   -1.474489   -3.178895
     62          1           0        3.989587   -2.578022   -1.734241
     63          1           0       -5.760622   -2.274739   -3.279570
     64          1           0        5.373801   -1.002156   -0.007971
     65          1           0        5.731767    0.098795   -1.567471
     66          1           0        4.027615    0.571701   -4.120384
     67          1           0        3.700202    2.253844   -3.206911
     68          1           0        2.521315    1.471560   -4.258086
     69          1           0        0.608089    2.689340   -3.094531
     70          1           0       -7.309516   -3.537998   -0.849579
     71          1           0       -7.569232   -3.499207   -2.493677
     72          1           0        3.930518    3.293376    3.788937
     73          1           0       -0.295200    4.833724   -2.705913
     74          1           0       -4.216324    4.415309   -0.233960
     75          1           0       -3.680643    3.584459    1.392052
     76          1           0       -2.906466    5.373528    0.841173
     77          1           0        8.481890   -1.999992   -1.367040
     78          1           0       -1.905375    6.980801   -2.725003
     79          1           0       -3.016845    5.793127   -1.493072
 ---------------------------------------------------------------------

 SCF Done:  E(RB3LYP) =  -1947.76624413     A.U. after   19 cycles

 Excitation energies and oscillator strengths:

 Excited State   1:      Singlet-A      0.4186 eV 2962.13 nm  f=0.0006  <S**2>=0.000
     155 ->156         0.70389
 This state for optimization and/or second-order correction.
 Total Energy, E(TD-HF/TD-DFT) =  -1947.75086218
 Copying the excited state density for this state as the 1-particle RhoCI density.

 The electronic state is 1-A.
 Alpha  occ. eigenvalues --  -19.19574 -19.19274 -19.14288 -19.12412 -19.12376
 Alpha  occ. eigenvalues --  -19.09465 -14.37754 -14.36777 -14.32349 -14.32243
 Alpha  occ. eigenvalues --  -10.34022 -10.32369 -10.28990 -10.26807 -10.26050
 Alpha  occ. eigenvalues --  -10.26015 -10.25345 -10.24648 -10.23758 -10.23598
 Alpha  occ. eigenvalues --  -10.23256 -10.23243 -10.23025 -10.22907 -10.22804
 Alpha  occ. eigenvalues --  -10.22540 -10.22348 -10.22281 -10.22051 -10.21791
 Alpha  occ. eigenvalues --  -10.21644 -10.20674 -10.20514 -10.20081 -10.19838
 Alpha  occ. eigenvalues --  -10.19428 -10.19356 -10.18859 -10.18747 -10.18455
 Alpha  occ. eigenvalues --  -10.18266 -10.16646 -10.16529  -1.10024  -1.09377
 Alpha  occ. eigenvalues --   -1.02329  -1.00385  -0.99313  -0.99211  -0.98651
 Alpha  occ. eigenvalues --   -0.98232  -0.94039  -0.90459  -0.82796  -0.81882
 Alpha  occ. eigenvalues --   -0.81394  -0.81084  -0.80826  -0.78427  -0.77460
 Alpha  occ. eigenvalues --   -0.76188  -0.75350  -0.74906  -0.73716  -0.72486
 Alpha  occ. eigenvalues --   -0.70292  -0.69993  -0.69295  -0.69043  -0.67269
 Alpha  occ. eigenvalues --   -0.66812  -0.65238  -0.61707  -0.60440  -0.59858
 Alpha  occ. eigenvalues --   -0.59508  -0.59416  -0.58591  -0.56523  -0.56107
 Alpha  occ. eigenvalues --   -0.55823  -0.55508  -0.54566  -0.53289  -0.52251
 Alpha  occ. eigenvalues --   -0.51503  -0.51191  -0.50143  -0.49328  -0.48838
 Alpha  occ. eigenvalues --   -0.48821  -0.48597  -0.48316  -0.48245  -0.47307
 Alpha  occ. eigenvalues --   -0.46908  -0.46727  -0.46248  -0.45928  -0.45327
 Alpha  occ. eigenvalues --   -0.44981  -0.44586  -0.43968  -0.43529  -0.43200
 Alpha  occ. eigenvalues --   -0.42857  -0.42712  -0.42058  -0.41971  -0.41613
 Alpha  occ. eigenvalues --   -0.41441  -0.41373  -0.41081  -0.40690  -0.40345
 Alpha  occ. eigenvalues --   -0.40306  -0.40056  -0.39927  -0.39540  -0.39236
 Alpha  occ. eigenvalues --   -0.39098  -0.38638  -0.38305  -0.37934  -0.37759
 Alpha  occ. eigenvalues --   -0.37459  -0.36979  -0.36705  -0.36370  -0.36128
 Alpha  occ. eigenvalues --   -0.35709  -0.35263  -0.35151  -0.34812  -0.33905
 Alpha  occ. eigenvalues --   -0.32840  -0.32794  -0.32329  -0.31739  -0.31705
 Alpha  occ. eigenvalues --   -0.30737  -0.30301  -0.29791  -0.29356  -0.28898
 Alpha  occ. eigenvalues --   -0.27658  -0.26759  -0.26425  -0.25277  -0.24280
 Alpha  occ. eigenvalues --   -0.24103  -0.23557  -0.22214  -0.22024  -0.17226
 Alpha virt. eigenvalues --   -0.13118  -0.08564  -0.05397  -0.03960  -0.03136
 Alpha virt. eigenvalues --   -0.01543   0.01155   0.01356   0.02101   0.02885
 Alpha virt. eigenvalues --    0.03719   0.04266   0.04601   0.04915   0.04989

 Mulliken charges:
               1
     1  O   -0.199364
     2  O   -0.152320
     3  O   -0.279585
     4  O   -0.185656
     5  O   -0.282858
     6  O   -0.304510
     7  N    0.074459
     8  N   -0.253207
     9  N   -0.184334
    10  N   -0.270500
    11  C    0.004702
    12  C    0.115222
    13  C   -0.117472
    14  C   -0.044444
    15  C   -0.104563
    16  C   -0.106358
    17  C   -0.147124
    18  C    0.135299
    19  C    0.024109
    20  C   -0.100631
    21  C    0.092938
    22  C    0.126362
    23  C   -0.024987
    24  C   -0.007998
    25  C    0.015359
    26  C   -0.149842
    27  C   -0.092634
    28  C    0.173189
    29  C    0.023859
    30  C   -0.053814
    31  C   -0.121778
    32  C    0.098874
    33  C   -0.171550
    34  C    0.173824
    35  C    0.051545
    36  C   -0.062292
    37  C    0.196149
    38  C    0.039960
    39  C   -0.152798
    40  C    0.187750
    41  C   -0.006602
    42  C   -0.003829
    43  C   -0.090994
    44  H    0.100574
    45  H    0.001430
    46  H   -0.025137
    47  H    0.137043
    48  H    0.186291
    49  H   -0.017733
    50  H    0.006634
    51  H    0.031662
    52  H    0.015565
    53  H    0.008983
    54  H    0.042469
    55  H    0.025942
    56  H    0.051496
    57  H    0.044793
    58  H    0.069988
    59  H    0.064422
    60  H    0.270180
    61  H    0.057060
    62  H    0.053036
    63  H    0.045427
    64  H    0.091609
    65  H    0.082552
    66  H    0.037955
    67  H    0.051132
    68  H   -0.004519
    69  H    0.053151
    70  H    0.007000
    71  H   -0.000063
    72  H    0.169892
    73  H   -0.003654
    74  H    0.054687
    75  H    0.066027
    76  H    0.065839
    77  H    0.179105
    78  H    0.075039
    79  H    0.042568
 Sum of Mulliken charges =  -0.00000

 Dipole moment (field-independent basis, Debye):
    X=              2.0292    Y=              4.3839    Z=             -1.7878  Tot=              5.1510
 Quadrupole moment (field-independent basis, Debye-Ang):
   XX=           -231.8015   YY=           -238.8536   ZZ=           -267.8251
   XY=              7.8120   XZ=            -21.9609   YZ=            -11.7411

 Normal termination of Gaussian 16 at Wed Jul 24 10:11:40 2019.
