 Gaussian 16, Revision A.03,
 Gaussian 16:  ES64L-G16RevA.03 25-Dec-2016

 --------------------------
 # td=(NStates=1) B3LYP/SVP
 --------------------------

 --
 TD
 --
 Symbolic Z-matrix:
 Charge =  0 Multiplicity = 1

                         Standard orientation:
 ---------------------------------------------------------------------
 Center     Atomic      Atomic             Coordinates (Angstroms)
 Number     Number       Type             X           Y           Z
 ---------------------------------------------------------------------
      1          8           0        5.469000    0.068788   -3.206641
      2          8           0       -3.055184   -3.060662    2.992941
      3          8           0       -3.211081   -0.763497    3.425692
      4          8           0       -1.126965    7.060574    1.691359
      5          8           0       -0.669827    7.063545   -0.495223
      6          8           0       -2.097938   -3.943508    0.028928
      7          7           0        2.393025    0.843121    0.564880
      8          7           0        4.455230   -0.447446   -1.285989
      9          7           0       -1.838232    0.649900   -0.369496
     10          7           0       -2.690621   -1.804282   -0.607280
     11          6           0        4.769264   -1.288176   -0.060159
     12          6           0        4.339012   -0.550911    1.194486
     13          6           0        2.939239   -0.227988    1.345799
     14          6           0        1.970868   -0.859133    2.071112
     15          6           0        0.717672   -0.204856    1.698486
     16          6           0        1.029433    0.851832    0.796885
     17          6           0        6.363340   -1.433594   -0.173505
     18          6           0       -0.548531   -0.287440    2.453021
     19          6           0        6.770945   -0.843867   -1.373323
     20          6           0        0.239477    1.814029    0.163472
     21          6           0       -1.039056    1.806164   -0.295873
     22          6           0        5.575625   -0.190469   -2.049801
     23          6           0       -1.871062    2.932572   -0.716162
     24          6           0        2.201011   -1.932121    2.996759
     25          6           0        7.224735   -2.109937    0.884119
     26          6           0       -3.067702    2.412879   -1.142221
     27          6           0       -1.154475   -1.688344    2.387874
     28          6           0       -3.066674    1.005076   -0.992148
     29          6           0       -1.414980    4.313584   -0.805919
     30          6           0        8.051366   -0.808172   -1.997393
     31          6           0       -1.637892    5.044100    0.524673
     32          6           0       -4.185081    3.171730   -1.704574
     33          6           0       -4.012219    0.051312   -1.392873
     34          6           0       -2.654669   -1.759220    3.007123
     35          6           0       -3.883103   -1.363685   -1.158855
     36          6           0        9.297945   -0.936465   -1.430955
     37          6           0       -1.239742    6.495529    0.450140
     38          6           0       -4.841806   -2.377547   -1.557529
     39          6           0       -4.143683   -3.618828   -1.185958
     40          6           0       -2.898396   -3.166211   -0.550080
     41          6           0       -6.103530   -2.162228   -2.046444
     42          6           0       -4.570963   -5.027307   -1.167347
     43          6           0       -6.846781   -3.091907   -2.626962
     44          1           0        4.067424   -2.202779   -0.335459
     45          1           0        5.050783    0.286944    1.196526
     46          1           0        4.701211   -1.029521    2.032360
     47          1           0        2.986459    1.325179   -0.199471
     48          1           0        3.399708   -0.294189   -1.623954
     49          1           0       -0.470120    0.093309    3.434964
     50          1           0       -1.398818    0.325141    1.901209
     51          1           0        0.746993    2.738807   -0.077566
     52          1           0        3.222809   -2.185414    3.157703
     53          1           0        1.863787   -1.677638    4.078448
     54          1           0        1.574081   -2.727912    2.575878
     55          1           0        6.275949   -2.877487    1.286927
     56          1           0        7.540855   -1.450062    1.677306
     57          1           0        8.067210   -2.719601    0.724099
     58          1           0       -1.321114   -2.187026    1.484837
     59          1           0       -0.689437   -2.557238    2.906866
     60          1           0       -1.494068   -0.405439   -0.507874
     61          1           0       -2.041627    4.869896   -1.580339
     62          1           0       -0.324795    4.526424   -1.167204
     63          1           0        7.868043   -0.766869   -3.220405
     64          1           0       -1.115768    4.508634    1.362650
     65          1           0       -2.623049    4.926703    0.726733
     66          1           0       -4.230579    4.366495   -1.178285
     67          1           0       -5.129798    2.467750   -1.203465
     68          1           0       -4.246653    3.474341   -3.006604
     69          1           0       -4.857975    0.331758   -1.997813
     70          1           0        9.156665   -0.909095   -0.438937
     71          1           0       10.166867   -0.937203   -2.075142
     72          1           0       -3.938737   -3.099036    3.509016
     73          1           0       -6.384246   -1.160457   -2.111030
     74          1           0       -5.402585   -5.395971   -0.644844
     75          1           0       -4.957821   -5.198281   -2.082753
     76          1           0       -3.583141   -5.583439   -0.941252
     77          1           0       -0.826842    7.912882    1.485644
     78          1           0       -7.684418   -2.596028   -3.018697
     79          1           0       -6.524613   -4.106945   -3.016521
 ---------------------------------------------------------------------

 SCF Done:  E(RB3LYP) =  -1947.81279557     A.U. after   17 cycles

 Excitation energies and oscillator strengths:

 Excited State   1:      Singlet-A      1.9018 eV  651.92 nm  f=0.2824  <S**2>=0.000
     154 ->156         0.36029
     155 ->156         0.60370
     155 <-156        -0.10396
 This state for optimization and/or second-order correction.
 Total Energy, E(TD-HF/TD-DFT) =  -1947.74290503
 Copying the excited state density for this state as the 1-particle RhoCI density.

 The electronic state is 1-A.
 Alpha  occ. eigenvalues --  -19.18549 -19.17702 -19.13944 -19.11496 -19.09980
 Alpha  occ. eigenvalues --  -19.09450 -14.38467 -14.36039 -14.35762 -14.28924
 Alpha  occ. eigenvalues --  -10.33401 -10.30486 -10.28531 -10.26628 -10.25462
 Alpha  occ. eigenvalues --  -10.24919 -10.24640 -10.23982 -10.23873 -10.23323
 Alpha  occ. eigenvalues --  -10.23284 -10.22813 -10.22698 -10.21783 -10.21513
 Alpha  occ. eigenvalues --  -10.21397 -10.21349 -10.21307 -10.21279 -10.20740
 Alpha  occ. eigenvalues --  -10.20623 -10.20522 -10.19920 -10.19742 -10.19555
 Alpha  occ. eigenvalues --  -10.19522 -10.19381 -10.19250 -10.19203 -10.19101
 Alpha  occ. eigenvalues --  -10.18587 -10.17743 -10.17405  -1.10704  -1.06807
 Alpha  occ. eigenvalues --   -1.03980  -1.00330  -0.99262  -0.99182  -0.97298
 Alpha  occ. eigenvalues --   -0.96356  -0.92146  -0.90792  -0.83570  -0.82591
 Alpha  occ. eigenvalues --   -0.81935  -0.81704  -0.81515  -0.80080  -0.78457
 Alpha  occ. eigenvalues --   -0.77218  -0.76455  -0.75485  -0.75199  -0.72361
 Alpha  occ. eigenvalues --   -0.71609  -0.71332  -0.70401  -0.68824  -0.67451
 Alpha  occ. eigenvalues --   -0.66071  -0.65746  -0.64131  -0.61550  -0.61432
 Alpha  occ. eigenvalues --   -0.60374  -0.59055  -0.57832  -0.57205  -0.56448
 Alpha  occ. eigenvalues --   -0.56088  -0.55407  -0.54786  -0.53737  -0.52976
 Alpha  occ. eigenvalues --   -0.52067  -0.51576  -0.50995  -0.50165  -0.49729
 Alpha  occ. eigenvalues --   -0.49161  -0.48933  -0.48505  -0.48057  -0.47693
 Alpha  occ. eigenvalues --   -0.46869  -0.46652  -0.46509  -0.45944  -0.45718
 Alpha  occ. eigenvalues --   -0.45312  -0.44579  -0.44516  -0.44083  -0.43877
 Alpha  occ. eigenvalues --   -0.43621  -0.43091  -0.42794  -0.42588  -0.42485
 Alpha  occ. eigenvalues --   -0.42284  -0.41829  -0.41664  -0.41527  -0.41380
 Alpha  occ. eigenvalues --   -0.41232  -0.40846  -0.40568  -0.40264  -0.39644
 Alpha  occ. eigenvalues --   -0.39363  -0.39219  -0.38828  -0.38385  -0.37836
 Alpha  occ. eigenvalues --   -0.37821  -0.37593  -0.37391  -0.36888  -0.36706
 Alpha  occ. eigenvalues --   -0.36415  -0.35664  -0.34960  -0.34837  -0.34482
 Alpha  occ. eigenvalues --   -0.34108  -0.33868  -0.32813  -0.31710  -0.31511
 Alpha  occ. eigenvalues --   -0.31434  -0.30947  -0.29310  -0.28504  -0.27838
 Alpha  occ. eigenvalues --   -0.26374  -0.25997  -0.25699  -0.25474  -0.24451
 Alpha  occ. eigenvalues --   -0.24324  -0.23812  -0.23661  -0.21286  -0.19135
 Alpha virt. eigenvalues --   -0.11581  -0.07557  -0.06780  -0.03047  -0.01407
 Alpha virt. eigenvalues --    0.00040   0.00560   0.01681   0.02282   0.02617
 Alpha virt. eigenvalues --    0.02707   0.03109   0.03775   0.04691   0.04968

 Mulliken charges:
               1
     1  O   -0.201542
     2  O   -0.204133
     3  O   -0.233246
     4  O   -0.156277
     5  O   -0.255859
     6  O   -0.250553
     7  N   -0.157009
     8  N   -0.295417
     9  N   -0.175056
    10  N   -0.293552
    11  C    0.040289
    12  C    0.233250
    13  C   -0.047383
    14  C   -0.106225
    15  C   -0.096046
    16  C    0.140744
    17  C   -0.129446
    18  C    0.119304
    19  C   -0.052369
    20  C   -0.092866
    21  C    0.074329
    22  C    0.165538
    23  C   -0.009475
    24  C    0.104086
    25  C    0.031668
    26  C   -0.038828
    27  C   -0.035952
    28  C    0.160999
    29  C    0.000466
    30  C   -0.109028
    31  C    0.045265
    32  C   -0.138845
    33  C   -0.135757
    34  C    0.141352
    35  C    0.087112
    36  C    0.061398
    37  C    0.164686
    38  C    0.059780
    39  C   -0.177412
    40  C    0.158788
    41  C   -0.039000
    42  C    0.151533
    43  C   -0.004017
    44  H    0.050640
    45  H   -0.018479
    46  H   -0.042748
    47  H    0.147857
    48  H    0.169301
    49  H    0.004997
    50  H    0.046058
    51  H   -0.028893
    52  H   -0.014643
    53  H    0.028815
    54  H    0.053911
    55  H    0.044015
    56  H    0.044014
    57  H    0.033540
    58  H    0.012616
    59  H    0.010086
    60  H    0.208833
    61  H    0.024652
    62  H    0.047615
    63  H    0.050545
    64  H    0.058004
    65  H   -0.000879
    66  H    0.046349
    67  H    0.065570
    68  H    0.081185
    69  H   -0.029542
    70  H   -0.023104
    71  H    0.037521
    72  H    0.194868
    73  H   -0.037683
    74  H    0.008869
    75  H   -0.030562
    76  H    0.052355
    77  H    0.151072
    78  H    0.004465
    79  H    0.043488
 Sum of Mulliken charges =  -0.00000

 Dipole moment (field-independent basis, Debye):
    X=              0.9385    Y=              1.2164    Z=              2.3828  Tot=              2.8352
 Quadrupole moment (field-independent basis, Debye-Ang):
   XX=           -217.6895   YY=           -250.7641   ZZ=           -262.5731
   XY=             -8.8990   XZ=             32.9788   YZ=              3.1467

 Normal termination of Gaussian 16 at Mon Sep 23 17:14:53 2019.
