 Gaussian 16, Revision A.03,
 Gaussian 16:  ES64L-G16RevA.03 25-Dec-2016

 --------------------------
 # td=(NStates=1) B3LYP/SVP
 --------------------------

 --
 TD
 --
 Symbolic Z-matrix:
 Charge =  0 Multiplicity = 1

                         Standard orientation:
 ---------------------------------------------------------------------
 Center     Atomic      Atomic             Coordinates (Angstroms)
 Number     Number       Type             X           Y           Z
 ---------------------------------------------------------------------
      1          8           0        5.307037   -0.062981   -3.277928
      2          8           0       -3.010442   -2.900167    3.326386
      3          8           0       -3.280183   -0.703527    2.867287
      4          8           0       -1.845358    7.205926    1.307539
      5          8           0       -0.339003    6.940436   -0.394381
      6          8           0       -1.865417   -3.963398    0.144172
      7          7           0        2.311258    1.000312    0.650475
      8          7           0        4.402934   -0.588706   -1.159359
      9          7           0       -1.881097    0.672467   -0.376456
     10          7           0       -2.585562   -1.922303   -0.560992
     11          6           0        4.764253   -1.144487   -0.013753
     12          6           0        4.484686   -0.299537    1.177526
     13          6           0        3.016608   -0.002543    1.325095
     14          6           0        1.986127   -0.675560    2.100515
     15          6           0        0.770892   -0.101894    1.732470
     16          6           0        1.011596    0.923480    0.836205
     17          6           0        6.293630   -1.419038   -0.199588
     18          6           0       -0.584466   -0.284318    2.600875
     19          6           0        6.642037   -0.985985   -1.463550
     20          6           0        0.201932    1.900214    0.142273
     21          6           0       -1.129807    1.827647   -0.239713
     22          6           0        5.448989   -0.515520   -2.190681
     23          6           0       -1.943512    2.928268   -0.844001
     24          6           0        2.245891   -1.775386    3.043099
     25          6           0        7.103480   -1.852670    0.902588
     26          6           0       -3.159070    2.343608   -1.239917
     27          6           0       -1.054831   -1.731062    2.662588
     28          6           0       -3.031697    0.874485   -1.020513
     29          6           0       -1.414160    4.294391   -0.858948
     30          6           0        7.933217   -0.876149   -2.060003
     31          6           0       -1.822043    5.146341    0.338318
     32          6           0       -4.196961    3.107942   -1.896791
     33          6           0       -3.911181   -0.063928   -1.339275
     34          6           0       -2.568438   -1.679435    2.944842
     35          6           0       -3.716519   -1.361787   -1.110933
     36          6           0        9.050382   -0.857251   -1.424786
     37          6           0       -1.235015    6.526150    0.375320
     38          6           0       -4.628330   -2.555866   -1.468539
     39          6           0       -3.976784   -3.712035   -1.067946
     40          6           0       -2.706125   -3.274615   -0.425573
     41          6           0       -5.928516   -2.477380   -2.202599
     42          6           0       -4.299805   -5.194809   -1.284964
     43          6           0       -6.835448   -3.392943   -2.471729
     44          1           0        4.138518   -2.115982    0.191904
     45          1           0        5.118629    0.626302    1.109103
     46          1           0        4.837751   -1.001942    1.977705
     47          1           0        2.829206    1.527605    0.097631
     48          1           0        3.548562   -0.374503   -1.458328
     49          1           0       -0.398946    0.206439    3.538554
     50          1           0       -1.197376    0.309752    2.145764
     51          1           0        0.498338    2.838537   -0.251738
     52          1           0        3.279088   -1.594868    3.708383
     53          1           0        1.378328   -1.712354    3.855218
     54          1           0        2.192558   -2.851646    2.714486
     55          1           0        6.685452   -2.428100    1.605820
     56          1           0        7.608549   -0.980591    1.622359
     57          1           0        7.857941   -2.511001    0.460989
     58          1           0       -0.916093   -2.235275    1.639340
     59          1           0       -0.574344   -2.261588    3.452833
     60          1           0       -1.975410   -0.326445   -0.095520
     61          1           0       -1.717615    4.882877   -1.753870
     62          1           0       -0.388824    4.523851   -0.910951
     63          1           0        7.825533   -0.626649   -3.188565
     64          1           0       -1.509138    4.598562    1.353729
     65          1           0       -2.879375    5.282449    0.557417
     66          1           0       -3.960883    4.098795   -2.176592
     67          1           0       -4.979937    3.260279   -1.092549
     68          1           0       -4.746908    2.553289   -2.805669
     69          1           0       -4.984126    0.181208   -1.690935
     70          1           0        9.147154   -0.907133   -0.445984
     71          1           0       10.034203   -0.525651   -1.966771
     72          1           0       -3.933257   -2.908477    3.777865
     73          1           0       -6.110278   -1.414711   -2.185274
     74          1           0       -5.192892   -5.412509   -0.736105
     75          1           0       -4.581764   -5.311644   -2.415878
     76          1           0       -3.354880   -5.826723   -1.066458
     77          1           0       -1.279909    8.014375    1.534585
     78          1           0       -7.855083   -3.183994   -2.760411
     79          1           0       -6.774667   -4.485186   -2.149817
 ---------------------------------------------------------------------

 SCF Done:  E(RB3LYP) =  -1947.87776779     A.U. after   18 cycles

 Excitation energies and oscillator strengths:

 Excited State   1:      Singlet-A      2.1644 eV  572.82 nm  f=0.4178  <S**2>=0.000
     154 ->156         0.22314
     155 ->156         0.66678
     155 <-156        -0.10520
 This state for optimization and/or second-order correction.
 Total Energy, E(TD-HF/TD-DFT) =  -1947.79822615
 Copying the excited state density for this state as the 1-particle RhoCI density.

 The electronic state is 1-A.
 Alpha  occ. eigenvalues --  -19.20872 -19.16564 -19.13440 -19.11603 -19.11141
 Alpha  occ. eigenvalues --  -19.08939 -14.38233 -14.35787 -14.33327 -14.27881
 Alpha  occ. eigenvalues --  -10.33237 -10.30423 -10.29019 -10.25050 -10.24333
 Alpha  occ. eigenvalues --  -10.24103 -10.23935 -10.23235 -10.23044 -10.22775
 Alpha  occ. eigenvalues --  -10.22287 -10.21889 -10.21816 -10.21754 -10.21482
 Alpha  occ. eigenvalues --  -10.21248 -10.21114 -10.21012 -10.20745 -10.20635
 Alpha  occ. eigenvalues --  -10.20287 -10.19868 -10.19746 -10.19633 -10.19306
 Alpha  occ. eigenvalues --  -10.19167 -10.19094 -10.18977 -10.18785 -10.18701
 Alpha  occ. eigenvalues --  -10.18556 -10.18468 -10.17655  -1.11803  -1.06911
 Alpha  occ. eigenvalues --   -1.04733  -1.00669  -1.00368  -0.99917  -0.98745
 Alpha  occ. eigenvalues --   -0.98513  -0.96208  -0.90446  -0.83686  -0.83550
 Alpha  occ. eigenvalues --   -0.81847  -0.81492  -0.80321  -0.79196  -0.78683
 Alpha  occ. eigenvalues --   -0.78165  -0.76691  -0.76379  -0.74112  -0.73440
 Alpha  occ. eigenvalues --   -0.72936  -0.71432  -0.69538  -0.68898  -0.68280
 Alpha  occ. eigenvalues --   -0.66944  -0.66104  -0.64330  -0.61654  -0.61525
 Alpha  occ. eigenvalues --   -0.60509  -0.59574  -0.59132  -0.58794  -0.57446
 Alpha  occ. eigenvalues --   -0.57027  -0.55937  -0.55246  -0.54230  -0.53367
 Alpha  occ. eigenvalues --   -0.52516  -0.52351  -0.51418  -0.50727  -0.50240
 Alpha  occ. eigenvalues --   -0.49307  -0.48877  -0.48298  -0.47888  -0.47448
 Alpha  occ. eigenvalues --   -0.46926  -0.46607  -0.46491  -0.45960  -0.45818
 Alpha  occ. eigenvalues --   -0.45224  -0.44762  -0.44597  -0.44394  -0.43835
 Alpha  occ. eigenvalues --   -0.43377  -0.43310  -0.43228  -0.42948  -0.42746
 Alpha  occ. eigenvalues --   -0.42436  -0.42149  -0.41577  -0.41346  -0.41154
 Alpha  occ. eigenvalues --   -0.40931  -0.40398  -0.40167  -0.39936  -0.39800
 Alpha  occ. eigenvalues --   -0.39239  -0.39161  -0.38930  -0.38702  -0.38221
 Alpha  occ. eigenvalues --   -0.38024  -0.37732  -0.37420  -0.37075  -0.36681
 Alpha  occ. eigenvalues --   -0.36491  -0.36001  -0.34215  -0.34180  -0.34044
 Alpha  occ. eigenvalues --   -0.33626  -0.33202  -0.33000  -0.32870  -0.32339
 Alpha  occ. eigenvalues --   -0.30973  -0.30674  -0.28990  -0.28289  -0.27070
 Alpha  occ. eigenvalues --   -0.26658  -0.25818  -0.25589  -0.25223  -0.24983
 Alpha  occ. eigenvalues --   -0.24484  -0.23824  -0.23204  -0.21639  -0.18941
 Alpha virt. eigenvalues --   -0.10453  -0.06586  -0.05755  -0.01494  -0.00202
 Alpha virt. eigenvalues --    0.01105   0.01385   0.01814   0.02556   0.03166
 Alpha virt. eigenvalues --    0.03783   0.04139   0.05008   0.05254   0.05516

 Mulliken charges:
               1
     1  O   -0.167732
     2  O   -0.222897
     3  O   -0.230111
     4  O   -0.156529
     5  O   -0.267868
     6  O   -0.221603
     7  N    0.042445
     8  N   -0.152707
     9  N   -0.034818
    10  N   -0.311052
    11  C    0.033234
    12  C    0.206924
    13  C   -0.130043
    14  C   -0.076343
    15  C   -0.158715
    16  C    0.115142
    17  C   -0.144681
    18  C    0.217541
    19  C   -0.056393
    20  C   -0.015736
    21  C    0.028012
    22  C    0.155371
    23  C   -0.018654
    24  C   -0.019831
    25  C    0.093005
    26  C   -0.116231
    27  C   -0.006411
    28  C    0.103908
    29  C    0.105143
    30  C   -0.006214
    31  C   -0.062995
    32  C    0.078693
    33  C   -0.156307
    34  C    0.138792
    35  C    0.096185
    36  C    0.001626
    37  C    0.142103
    38  C   -0.019745
    39  C   -0.216187
    40  C    0.138539
    41  C    0.067533
    42  C    0.063660
    43  C   -0.058076
    44  H    0.017753
    45  H   -0.007524
    46  H   -0.010110
    47  H    0.056957
    48  H    0.071840
    49  H    0.001557
    50  H   -0.082258
    51  H   -0.048785
    52  H    0.033812
    53  H    0.026972
    54  H    0.053656
    55  H   -0.022495
    56  H    0.057606
    57  H    0.035760
    58  H    0.098725
    59  H    0.009457
    60  H    0.151672
    61  H    0.010264
    62  H    0.002978
    63  H    0.027132
    64  H    0.054848
    65  H    0.026765
    66  H    0.000648
    67  H    0.027539
    68  H    0.045932
    69  H    0.008295
    70  H   -0.036267
    71  H    0.038468
    72  H    0.205429
    73  H   -0.030462
    74  H    0.030573
    75  H    0.039082
    76  H    0.053767
    77  H    0.207941
    78  H    0.017974
    79  H    0.024523
 Sum of Mulliken charges =  -0.00000

 Dipole moment (field-independent basis, Debye):
    X=              0.6060    Y=              3.8394    Z=              4.7139  Tot=              6.1098
 Quadrupole moment (field-independent basis, Debye-Ang):
   XX=           -217.3504   YY=           -241.9940   ZZ=           -257.2244
   XY=            -11.2425   XZ=             23.9788   YZ=              5.1895

 Normal termination of Gaussian 16 at Thu Sep 26 08:42:43 2019.
