 Gaussian 16, Revision A.03,
 Gaussian 16:  ES64L-G16RevA.03 25-Dec-2016

 --------------------------
 # td=(NStates=1) B3LYP/SVP
 --------------------------

 --
 TD
 --
 Symbolic Z-matrix:
 Charge =  0 Multiplicity = 1

                         Standard orientation:
 ---------------------------------------------------------------------
 Center     Atomic      Atomic             Coordinates (Angstroms)
 Number     Number       Type             X           Y           Z
 ---------------------------------------------------------------------
      1          8           0       -2.955923   -1.554058   -2.583470
      2          8           0        2.949804    3.669537    2.878079
      3          8           0        3.957984    1.866999    4.002000
      4          8           0        7.664150   -1.862399   -0.428093
      5          8           0        6.602299   -3.149437   -2.081660
      6          8           0       -2.769538    1.838566    1.320897
      7          7           0       -0.237774   -2.322483    1.217601
      8          7           0       -2.568955   -1.319628   -0.388632
      9          7           0        1.091385    0.096699   -0.737102
     10          7           0       -1.067277    1.522333   -0.287382
     11          6           0       -3.244568   -1.457430    0.795299
     12          6           0       -2.588156   -2.325849    1.907076
     13          6           0       -1.152843   -1.861360    1.975214
     14          6           0       -0.644004   -0.913875    2.928743
     15          6           0        0.836614   -0.875227    2.636006
     16          6           0        1.036403   -1.586383    1.490309
     17          6           0       -4.634270   -1.970212    0.397970
     18          6           0        1.943158   -0.010851    3.193718
     19          6           0       -4.577315   -2.360805   -0.905854
     20          6           0        2.035329   -1.738130    0.524015
     21          6           0        2.069101   -0.915114   -0.599419
     22          6           0       -3.353751   -1.687321   -1.461476
     23          6           0        2.932687   -0.770253   -1.731004
     24          6           0       -1.360058   -0.025427    3.979157
     25          6           0       -5.694046   -2.228081    1.470447
     26          6           0        2.396493    0.263409   -2.555368
     27          6           0        1.974761    1.483552    2.575417
     28          6           0        1.305420    0.865524   -1.861491
     29          6           0        4.144614   -1.631589   -1.897200
     30          6           0       -5.665769   -2.793517   -1.785265
     31          6           0        5.394507   -1.306336   -0.967946
     32          6           0        3.007086    0.787510   -3.857883
     33          6           0        0.408226    1.921600   -2.214879
     34          6           0        3.067432    2.310143    3.197481
     35          6           0       -0.680165    2.233429   -1.349334
     36          6           0       -6.577911   -3.809466   -1.478451
     37          6           0        6.568043   -2.245832   -1.231046
     38          6           0       -1.600510    3.435308   -1.546120
     39          6           0       -2.414507    3.387850   -0.461917
     40          6           0       -2.169312    2.145122    0.283105
     41          6           0       -1.357856    4.364484   -2.694027
     42          6           0       -3.518233    4.304167    0.057579
     43          6           0       -2.186422    5.330524   -2.935736
     44          1           0       -3.413442   -0.338468    1.201945
     45          1           0       -2.531164   -3.197961    1.421121
     46          1           0       -3.154426   -2.256256    2.849030
     47          1           0       -0.480779   -2.840863    0.289060
     48          1           0       -1.928027   -0.497610   -0.723370
     49          1           0        2.147410    0.195010    4.288930
     50          1           0        2.814913   -0.425715    3.084188
     51          1           0        3.000724   -2.445765    0.674408
     52          1           0       -2.367749   -0.547615    4.446123
     53          1           0       -0.771104    0.489117    4.472220
     54          1           0       -1.656802    0.959766    3.287026
     55          1           0       -5.632243   -1.434364    2.421181
     56          1           0       -5.671871   -3.226271    2.008969
     57          1           0       -6.682987   -2.194447    0.938911
     58          1           0        1.922974    1.440917    1.429127
     59          1           0        1.090025    1.798516    2.760481
     60          1           0        0.354471    0.497240   -0.120490
     61          1           0        4.430065   -1.487318   -2.876192
     62          1           0        3.951076   -2.698235   -1.921373
     63          1           0       -5.629460   -2.374409   -2.767645
     64          1           0        5.142166   -1.286149    0.126522
     65          1           0        5.768421   -0.328764   -0.959129
     66          1           0        3.908859    0.323294   -4.214264
     67          1           0        3.425819    1.871717   -3.707242
     68          1           0        2.282514    0.639634   -4.773239
     69          1           0        0.566522    2.537992   -3.169000
     70          1           0       -6.650362   -4.320285   -0.565700
     71          1           0       -7.245317   -4.047852   -2.243749
     72          1           0        3.622799    4.139898    3.409981
     73          1           0       -0.776262    3.946696   -3.507006
     74          1           0       -4.110084    4.450745   -0.767487
     75          1           0       -4.050382    3.754137    0.860006
     76          1           0       -3.363582    5.447355    0.212537
     77          1           0        8.303323   -2.420805   -0.509916
     78          1           0       -1.835967    5.899948   -3.771367
     79          1           0       -3.093015    5.747667   -2.340732
 ---------------------------------------------------------------------

 SCF Done:  E(RB3LYP) =  -1947.79915968     A.U. after   19 cycles

 Excitation energies and oscillator strengths:

 Excited State   1:      Singlet-A      0.8148 eV 1521.61 nm  f=0.0034  <S**2>=0.000
     155 ->156         0.70496
 This state for optimization and/or second-order correction.
 Total Energy, E(TD-HF/TD-DFT) =  -1947.76921552
 Copying the excited state density for this state as the 1-particle RhoCI density.

 The electronic state is 1-A.
 Alpha  occ. eigenvalues --  -19.18624 -19.18333 -19.14994 -19.13373 -19.12200
 Alpha  occ. eigenvalues --  -19.08239 -14.36796 -14.36766 -14.32476 -14.30790
 Alpha  occ. eigenvalues --  -10.34564 -10.33320 -10.27964 -10.26542 -10.26187
 Alpha  occ. eigenvalues --  -10.25535 -10.25085 -10.23678 -10.23354 -10.23314
 Alpha  occ. eigenvalues --  -10.22786 -10.22561 -10.22028 -10.21698 -10.21549
 Alpha  occ. eigenvalues --  -10.21317 -10.20958 -10.20922 -10.20850 -10.20832
 Alpha  occ. eigenvalues --  -10.20583 -10.20394 -10.20365 -10.19818 -10.19690
 Alpha  occ. eigenvalues --  -10.19036 -10.18977 -10.18806 -10.18780 -10.18453
 Alpha  occ. eigenvalues --  -10.18401 -10.18148 -10.17503  -1.10135  -1.07174
 Alpha  occ. eigenvalues --   -1.02419  -1.02137  -1.01965  -0.98914  -0.98253
 Alpha  occ. eigenvalues --   -0.96723  -0.93717  -0.93135  -0.83495  -0.82467
 Alpha  occ. eigenvalues --   -0.81540  -0.80242  -0.80073  -0.78928  -0.78088
 Alpha  occ. eigenvalues --   -0.76967  -0.76006  -0.75381  -0.74024  -0.73296
 Alpha  occ. eigenvalues --   -0.71020  -0.70375  -0.69936  -0.69355  -0.67877
 Alpha  occ. eigenvalues --   -0.66858  -0.65375  -0.63287  -0.62611  -0.60783
 Alpha  occ. eigenvalues --   -0.60038  -0.59690  -0.59223  -0.57742  -0.56876
 Alpha  occ. eigenvalues --   -0.55714  -0.55039  -0.54875  -0.54144  -0.53443
 Alpha  occ. eigenvalues --   -0.52411  -0.51855  -0.51056  -0.50202  -0.49568
 Alpha  occ. eigenvalues --   -0.49177  -0.48854  -0.48637  -0.47756  -0.47482
 Alpha  occ. eigenvalues --   -0.46691  -0.46597  -0.46236  -0.45829  -0.45591
 Alpha  occ. eigenvalues --   -0.45283  -0.44591  -0.44301  -0.44037  -0.43506
 Alpha  occ. eigenvalues --   -0.43305  -0.43043  -0.42845  -0.42578  -0.42369
 Alpha  occ. eigenvalues --   -0.41840  -0.41662  -0.41361  -0.41321  -0.41284
 Alpha  occ. eigenvalues --   -0.40681  -0.40412  -0.40193  -0.39593  -0.39525
 Alpha  occ. eigenvalues --   -0.39389  -0.39252  -0.38715  -0.38409  -0.38026
 Alpha  occ. eigenvalues --   -0.37684  -0.37303  -0.37169  -0.37020  -0.36705
 Alpha  occ. eigenvalues --   -0.36214  -0.36068  -0.35956  -0.35817  -0.35036
 Alpha  occ. eigenvalues --   -0.33869  -0.33757  -0.32976  -0.32116  -0.31879
 Alpha  occ. eigenvalues --   -0.31373  -0.30057  -0.29672  -0.29212  -0.28792
 Alpha  occ. eigenvalues --   -0.28379  -0.26937  -0.25930  -0.24350  -0.23962
 Alpha  occ. eigenvalues --   -0.23915  -0.23659  -0.22829  -0.22204  -0.18276
 Alpha virt. eigenvalues --   -0.12727  -0.07701  -0.04261  -0.02587  -0.02208
 Alpha virt. eigenvalues --   -0.01454   0.01164   0.01492   0.02914   0.03381
 Alpha virt. eigenvalues --    0.04186   0.04292   0.04746   0.05334   0.05446

 Mulliken charges:
               1
     1  O   -0.217908
     2  O   -0.213564
     3  O   -0.284558
     4  O   -0.153229
     5  O   -0.234414
     6  O   -0.220568
     7  N   -0.078096
     8  N   -0.196439
     9  N   -0.134833
    10  N   -0.311129
    11  C   -0.056523
    12  C    0.420209
    13  C   -0.173223
    14  C   -0.187043
    15  C   -0.047994
    16  C    0.062336
    17  C   -0.129950
    18  C    0.110034
    19  C   -0.065396
    20  C   -0.146835
    21  C    0.125678
    22  C    0.088846
    23  C   -0.091335
    24  C    0.173405
    25  C   -0.005503
    26  C   -0.100163
    27  C    0.053482
    28  C    0.097251
    29  C    0.184996
    30  C   -0.025623
    31  C    0.008116
    32  C    0.031956
    33  C   -0.093160
    34  C    0.201914
    35  C    0.065029
    36  C    0.010018
    37  C    0.173535
    38  C    0.026208
    39  C   -0.217104
    40  C    0.186538
    41  C    0.014479
    42  C    0.108475
    43  C   -0.020166
    44  H    0.063978
    45  H   -0.095754
    46  H   -0.000628
    47  H    0.154342
    48  H    0.175721
    49  H    0.011261
    50  H   -0.058098
    51  H    0.041564
    52  H    0.038512
    53  H   -0.095846
    54  H    0.041621
    55  H    0.045699
    56  H    0.046565
    57  H    0.041490
    58  H    0.044189
    59  H   -0.029072
    60  H    0.189008
    61  H   -0.030219
    62  H    0.027796
    63  H    0.007792
    64  H    0.042105
    65  H    0.015350
    66  H    0.007546
    67  H    0.049157
    68  H    0.058156
    69  H    0.014035
    70  H    0.006662
    71  H    0.009452
    72  H    0.187183
    73  H    0.010449
    74  H   -0.006749
    75  H    0.041697
    76  H    0.030237
    77  H    0.116585
    78  H    0.012661
    79  H    0.047804
 Sum of Mulliken charges =  -0.00000

 Dipole moment (field-independent basis, Debye):
    X=              2.2276    Y=              2.5458    Z=             -1.7112  Tot=              3.7910
 Quadrupole moment (field-independent basis, Debye-Ang):
   XX=           -235.3295   YY=           -236.8026   ZZ=           -262.7346
   XY=              4.7502   XZ=            -14.4507   YZ=            -17.1045

 Normal termination of Gaussian 16 at Fri Jul 26 08:09:56 2019.
