 Gaussian 16, Revision A.03,
 Gaussian 16:  ES64L-G16RevA.03 25-Dec-2016

 --------------------------
 # td=(NStates=1) B3LYP/SVP
 --------------------------

 --
 TD
 --
 Symbolic Z-matrix:
 Charge =  0 Multiplicity = 1

                         Standard orientation:
 ---------------------------------------------------------------------
 Center     Atomic      Atomic             Coordinates (Angstroms)
 Number     Number       Type             X           Y           Z
 ---------------------------------------------------------------------
      1          8           0        5.359133   -0.205698   -3.301682
      2          8           0       -3.111265   -2.989137    3.155343
      3          8           0       -3.358216   -0.806457    2.988893
      4          8           0       -1.470241    7.308629    1.579138
      5          8           0       -0.487447    7.068075   -0.447866
      6          8           0       -1.816792   -3.974153   -0.015481
      7          7           0        2.312185    0.872598    0.606400
      8          7           0        4.420723   -0.612580   -1.299583
      9          7           0       -1.869848    0.755808   -0.363031
     10          7           0       -2.618547   -1.844221   -0.519339
     11          6           0        4.791177   -1.241220   -0.003829
     12          6           0        4.344100   -0.370089    1.190876
     13          6           0        2.925446   -0.129376    1.343387
     14          6           0        1.871615   -0.806321    2.037314
     15          6           0        0.716345   -0.025374    1.811306
     16          6           0        0.931194    0.925802    0.837834
     17          6           0        6.305019   -1.333161   -0.183521
     18          6           0       -0.604874   -0.275930    2.522755
     19          6           0        6.680755   -0.711087   -1.406679
     20          6           0        0.194953    1.965021    0.200072
     21          6           0       -1.079780    1.881300   -0.324540
     22          6           0        5.420639   -0.477890   -2.125896
     23          6           0       -1.923749    2.956120   -0.848881
     24          6           0        2.195187   -1.862724    3.066142
     25          6           0        6.979010   -2.003958    0.963704
     26          6           0       -3.131463    2.442644   -1.203507
     27          6           0       -1.141074   -1.762167    2.567697
     28          6           0       -3.088076    0.940503   -0.949671
     29          6           0       -1.458794    4.372059   -0.872034
     30          6           0        7.964632   -0.790997   -1.956187
     31          6           0       -1.546799    5.110823    0.399782
     32          6           0       -4.174541    3.047750   -1.969691
     33          6           0       -3.921899   -0.033001   -1.362366
     34          6           0       -2.593817   -1.780738    2.878267
     35          6           0       -3.696249   -1.409048   -1.103977
     36          6           0        9.227980   -0.941287   -1.409724
     37          6           0       -1.164340    6.619085    0.490114
     38          6           0       -4.689833   -2.558330   -1.431576
     39          6           0       -4.027186   -3.658379   -1.048549
     40          6           0       -2.722992   -3.336961   -0.487621
     41          6           0       -5.937098   -2.327929   -2.222183
     42          6           0       -4.367948   -5.065965   -1.119082
     43          6           0       -6.886674   -3.260804   -2.540798
     44          1           0        4.375602   -2.368966   -0.055632
     45          1           0        4.857429    0.609976    1.018767
     46          1           0        4.821613   -0.705412    2.163347
     47          1           0        2.763681    1.240148   -0.379909
     48          1           0        3.598566   -0.823033   -1.633785
     49          1           0       -0.359991    0.106127    3.418051
     50          1           0       -1.451791    0.368882    1.938487
     51          1           0        0.781203    2.965106    0.158489
     52          1           0        3.156681   -2.055643    3.026525
     53          1           0        1.740181   -1.484451    3.971585
     54          1           0        1.823739   -2.901365    2.945607
     55          1           0        6.551296   -2.594104    1.679887
     56          1           0        7.421461   -1.332930    1.695585
     57          1           0        7.964147   -2.638362    0.819182
     58          1           0       -0.904714   -2.357582    1.690529
     59          1           0       -0.650902   -2.292652    3.214323
     60          1           0       -1.497899   -0.337866   -0.500114
     61          1           0       -1.923822    4.929354   -1.453316
     62          1           0       -0.504348    4.356977   -1.233712
     63          1           0        8.200309   -0.690891   -3.017942
     64          1           0       -1.004552    4.561169    1.169745
     65          1           0       -2.660126    4.963138    0.771068
     66          1           0       -3.996085    4.264294   -1.808492
     67          1           0       -5.152339    2.800210   -1.527165
     68          1           0       -4.287406    2.582272   -2.969167
     69          1           0       -4.855211    0.296537   -1.749865
     70          1           0        9.205574   -1.087333   -0.376482
     71          1           0       10.141550   -0.795338   -2.118843
     72          1           0       -3.885736   -2.742670    3.719543
     73          1           0       -6.169419   -1.393880   -2.463697
     74          1           0       -5.213233   -5.341199   -0.193489
     75          1           0       -4.764581   -5.327997   -2.116552
     76          1           0       -3.401600   -5.587232   -0.883505
     77          1           0       -1.143896    8.208881    1.270994
     78          1           0       -7.763197   -3.014369   -3.074075
     79          1           0       -6.790351   -4.381347   -2.187507
 ---------------------------------------------------------------------

 SCF Done:  E(RB3LYP) =  -1947.82548692     A.U. after   16 cycles

 Excitation energies and oscillator strengths:

 Excited State   1:      Singlet-A      2.0242 eV  612.52 nm  f=0.3608  <S**2>=0.000
     155 ->156         0.70237
 This state for optimization and/or second-order correction.
 Total Energy, E(TD-HF/TD-DFT) =  -1947.75110051
 Copying the excited state density for this state as the 1-particle RhoCI density.

 The electronic state is 1-A.
 Alpha  occ. eigenvalues --  -19.20696 -19.16554 -19.12919 -19.12605 -19.10481
 Alpha  occ. eigenvalues --  -19.09038 -14.37592 -14.35757 -14.34914 -14.29469
 Alpha  occ. eigenvalues --  -10.33204 -10.30422 -10.27827 -10.27797 -10.26272
 Alpha  occ. eigenvalues --  -10.23932 -10.23654 -10.23612 -10.23408 -10.22239
 Alpha  occ. eigenvalues --  -10.22183 -10.21568 -10.21492 -10.21474 -10.21341
 Alpha  occ. eigenvalues --  -10.21242 -10.21149 -10.21016 -10.20910 -10.20908
 Alpha  occ. eigenvalues --  -10.20403 -10.20355 -10.20347 -10.19736 -10.19684
 Alpha  occ. eigenvalues --  -10.19530 -10.18699 -10.18407 -10.18357 -10.18248
 Alpha  occ. eigenvalues --  -10.18232 -10.17838 -10.17730  -1.11489  -1.08199
 Alpha  occ. eigenvalues --   -1.03712  -1.03680  -1.00308  -0.97372  -0.96863
 Alpha  occ. eigenvalues --   -0.96605  -0.95389  -0.92132  -0.83479  -0.83111
 Alpha  occ. eigenvalues --   -0.81731  -0.81072  -0.80268  -0.79983  -0.78224
 Alpha  occ. eigenvalues --   -0.77610  -0.76677  -0.76161  -0.74825  -0.73049
 Alpha  occ. eigenvalues --   -0.72498  -0.71425  -0.69604  -0.69002  -0.67802
 Alpha  occ. eigenvalues --   -0.66531  -0.66171  -0.64090  -0.62940  -0.60730
 Alpha  occ. eigenvalues --   -0.60073  -0.59130  -0.58812  -0.58083  -0.56893
 Alpha  occ. eigenvalues --   -0.56221  -0.55502  -0.54552  -0.54480  -0.53707
 Alpha  occ. eigenvalues --   -0.51794  -0.50958  -0.50544  -0.50504  -0.49924
 Alpha  occ. eigenvalues --   -0.49504  -0.49368  -0.49285  -0.48645  -0.47831
 Alpha  occ. eigenvalues --   -0.47643  -0.47206  -0.46457  -0.46291  -0.45726
 Alpha  occ. eigenvalues --   -0.45341  -0.44996  -0.44840  -0.44711  -0.44437
 Alpha  occ. eigenvalues --   -0.43982  -0.43698  -0.43068  -0.42788  -0.42213
 Alpha  occ. eigenvalues --   -0.42136  -0.41737  -0.41542  -0.41396  -0.41284
 Alpha  occ. eigenvalues --   -0.40958  -0.40609  -0.40335  -0.40248  -0.40054
 Alpha  occ. eigenvalues --   -0.39591  -0.39232  -0.38819  -0.38563  -0.38241
 Alpha  occ. eigenvalues --   -0.38174  -0.37587  -0.37410  -0.37042  -0.36867
 Alpha  occ. eigenvalues --   -0.36390  -0.35963  -0.35457  -0.35435  -0.34614
 Alpha  occ. eigenvalues --   -0.34098  -0.33668  -0.32778  -0.32311  -0.31568
 Alpha  occ. eigenvalues --   -0.31466  -0.30047  -0.28768  -0.28387  -0.28140
 Alpha  occ. eigenvalues --   -0.27317  -0.26065  -0.25570  -0.25180  -0.24972
 Alpha  occ. eigenvalues --   -0.24354  -0.23939  -0.23340  -0.22741  -0.18851
 Alpha virt. eigenvalues --   -0.10602  -0.07025  -0.06416  -0.01040  -0.00754
 Alpha virt. eigenvalues --    0.00615   0.01054   0.01262   0.03205   0.03385
 Alpha virt. eigenvalues --    0.03703   0.03943   0.04677   0.05090   0.05191

 Mulliken charges:
               1
     1  O   -0.212866
     2  O   -0.188706
     3  O   -0.274357
     4  O   -0.152676
     5  O   -0.271392
     6  O   -0.162509
     7  N   -0.168134
     8  N   -0.065633
     9  N   -0.145857
    10  N   -0.309279
    11  C    0.030002
    12  C    0.165937
    13  C   -0.061943
    14  C   -0.151315
    15  C   -0.113376
    16  C    0.070295
    17  C   -0.123838
    18  C    0.084284
    19  C    0.058841
    20  C   -0.161795
    21  C    0.107153
    22  C    0.068719
    23  C   -0.127484
    24  C    0.182426
    25  C    0.073630
    26  C   -0.132918
    27  C    0.135932
    28  C    0.121017
    29  C    0.345746
    30  C   -0.102548
    31  C   -0.046733
    32  C    0.070777
    33  C   -0.093473
    34  C    0.129578
    35  C    0.070263
    36  C   -0.028578
    37  C    0.155232
    38  C    0.087052
    39  C   -0.222527
    40  C    0.186268
    41  C    0.035981
    42  C    0.027578
    43  C   -0.028232
    44  H    0.053429
    45  H    0.000417
    46  H    0.019745
    47  H    0.166801
    48  H    0.076108
    49  H   -0.023198
    50  H    0.070398
    51  H    0.029398
    52  H   -0.059321
    53  H    0.020490
    54  H    0.012748
    55  H   -0.017290
    56  H    0.020179
    57  H    0.036125
    58  H    0.045743
    59  H   -0.053825
    60  H    0.213163
    61  H   -0.102539
    62  H   -0.029764
    63  H    0.006206
    64  H    0.029449
    65  H    0.031099
    66  H    0.046034
    67  H    0.014300
    68  H    0.037938
    69  H   -0.052260
    70  H   -0.022203
    71  H    0.054786
    72  H    0.182375
    73  H   -0.062376
    74  H    0.058213
    75  H    0.037741
    76  H    0.036845
    77  H    0.196683
    78  H    0.018845
    79  H    0.046975
 Sum of Mulliken charges =  -0.00000

 Dipole moment (field-independent basis, Debye):
    X=             -0.8221    Y=              0.2591    Z=              3.0538  Tot=              3.1732
 Quadrupole moment (field-independent basis, Debye-Ang):
   XX=           -220.4539   YY=           -243.6749   ZZ=           -259.5320
   XY=            -10.0979   XZ=             37.6817   YZ=              2.5468

 Normal termination of Gaussian 16 at Tue Sep 17 08:05:18 2019.
