 Gaussian 16, Revision A.03,
 Gaussian 16:  ES64L-G16RevA.03 25-Dec-2016

 --------------------------
 # td=(NStates=1) B3LYP/SVP
 --------------------------

 --
 TD
 --
 Symbolic Z-matrix:
 Charge =  0 Multiplicity = 1

                         Standard orientation:
 ---------------------------------------------------------------------
 Center     Atomic      Atomic             Coordinates (Angstroms)
 Number     Number       Type             X           Y           Z
 ---------------------------------------------------------------------
      1          8           0        5.234491   -0.303960   -3.439371
      2          8           0       -2.602835   -3.141647    3.346292
      3          8           0       -3.240562   -1.066580    2.878236
      4          8           0       -1.948673    7.094630    1.445915
      5          8           0       -1.034341    7.142744   -0.546986
      6          8           0       -1.644318   -3.950910    0.079030
      7          7           0        2.280406    1.016439    0.504479
      8          7           0        4.293817   -0.599266   -1.306383
      9          7           0       -1.914420    0.709805   -0.348469
     10          7           0       -2.517940   -1.962808   -0.383220
     11          6           0        4.784361   -1.109710   -0.019984
     12          6           0        4.396359   -0.194876    1.221306
     13          6           0        2.956439   -0.003903    1.309303
     14          6           0        2.049477   -0.634999    2.077714
     15          6           0        0.723311   -0.050033    1.822932
     16          6           0        0.910156    1.057569    0.833060
     17          6           0        6.381957   -1.105319   -0.165964
     18          6           0       -0.538765   -0.310353    2.576743
     19          6           0        6.616225   -0.757598   -1.441169
     20          6           0        0.077453    1.873334    0.271546
     21          6           0       -1.192545    1.819784   -0.231414
     22          6           0        5.351861   -0.516529   -2.239689
     23          6           0       -2.088525    2.975166   -0.692038
     24          6           0        2.319282   -1.564510    3.239721
     25          6           0        7.345504   -1.609694    0.896759
     26          6           0       -3.162496    2.333166   -1.156625
     27          6           0       -0.867844   -1.783883    2.673824
     28          6           0       -3.170007    0.849424   -0.952262
     29          6           0       -1.701276    4.332379   -0.883100
     30          6           0        7.902556   -0.586481   -2.091039
     31          6           0       -1.998150    5.142717    0.489047
     32          6           0       -4.387540    2.979720   -1.905031
     33          6           0       -3.993656   -0.178730   -1.280812
     34          6           0       -2.315476   -1.881137    2.992735
     35          6           0       -3.668847   -1.517721   -1.014265
     36          6           0        9.126199   -0.211844   -1.640743
     37          6           0       -1.667344    6.578563    0.322111
     38          6           0       -4.497777   -2.708434   -1.484444
     39          6           0       -3.889191   -3.800019   -1.008890
     40          6           0       -2.544995   -3.339986   -0.411559
     41          6           0       -5.746598   -2.622846   -2.286514
     42          6           0       -4.049401   -5.281151   -1.309065
     43          6           0       -6.553859   -3.539891   -2.595898
     44          1           0        4.442148   -2.054307    0.329144
     45          1           0        5.057676    0.699602    1.002691
     46          1           0        4.820646   -0.696948    2.274567
     47          1           0        2.815592    1.534324   -0.175640
     48          1           0        3.446355   -0.996462   -1.715090
     49          1           0       -0.481315    0.444253    3.332240
     50          1           0       -1.352175    0.292606    2.086736
     51          1           0        0.476737    2.897407    0.322160
     52          1           0        3.368871   -1.976894    3.392722
     53          1           0        2.001209   -1.374616    4.300291
     54          1           0        1.912012   -2.543765    3.245874
     55          1           0        6.801389   -2.142279    1.800060
     56          1           0        7.828568   -0.795234    1.443686
     57          1           0        8.208499   -2.050052    0.540270
     58          1           0       -0.613237   -2.271365    1.687451
     59          1           0       -0.383718   -2.096594    3.500469
     60          1           0       -1.588773   -0.242399   -0.262520
     61          1           0       -2.287468    4.914782   -1.645835
     62          1           0       -0.697301    4.557969   -1.172439
     63          1           0        7.715844   -0.648477   -3.161654
     64          1           0       -1.570307    4.361635    1.284486
     65          1           0       -2.975785    5.106008    0.756761
     66          1           0       -4.496138    4.123251   -1.676257
     67          1           0       -5.345726    2.354773   -1.698544
     68          1           0       -4.413886    2.810860   -3.067480
     69          1           0       -4.714740    0.040232   -1.777854
     70          1           0        9.209659   -0.276219   -0.470120
     71          1           0       10.285611    0.012723   -2.193692
     72          1           0       -3.597679   -3.509315    3.381302
     73          1           0       -6.221720   -1.654917   -2.393171
     74          1           0       -5.194155   -5.498111   -0.993908
     75          1           0       -4.021588   -5.478813   -2.403402
     76          1           0       -3.325379   -5.815280   -0.595716
     77          1           0       -1.851554    8.028585    1.279842
     78          1           0       -7.500314   -3.562839   -3.145189
     79          1           0       -6.302072   -4.630557   -2.279792
 ---------------------------------------------------------------------

 SCF Done:  E(RB3LYP) =  -1947.78900226     A.U. after   16 cycles

 Excitation energies and oscillator strengths:

 Excited State   1:      Singlet-A      2.0285 eV  611.22 nm  f=0.3937  <S**2>=0.000
     155 ->156         0.70258
     155 <-156        -0.11544
 This state for optimization and/or second-order correction.
 Total Energy, E(TD-HF/TD-DFT) =  -1947.71445722
 Copying the excited state density for this state as the 1-particle RhoCI density.

 The electronic state is 1-A.
 Alpha  occ. eigenvalues --  -19.19987 -19.15941 -19.13337 -19.11577 -19.10202
 Alpha  occ. eigenvalues --  -19.10089 -14.37218 -14.36113 -14.35976 -14.28561
 Alpha  occ. eigenvalues --  -10.32566 -10.30103 -10.29677 -10.25843 -10.25178
 Alpha  occ. eigenvalues --  -10.24756 -10.24068 -10.23719 -10.22995 -10.22800
 Alpha  occ. eigenvalues --  -10.22616 -10.22422 -10.22235 -10.21889 -10.21774
 Alpha  occ. eigenvalues --  -10.21066 -10.20918 -10.20849 -10.20646 -10.20400
 Alpha  occ. eigenvalues --  -10.20340 -10.20198 -10.20183 -10.19791 -10.19748
 Alpha  occ. eigenvalues --  -10.19688 -10.19474 -10.19438 -10.19425 -10.19055
 Alpha  occ. eigenvalues --  -10.18467 -10.17918 -10.17629  -1.14767  -1.05977
 Alpha  occ. eigenvalues --   -1.02972  -1.02637  -1.01948  -0.98535  -0.96239
 Alpha  occ. eigenvalues --   -0.95331  -0.93593  -0.90641  -0.83072  -0.82487
 Alpha  occ. eigenvalues --   -0.82452  -0.81092  -0.80850  -0.79945  -0.77983
 Alpha  occ. eigenvalues --   -0.77481  -0.76836  -0.75592  -0.74940  -0.72389
 Alpha  occ. eigenvalues --   -0.71836  -0.71096  -0.69836  -0.68898  -0.68199
 Alpha  occ. eigenvalues --   -0.67290  -0.65894  -0.63540  -0.61509  -0.60736
 Alpha  occ. eigenvalues --   -0.60256  -0.59003  -0.58792  -0.58475  -0.57172
 Alpha  occ. eigenvalues --   -0.56612  -0.56034  -0.54837  -0.54044  -0.53299
 Alpha  occ. eigenvalues --   -0.51927  -0.51729  -0.51376  -0.51013  -0.50744
 Alpha  occ. eigenvalues --   -0.49635  -0.49245  -0.48407  -0.47853  -0.47688
 Alpha  occ. eigenvalues --   -0.47340  -0.46797  -0.46078  -0.45519  -0.45107
 Alpha  occ. eigenvalues --   -0.44921  -0.44571  -0.44273  -0.44207  -0.44024
 Alpha  occ. eigenvalues --   -0.43624  -0.43307  -0.43163  -0.43082  -0.42831
 Alpha  occ. eigenvalues --   -0.41995  -0.41536  -0.41245  -0.40837  -0.40774
 Alpha  occ. eigenvalues --   -0.40629  -0.40346  -0.40169  -0.39881  -0.39376
 Alpha  occ. eigenvalues --   -0.38917  -0.38737  -0.38541  -0.38168  -0.37892
 Alpha  occ. eigenvalues --   -0.37647  -0.37345  -0.36641  -0.36516  -0.35962
 Alpha  occ. eigenvalues --   -0.35794  -0.35537  -0.34785  -0.34278  -0.33938
 Alpha  occ. eigenvalues --   -0.33470  -0.33445  -0.32894  -0.31700  -0.31385
 Alpha  occ. eigenvalues --   -0.31167  -0.29607  -0.29517  -0.28504  -0.27738
 Alpha  occ. eigenvalues --   -0.26841  -0.26696  -0.25704  -0.25557  -0.24916
 Alpha  occ. eigenvalues --   -0.24461  -0.24208  -0.23395  -0.22279  -0.18462
 Alpha virt. eigenvalues --   -0.10525  -0.06054  -0.05544  -0.01780  -0.00319
 Alpha virt. eigenvalues --    0.00032   0.01087   0.01534   0.02432   0.03621
 Alpha virt. eigenvalues --    0.04024   0.04210   0.04705   0.05007   0.05681

 Mulliken charges:
               1
     1  O   -0.206832
     2  O   -0.247845
     3  O   -0.252163
     4  O   -0.076962
     5  O   -0.235237
     6  O   -0.175325
     7  N   -0.140126
     8  N   -0.196695
     9  N   -0.038684
    10  N   -0.282570
    11  C    0.067454
    12  C    0.067594
    13  C   -0.001623
    14  C   -0.046541
    15  C   -0.156309
    16  C    0.169472
    17  C   -0.144104
    18  C    0.077452
    19  C   -0.076498
    20  C   -0.137947
    21  C    0.024937
    22  C    0.174568
    23  C   -0.027751
    24  C    0.056359
    25  C    0.116163
    26  C   -0.093153
    27  C    0.130892
    28  C    0.126909
    29  C    0.069636
    30  C    0.005762
    31  C   -0.065591
    32  C   -0.001134
    33  C    0.062478
    34  C    0.134148
    35  C    0.126676
    36  C   -0.106064
    37  C    0.131647
    38  C    0.059402
    39  C   -0.244936
    40  C    0.122274
    41  C    0.047841
    42  C    0.027138
    43  C   -0.080200
    44  H    0.007024
    45  H   -0.001242
    46  H    0.040087
    47  H    0.109354
    48  H    0.142973
    49  H   -0.004989
    50  H   -0.004826
    51  H   -0.008323
    52  H   -0.014982
    53  H    0.019275
    54  H   -0.002540
    55  H    0.035190
    56  H    0.025057
    57  H    0.014288
    58  H    0.096996
    59  H   -0.012878
    60  H    0.127635
    61  H    0.014195
    62  H    0.019057
    63  H    0.008829
    64  H    0.072533
    65  H   -0.000671
    66  H    0.043469
    67  H    0.032002
    68  H    0.038398
    69  H   -0.207048
    70  H    0.012105
    71  H    0.081261
    72  H    0.228733
    73  H   -0.009995
    74  H    0.043125
    75  H    0.051855
    76  H    0.053772
    77  H    0.155723
    78  H    0.025364
    79  H    0.004683
 Sum of Mulliken charges =  -0.00000

 Dipole moment (field-independent basis, Debye):
    X=             -0.0926    Y=              1.6448    Z=              3.2946  Tot=              3.6836
 Quadrupole moment (field-independent basis, Debye-Ang):
   XX=           -215.0564   YY=           -240.2300   ZZ=           -261.5725
   XY=            -10.2429   XZ=             33.0019   YZ=              5.0811

 Normal termination of Gaussian 16 at Mon Oct  7 20:03:22 2019.
