 Gaussian 16, Revision A.03,
 Gaussian 16:  ES64L-G16RevA.03 25-Dec-2016

 --------------------------
 # td=(NStates=1) B3LYP/SVP
 --------------------------

 --
 TD
 --
 Symbolic Z-matrix:
 Charge =  0 Multiplicity = 1

                         Standard orientation:
 ---------------------------------------------------------------------
 Center     Atomic      Atomic             Coordinates (Angstroms)
 Number     Number       Type             X           Y           Z
 ---------------------------------------------------------------------
      1          8           0        5.389205   -0.240880   -3.307137
      2          8           0       -3.003605   -2.910316    3.151978
      3          8           0       -3.205771   -0.643666    3.199855
      4          8           0       -1.307626    7.118503    1.632209
      5          8           0       -0.535253    6.963166   -0.471038
      6          8           0       -1.958063   -3.951356    0.167285
      7          7           0        2.355939    0.821716    0.534770
      8          7           0        4.381926   -0.838543   -1.286506
      9          7           0       -1.813146    0.697674   -0.480385
     10          7           0       -2.708448   -1.836914   -0.562870
     11          6           0        4.795723   -1.334793   -0.012754
     12          6           0        4.427713   -0.373427    1.208737
     13          6           0        2.994603   -0.054378    1.381540
     14          6           0        1.851660   -0.606213    2.066143
     15          6           0        0.763089   -0.004102    1.797507
     16          6           0        0.994903    0.989485    0.834003
     17          6           0        6.327154   -1.561058   -0.207173
     18          6           0       -0.591473   -0.123288    2.462730
     19          6           0        6.685187   -0.999373   -1.441513
     20          6           0        0.147613    2.060310    0.205313
     21          6           0       -1.036524    1.765777   -0.367189
     22          6           0        5.478022   -0.535760   -2.152458
     23          6           0       -1.823173    2.877440   -0.955762
     24          6           0        2.225094   -1.687248    3.131399
     25          6           0        7.116803   -2.089829    0.921301
     26          6           0       -3.145319    2.419642   -1.332376
     27          6           0       -1.103406   -1.597817    2.514383
     28          6           0       -3.074766    0.951685   -1.139355
     29          6           0       -1.470444    4.451740   -0.990975
     30          6           0        8.022709   -0.751371   -2.016091
     31          6           0       -1.640191    5.029099    0.384294
     32          6           0       -4.296726    3.080030   -1.946243
     33          6           0       -4.031490   -0.040479   -1.445889
     34          6           0       -2.541675   -1.628479    3.055094
     35          6           0       -3.784593   -1.400225   -1.142721
     36          6           0        9.173324   -0.741989   -1.469618
     37          6           0       -1.174842    6.517256    0.420600
     38          6           0       -4.674894   -2.532361   -1.475493
     39          6           0       -4.052271   -3.671233   -1.065417
     40          6           0       -2.784074   -3.284447   -0.413364
     41          6           0       -6.039789   -2.343728   -2.041682
     42          6           0       -4.465320   -5.105732   -1.067681
     43          6           0       -6.917556   -3.371904   -2.436129
     44          1           0        4.292965   -2.320230    0.141659
     45          1           0        5.000654    0.528253    1.213174
     46          1           0        4.944820   -0.712099    2.068236
     47          1           0        2.692273    1.332562   -0.275002
     48          1           0        3.364033   -0.773357   -1.650135
     49          1           0       -0.536840    0.199590    3.551738
     50          1           0       -1.544822    0.388306    2.149021
     51          1           0        0.486903    3.179934    0.278309
     52          1           0        3.326902   -1.595474    3.366766
     53          1           0        1.617817   -1.618947    4.080004
     54          1           0        1.889767   -2.685411    2.775565
     55          1           0        6.644171   -2.793157    1.611935
     56          1           0        7.548794   -1.402682    1.780728
     57          1           0        7.975327   -2.453040    0.278941
     58          1           0       -1.120270   -2.100411    1.332188
     59          1           0       -0.324742   -2.342862    3.224656
     60          1           0       -1.531926   -0.161390   -0.307964
     61          1           0       -1.988331    5.049735   -1.862590
     62          1           0       -0.482517    4.547348   -1.210678
     63          1           0        7.696981   -0.052454   -3.024919
     64          1           0       -1.182084    4.529240    1.141493
     65          1           0       -2.626184    5.144505    0.814444
     66          1           0       -4.005301    4.142866   -2.029155
     67          1           0       -5.226391    3.068456   -1.157873
     68          1           0       -4.602037    2.662710   -2.971499
     69          1           0       -4.920820    0.288569   -1.878858
     70          1           0        9.391893   -1.167064   -0.371542
     71          1           0       10.081001   -0.692100   -1.915141
     72          1           0       -3.934439   -2.859903    3.607438
     73          1           0       -6.433978   -1.375226   -2.121453
     74          1           0       -5.485153   -5.385237   -0.587308
     75          1           0       -4.738195   -5.637897   -2.081472
     76          1           0       -3.666064   -5.636109   -0.492646
     77          1           0       -0.817774    7.816784    1.530946
     78          1           0       -7.984609   -3.097293   -2.716592
     79          1           0       -6.477241   -4.427035   -2.291664
 ---------------------------------------------------------------------

 SCF Done:  E(RB3LYP) =  -1947.82612815     A.U. after   16 cycles

 Excitation energies and oscillator strengths:

 Excited State   1:      Singlet-A      1.8512 eV  669.76 nm  f=0.3059  <S**2>=0.000
     155 ->156         0.69902
 This state for optimization and/or second-order correction.
 Total Energy, E(TD-HF/TD-DFT) =  -1947.75809894
 Copying the excited state density for this state as the 1-particle RhoCI density.

 The electronic state is 1-A.
 Alpha  occ. eigenvalues --  -19.18700 -19.17022 -19.14052 -19.12328 -19.11761
 Alpha  occ. eigenvalues --  -19.10538 -14.37809 -14.36281 -14.34988 -14.28952
 Alpha  occ. eigenvalues --  -10.32851 -10.30519 -10.28467 -10.27580 -10.25918
 Alpha  occ. eigenvalues --  -10.24763 -10.24533 -10.23317 -10.22860 -10.22730
 Alpha  occ. eigenvalues --  -10.22414 -10.22207 -10.22051 -10.21824 -10.21795
 Alpha  occ. eigenvalues --  -10.21761 -10.21648 -10.21493 -10.21057 -10.21028
 Alpha  occ. eigenvalues --  -10.20801 -10.20740 -10.20673 -10.20634 -10.20559
 Alpha  occ. eigenvalues --  -10.20366 -10.20019 -10.19667 -10.19246 -10.19139
 Alpha  occ. eigenvalues --  -10.18512 -10.17548 -10.17236  -1.13073  -1.07460
 Alpha  occ. eigenvalues --   -1.03928  -1.03571  -1.03082  -0.99378  -0.98630
 Alpha  occ. eigenvalues --   -0.97661  -0.92980  -0.92942  -0.82380  -0.81700
 Alpha  occ. eigenvalues --   -0.81582  -0.80922  -0.79983  -0.79299  -0.78243
 Alpha  occ. eigenvalues --   -0.77041  -0.76143  -0.74475  -0.74162  -0.72318
 Alpha  occ. eigenvalues --   -0.71732  -0.70207  -0.69417  -0.69143  -0.67904
 Alpha  occ. eigenvalues --   -0.66244  -0.65205  -0.63880  -0.61650  -0.61054
 Alpha  occ. eigenvalues --   -0.60760  -0.58517  -0.58252  -0.57520  -0.57339
 Alpha  occ. eigenvalues --   -0.56147  -0.55441  -0.54938  -0.53041  -0.52720
 Alpha  occ. eigenvalues --   -0.52413  -0.51341  -0.50899  -0.50280  -0.50056
 Alpha  occ. eigenvalues --   -0.49633  -0.49147  -0.48091  -0.47467  -0.47079
 Alpha  occ. eigenvalues --   -0.46917  -0.46796  -0.46429  -0.46152  -0.45748
 Alpha  occ. eigenvalues --   -0.45121  -0.44867  -0.44353  -0.44254  -0.43602
 Alpha  occ. eigenvalues --   -0.43531  -0.43359  -0.43030  -0.42888  -0.42531
 Alpha  occ. eigenvalues --   -0.42201  -0.41758  -0.41547  -0.41526  -0.41289
 Alpha  occ. eigenvalues --   -0.40953  -0.40543  -0.40348  -0.40133  -0.39958
 Alpha  occ. eigenvalues --   -0.39786  -0.39384  -0.39180  -0.38600  -0.37634
 Alpha  occ. eigenvalues --   -0.37464  -0.37399  -0.37152  -0.36699  -0.36397
 Alpha  occ. eigenvalues --   -0.36294  -0.35726  -0.35615  -0.34760  -0.34337
 Alpha  occ. eigenvalues --   -0.33939  -0.33513  -0.32977  -0.31357  -0.30941
 Alpha  occ. eigenvalues --   -0.30650  -0.30545  -0.29355  -0.28517  -0.28084
 Alpha  occ. eigenvalues --   -0.27047  -0.26209  -0.25777  -0.25643  -0.25281
 Alpha  occ. eigenvalues --   -0.24330  -0.24230  -0.23507  -0.22068  -0.19153
 Alpha virt. eigenvalues --   -0.11437  -0.07081  -0.06547  -0.01249  -0.00505
 Alpha virt. eigenvalues --    0.00497   0.01259   0.01434   0.03419   0.03476
 Alpha virt. eigenvalues --    0.03845   0.04434   0.04553   0.05192   0.05453

 Mulliken charges:
               1
     1  O   -0.199285
     2  O   -0.220907
     3  O   -0.221052
     4  O   -0.107095
     5  O   -0.201360
     6  O   -0.171894
     7  N   -0.088095
     8  N   -0.270346
     9  N    0.009802
    10  N   -0.280098
    11  C    0.108845
    12  C    0.229115
    13  C   -0.067727
    14  C   -0.140859
    15  C    0.015308
    16  C   -0.020224
    17  C   -0.128256
    18  C    0.048501
    19  C   -0.104916
    20  C   -0.190190
    21  C    0.179071
    22  C    0.175903
    23  C   -0.162316
    24  C    0.071076
    25  C    0.004556
    26  C   -0.105871
    27  C   -0.205258
    28  C    0.117784
    29  C    0.146125
    30  C    0.016946
    31  C    0.043925
    32  C    0.044564
    33  C   -0.069776
    34  C    0.173879
    35  C    0.093327
    36  C   -0.048052
    37  C    0.100509
    38  C    0.064069
    39  C   -0.166216
    40  C    0.173969
    41  C   -0.033488
    42  C    0.005545
    43  C   -0.031750
    44  H    0.022072
    45  H   -0.028178
    46  H   -0.038308
    47  H    0.107275
    48  H    0.153171
    49  H    0.005054
    50  H    0.038167
    51  H    0.047742
    52  H    0.013892
    53  H    0.013786
    54  H    0.031519
    55  H    0.022017
    56  H    0.052700
    57  H    0.060641
    58  H    0.130318
    59  H    0.043734
    60  H    0.072740
    61  H    0.043968
    62  H   -0.022836
    63  H    0.057769
    64  H    0.006232
    65  H    0.012574
    66  H    0.012836
    67  H    0.052932
    68  H    0.058338
    69  H   -0.055410
    70  H    0.022633
    71  H    0.002195
    72  H    0.200947
    73  H   -0.028912
    74  H    0.031832
    75  H    0.045552
    76  H    0.041145
    77  H    0.108294
    78  H    0.046472
    79  H    0.027311
 Sum of Mulliken charges =  -0.00000

 Dipole moment (field-independent basis, Debye):
    X=             -1.2520    Y=              2.1845    Z=              2.5905  Tot=              3.6125
 Quadrupole moment (field-independent basis, Debye-Ang):
   XX=           -215.9680   YY=           -245.9223   ZZ=           -264.6955
   XY=             -4.7553   XZ=             33.8489   YZ=              0.7877

 Normal termination of Gaussian 16 at Fri Sep 13 11:45:08 2019.
