 Gaussian 16, Revision A.03,
 Gaussian 16:  ES64L-G16RevA.03 25-Dec-2016

 --------------------------
 # td=(NStates=1) B3LYP/SVP
 --------------------------

 --
 TD
 --
 Symbolic Z-matrix:
 Charge =  0 Multiplicity = 1

                         Standard orientation:
 ---------------------------------------------------------------------
 Center     Atomic      Atomic             Coordinates (Angstroms)
 Number     Number       Type             X           Y           Z
 ---------------------------------------------------------------------
      1          8           0        5.256514   -0.057170   -3.262788
      2          8           0       -3.093841   -2.815696    3.162439
      3          8           0       -3.438703   -0.663444    2.857876
      4          8           0       -1.695587    7.223974    1.321940
      5          8           0       -0.514761    6.940883   -0.566912
      6          8           0       -1.407065   -3.934962    0.026038
      7          7           0        2.240967    0.984277    0.571323
      8          7           0        4.309304   -0.393870   -1.180996
      9          7           0       -1.789652    0.681199   -0.457760
     10          7           0       -2.344962   -1.954354   -0.576623
     11          6           0        4.698299   -1.072598    0.089026
     12          6           0        4.321744   -0.193814    1.298619
     13          6           0        2.862764    0.070405    1.492472
     14          6           0        1.945564   -0.487437    2.310171
     15          6           0        0.690668    0.125636    1.934691
     16          6           0        0.849518    1.141112    0.892131
     17          6           0        6.188312   -1.266111   -0.128714
     18          6           0       -0.671443    0.011107    2.545102
     19          6           0        6.525294   -0.822598   -1.379200
     20          6           0        0.021058    2.114622    0.273111
     21          6           0       -1.143139    1.866861   -0.365340
     22          6           0        5.276001   -0.450003   -2.109377
     23          6           0       -1.929578    2.853397   -0.910007
     24          6           0        2.082831   -1.551368    3.402571
     25          6           0        7.008968   -2.034313    0.925601
     26          6           0       -3.091546    2.264338   -1.309252
     27          6           0       -1.156622   -1.521071    2.598396
     28          6           0       -3.063867    0.907374   -1.109878
     29          6           0       -1.683596    4.309212   -1.136491
     30          6           0        7.833059   -0.740626   -2.072839
     31          6           0       -1.981916    5.163133    0.200427
     32          6           0       -4.335812    2.800258   -2.089778
     33          6           0       -3.860718   -0.187719   -1.380899
     34          6           0       -2.576748   -1.501137    2.917687
     35          6           0       -3.525605   -1.631342   -1.071827
     36          6           0        9.042455   -0.938889   -1.462224
     37          6           0       -1.386356    6.497561    0.250409
     38          6           0       -4.360644   -2.831032   -1.426020
     39          6           0       -3.567509   -3.900867   -1.036142
     40          6           0       -2.333457   -3.324891   -0.463584
     41          6           0       -5.659891   -2.812338   -2.004957
     42          6           0       -3.730669   -5.367151   -1.241047
     43          6           0       -6.667986   -3.740517   -2.096401
     44          1           0        4.226629   -2.128336    0.207239
     45          1           0        4.848368    0.926187    1.444671
     46          1           0        4.725067   -0.729937    2.208393
     47          1           0        2.758831    1.488881    0.097013
     48          1           0        3.409981   -0.369517   -1.499015
     49          1           0       -0.685331    0.308799    3.732822
     50          1           0       -1.508166    0.497157    1.868774
     51          1           0        0.651770    3.024492   -0.009676
     52          1           0        3.220858   -1.968188    3.619482
     53          1           0        1.887382   -1.239566    4.540474
     54          1           0        1.355216   -2.414238    3.027317
     55          1           0        6.420886   -2.880290    1.493436
     56          1           0        7.366841   -1.196158    1.688024
     57          1           0        7.940542   -2.496038    0.382713
     58          1           0       -1.153747   -1.951863    1.546551
     59          1           0       -0.809014   -2.163576    3.445721
     60          1           0       -1.540669   -0.292977   -0.367838
     61          1           0       -2.383735    4.510619   -2.000647
     62          1           0       -0.655029    4.373740   -1.425533
     63          1           0        7.811984   -0.525121   -3.282755
     64          1           0       -1.665380    4.512986    1.200827
     65          1           0       -3.078344    5.121778    0.308181
     66          1           0       -4.097363    3.717166   -2.372168
     67          1           0       -5.203314    2.623292   -1.332500
     68          1           0       -4.460809    2.199450   -3.017462
     69          1           0       -4.827849   -0.255986   -1.957461
     70          1           0        9.179784   -1.109011   -0.335319
     71          1           0       10.070796   -0.964728   -1.883563
     72          1           0       -4.116525   -2.743703    2.995396
     73          1           0       -6.110662   -1.696604   -2.161369
     74          1           0       -4.807200   -5.634014   -0.777630
     75          1           0       -3.953265   -5.611580   -2.303262
     76          1           0       -2.921400   -5.824931   -0.712793
     77          1           0       -1.136285    8.108391    1.344965
     78          1           0       -7.718872   -3.601237   -2.421024
     79          1           0       -6.520625   -4.879944   -2.110949
 ---------------------------------------------------------------------

 SCF Done:  E(RB3LYP) =  -1947.83997962     A.U. after   16 cycles

 Excitation energies and oscillator strengths:

 Excited State   1:      Singlet-A      1.8788 eV  659.93 nm  f=0.3519  <S**2>=0.000
     155 ->156         0.70125
     155 <-156        -0.11896
 This state for optimization and/or second-order correction.
 Total Energy, E(TD-HF/TD-DFT) =  -1947.77093680
 Copying the excited state density for this state as the 1-particle RhoCI density.

 The electronic state is 1-A.
 Alpha  occ. eigenvalues --  -19.19630 -19.14288 -19.12307 -19.11387 -19.11357
 Alpha  occ. eigenvalues --  -19.09521 -14.36417 -14.35375 -14.35051 -14.30104
 Alpha  occ. eigenvalues --  -10.33057 -10.30013 -10.27782 -10.26965 -10.26189
 Alpha  occ. eigenvalues --  -10.25177 -10.24422 -10.23775 -10.23537 -10.23521
 Alpha  occ. eigenvalues --  -10.23304 -10.23233 -10.23151 -10.22803 -10.22625
 Alpha  occ. eigenvalues --  -10.22385 -10.21888 -10.21822 -10.21625 -10.21577
 Alpha  occ. eigenvalues --  -10.21415 -10.21025 -10.20837 -10.20693 -10.20567
 Alpha  occ. eigenvalues --  -10.20388 -10.20345 -10.20280 -10.20229 -10.20178
 Alpha  occ. eigenvalues --  -10.20072 -10.19955 -10.19839  -1.09308  -1.06051
 Alpha  occ. eigenvalues --   -1.03075  -1.02481  -0.98598  -0.97725  -0.96994
 Alpha  occ. eigenvalues --   -0.95901  -0.94431  -0.93733  -0.83345  -0.82399
 Alpha  occ. eigenvalues --   -0.81944  -0.81418  -0.81257  -0.79532  -0.77888
 Alpha  occ. eigenvalues --   -0.77087  -0.76740  -0.75684  -0.74250  -0.72847
 Alpha  occ. eigenvalues --   -0.71125  -0.70666  -0.70326  -0.69976  -0.68590
 Alpha  occ. eigenvalues --   -0.67136  -0.66172  -0.64154  -0.61467  -0.60794
 Alpha  occ. eigenvalues --   -0.60704  -0.59319  -0.57550  -0.56931  -0.56775
 Alpha  occ. eigenvalues --   -0.56430  -0.55379  -0.54085  -0.53478  -0.52989
 Alpha  occ. eigenvalues --   -0.52448  -0.51628  -0.51392  -0.50656  -0.49916
 Alpha  occ. eigenvalues --   -0.48842  -0.48155  -0.47850  -0.47623  -0.47335
 Alpha  occ. eigenvalues --   -0.47219  -0.46643  -0.46512  -0.46100  -0.45728
 Alpha  occ. eigenvalues --   -0.45171  -0.44548  -0.44325  -0.44184  -0.43398
 Alpha  occ. eigenvalues --   -0.43076  -0.42775  -0.42393  -0.42298  -0.41958
 Alpha  occ. eigenvalues --   -0.41954  -0.41883  -0.41373  -0.41280  -0.41012
 Alpha  occ. eigenvalues --   -0.40578  -0.39962  -0.39742  -0.39653  -0.39473
 Alpha  occ. eigenvalues --   -0.39160  -0.38982  -0.38818  -0.38472  -0.38165
 Alpha  occ. eigenvalues --   -0.38067  -0.37963  -0.37521  -0.36496  -0.36376
 Alpha  occ. eigenvalues --   -0.36189  -0.36093  -0.35298  -0.35153  -0.34462
 Alpha  occ. eigenvalues --   -0.34159  -0.33626  -0.32941  -0.31798  -0.31457
 Alpha  occ. eigenvalues --   -0.31367  -0.29618  -0.29442  -0.28989  -0.27792
 Alpha  occ. eigenvalues --   -0.27103  -0.26185  -0.26062  -0.25400  -0.25311
 Alpha  occ. eigenvalues --   -0.24996  -0.23998  -0.23595  -0.23046  -0.19312
 Alpha virt. eigenvalues --   -0.11937  -0.07727  -0.05850  -0.02405  -0.02091
 Alpha virt. eigenvalues --    0.00282   0.00861   0.01181   0.02415   0.02699
 Alpha virt. eigenvalues --    0.03564   0.03897   0.04736   0.05117   0.05219

 Mulliken charges:
               1
     1  O   -0.227445
     2  O   -0.301748
     3  O   -0.224480
     4  O   -0.203989
     5  O   -0.292920
     6  O   -0.185399
     7  N   -0.057091
     8  N   -0.141220
     9  N   -0.114315
    10  N   -0.246194
    11  C    0.115474
    12  C    0.095597
    13  C   -0.092695
    14  C   -0.022255
    15  C   -0.086366
    16  C    0.076889
    17  C   -0.164184
    18  C   -0.025339
    19  C   -0.047915
    20  C   -0.149445
    21  C    0.156994
    22  C    0.117487
    23  C   -0.132441
    24  C   -0.050841
    25  C   -0.009713
    26  C   -0.169867
    27  C   -0.018990
    28  C    0.182248
    29  C    0.167172
    30  C   -0.018677
    31  C   -0.059186
    32  C    0.167616
    33  C   -0.092188
    34  C    0.119824
    35  C   -0.000032
    36  C   -0.088505
    37  C    0.182653
    38  C    0.080497
    39  C   -0.209919
    40  C    0.132538
    41  C   -0.056169
    42  C    0.087377
    43  C   -0.094965
    44  H    0.049778
    45  H    0.039678
    46  H    0.000206
    47  H    0.020026
    48  H    0.095383
    49  H    0.032829
    50  H    0.065385
    51  H    0.020888
    52  H    0.022419
    53  H    0.048902
    54  H    0.083845
    55  H    0.050343
    56  H    0.059017
    57  H    0.062097
    58  H    0.105534
    59  H    0.048834
    60  H    0.129421
    61  H    0.031261
    62  H    0.012106
    63  H    0.063749
    64  H    0.090105
    65  H    0.041330
    66  H   -0.043879
    67  H    0.055282
    68  H    0.034541
    69  H   -0.019240
    70  H    0.024177
    71  H    0.034280
    72  H    0.201749
    73  H    0.030504
    74  H    0.034205
    75  H    0.041149
    76  H    0.037487
    77  H    0.229905
    78  H    0.038294
    79  H    0.030540
 Sum of Mulliken charges =  -0.00000

 Dipole moment (field-independent basis, Debye):
    X=             -1.1350    Y=              1.2281    Z=              2.5417  Tot=              3.0425
 Quadrupole moment (field-independent basis, Debye-Ang):
   XX=           -222.5886   YY=           -245.2299   ZZ=           -264.7612
   XY=             -7.9418   XZ=             40.3106   YZ=             11.5465

 Normal termination of Gaussian 16 at Fri Sep 27 18:28:34 2019.
