 Gaussian 16, Revision A.03,
 Gaussian 16:  ES64L-G16RevA.03 25-Dec-2016

 --------------------------
 # td=(NStates=1) B3LYP/SVP
 --------------------------

 --
 TD
 --
 Symbolic Z-matrix:
 Charge =  0 Multiplicity = 1

                         Standard orientation:
 ---------------------------------------------------------------------
 Center     Atomic      Atomic             Coordinates (Angstroms)
 Number     Number       Type             X           Y           Z
 ---------------------------------------------------------------------
      1          8           0       -3.128666   -1.783917   -2.774996
      2          8           0        2.760890    3.504115    3.015453
      3          8           0        3.884165    1.710930    3.980331
      4          8           0        7.793234   -1.421657   -0.638357
      5          8           0        6.763977   -2.987407   -1.907204
      6          8           0       -2.767570    1.661210    1.350466
      7          7           0       -0.150937   -2.356482    1.166490
      8          7           0       -2.575957   -1.331500   -0.586209
      9          7           0        1.197385    0.045266   -0.602797
     10          7           0       -1.119091    1.396251   -0.285007
     11          6           0       -3.300027   -1.274879    0.731317
     12          6           0       -2.585029   -2.212296    1.814730
     13          6           0       -1.101007   -1.832429    1.896611
     14          6           0       -0.568309   -0.933636    2.851769
     15          6           0        0.794960   -0.880446    2.578775
     16          6           0        1.057417   -1.762212    1.383519
     17          6           0       -4.588644   -1.837951    0.329775
     18          6           0        1.882061   -0.010222    3.248541
     19          6           0       -4.757114   -2.110911   -0.963317
     20          6           0        2.065124   -1.881552    0.444659
     21          6           0        2.218083   -0.950975   -0.460884
     22          6           0       -3.361149   -1.775235   -1.563173
     23          6           0        3.106465   -0.730547   -1.636315
     24          6           0       -1.382681   -0.081092    3.760359
     25          6           0       -5.640377   -1.980181    1.413888
     26          6           0        2.499773    0.217246   -2.420260
     27          6           0        1.790502    1.405643    2.720516
     28          6           0        1.370924    0.838363   -1.826796
     29          6           0        4.237529   -1.589911   -1.828726
     30          6           0       -5.827333   -2.768669   -1.752056
     31          6           0        5.512960   -1.081376   -0.923364
     32          6           0        3.032533    0.619194   -3.818008
     33          6           0        0.453508    1.772612   -2.101455
     34          6           0        2.905922    2.225532    3.318639
     35          6           0       -0.751527    2.001955   -1.394193
     36          6           0       -6.894678   -3.333060   -1.247989
     37          6           0        6.702100   -1.976047   -1.237920
     38          6           0       -1.604620    3.290813   -1.543146
     39          6           0       -2.432845    3.322928   -0.476065
     40          6           0       -2.123890    2.034250    0.298604
     41          6           0       -1.420378    4.207944   -2.670280
     42          6           0       -3.384754    4.295652   -0.056657
     43          6           0       -2.093517    5.389910   -2.883843
     44          1           0       -3.350398   -0.307847    1.223755
     45          1           0       -2.801248   -3.249393    1.688774
     46          1           0       -3.128248   -2.073083    2.796567
     47          1           0       -0.071074   -2.909528    0.342062
     48          1           0       -1.961718   -0.562474   -0.751974
     49          1           0        1.626304    0.008461    4.411167
     50          1           0        2.825070   -0.426779    2.949880
     51          1           0        3.177946   -2.407032    0.840745
     52          1           0       -1.936380   -0.737890    4.360205
     53          1           0       -0.793236    0.337066    4.431330
     54          1           0       -2.092046    0.734080    3.341621
     55          1           0       -5.477503   -1.493744    2.336226
     56          1           0       -5.461180   -2.992209    1.909284
     57          1           0       -6.680021   -2.024090    1.167473
     58          1           0        1.806052    1.469415    1.670551
     59          1           0        0.887413    2.044299    2.938499
     60          1           0        0.419286    0.346465   -0.104332
     61          1           0        4.497581   -1.477607   -2.942792
     62          1           0        3.995186   -2.582339   -1.666068
     63          1           0       -5.569592   -2.697631   -2.754596
     64          1           0        5.250234   -1.073641    0.208048
     65          1           0        5.892361    0.066918   -1.050395
     66          1           0        3.898927    0.044347   -4.096168
     67          1           0        3.063382    1.804872   -4.058380
     68          1           0        2.428364    0.334724   -4.793429
     69          1           0        0.414884    2.292502   -3.099309
     70          1           0       -7.166521   -3.444540   -0.353541
     71          1           0       -7.773454   -3.642108   -1.815584
     72          1           0        3.406560    3.934767    3.554119
     73          1           0       -0.542214    4.031345   -3.412356
     74          1           0       -4.295246    4.651793   -0.833990
     75          1           0       -3.829341    3.725949    0.623112
     76          1           0       -3.007635    5.342404    0.311454
     77          1           0        8.475638   -2.181018   -1.097466
     78          1           0       -1.999052    5.969381   -3.850157
     79          1           0       -2.909008    5.692730   -2.400742
 ---------------------------------------------------------------------

 SCF Done:  E(RB3LYP) =  -1947.79340004     A.U. after   21 cycles

 Excitation energies and oscillator strengths:

 Excited State   1:      Singlet-A      0.6726 eV 1843.49 nm  f=0.0055  <S**2>=0.000
     155 ->156         0.70484
 This state for optimization and/or second-order correction.
 Total Energy, E(TD-HF/TD-DFT) =  -1947.76868420
 Copying the excited state density for this state as the 1-particle RhoCI density.

 The electronic state is 1-A.
 Alpha  occ. eigenvalues --  -19.20061 -19.19728 -19.15112 -19.12865 -19.12071
 Alpha  occ. eigenvalues --  -19.07386 -14.37275 -14.36563 -14.32675 -14.32234
 Alpha  occ. eigenvalues --  -10.33829 -10.32069 -10.29389 -10.27232 -10.26817
 Alpha  occ. eigenvalues --  -10.25966 -10.25826 -10.25001 -10.23775 -10.23654
 Alpha  occ. eigenvalues --  -10.23031 -10.22739 -10.22688 -10.22421 -10.21947
 Alpha  occ. eigenvalues --  -10.21912 -10.21719 -10.21064 -10.20510 -10.20485
 Alpha  occ. eigenvalues --  -10.20175 -10.20136 -10.19690 -10.19492 -10.19469
 Alpha  occ. eigenvalues --  -10.19343 -10.18363 -10.18107 -10.17994 -10.17498
 Alpha  occ. eigenvalues --  -10.16663 -10.16201 -10.15934  -1.11099  -1.10432
 Alpha  occ. eigenvalues --   -1.01771  -1.01226  -0.99620  -0.99006  -0.97614
 Alpha  occ. eigenvalues --   -0.97584  -0.95174  -0.91727  -0.84726  -0.83826
 Alpha  occ. eigenvalues --   -0.82371  -0.80578  -0.80404  -0.79415  -0.78529
 Alpha  occ. eigenvalues --   -0.77419  -0.76676  -0.76510  -0.74342  -0.72993
 Alpha  occ. eigenvalues --   -0.71292  -0.70538  -0.70306  -0.69976  -0.69081
 Alpha  occ. eigenvalues --   -0.67730  -0.66695  -0.63933  -0.61841  -0.61089
 Alpha  occ. eigenvalues --   -0.60654  -0.59794  -0.58760  -0.57790  -0.56741
 Alpha  occ. eigenvalues --   -0.56719  -0.56116  -0.55079  -0.54425  -0.53518
 Alpha  occ. eigenvalues --   -0.52783  -0.52223  -0.51178  -0.50433  -0.50293
 Alpha  occ. eigenvalues --   -0.49694  -0.49224  -0.49010  -0.48688  -0.48061
 Alpha  occ. eigenvalues --   -0.47862  -0.47747  -0.47119  -0.46281  -0.45978
 Alpha  occ. eigenvalues --   -0.45650  -0.45282  -0.45100  -0.44630  -0.44040
 Alpha  occ. eigenvalues --   -0.43953  -0.43737  -0.43306  -0.42633  -0.42082
 Alpha  occ. eigenvalues --   -0.41802  -0.41578  -0.41371  -0.40801  -0.40343
 Alpha  occ. eigenvalues --   -0.40192  -0.40047  -0.40015  -0.39757  -0.39579
 Alpha  occ. eigenvalues --   -0.39010  -0.38864  -0.38523  -0.38404  -0.38066
 Alpha  occ. eigenvalues --   -0.37963  -0.37510  -0.37363  -0.36884  -0.36695
 Alpha  occ. eigenvalues --   -0.36373  -0.35968  -0.35848  -0.35676  -0.34870
 Alpha  occ. eigenvalues --   -0.33946  -0.33715  -0.33688  -0.32351  -0.32179
 Alpha  occ. eigenvalues --   -0.31339  -0.30663  -0.30121  -0.29968  -0.29371
 Alpha  occ. eigenvalues --   -0.27390  -0.27123  -0.26761  -0.24763  -0.24428
 Alpha  occ. eigenvalues --   -0.23835  -0.23112  -0.22722  -0.22310  -0.18577
 Alpha virt. eigenvalues --   -0.13723  -0.08186  -0.03344  -0.02888  -0.02200
 Alpha virt. eigenvalues --   -0.00736   0.00010   0.01465   0.02418   0.03007
 Alpha virt. eigenvalues --    0.03276   0.03830   0.04197   0.04451   0.04943

 Mulliken charges:
               1
     1  O   -0.266798
     2  O   -0.121976
     3  O   -0.306032
     4  O   -0.249815
     5  O   -0.233460
     6  O   -0.271880
     7  N    0.065392
     8  N   -0.156204
     9  N   -0.177434
    10  N   -0.224507
    11  C    0.072092
    12  C    0.170346
    13  C   -0.104085
    14  C   -0.140889
    15  C   -0.138918
    16  C   -0.063923
    17  C   -0.167314
    18  C    0.163593
    19  C   -0.073459
    20  C   -0.210316
    21  C    0.191994
    22  C    0.107745
    23  C   -0.052383
    24  C    0.204301
    25  C    0.124645
    26  C   -0.066235
    27  C   -0.004252
    28  C    0.187140
    29  C    0.132588
    30  C    0.087667
    31  C   -0.106841
    32  C    0.007155
    33  C   -0.096633
    34  C    0.140329
    35  C    0.061562
    36  C    0.054690
    37  C    0.189490
    38  C    0.070061
    39  C   -0.162825
    40  C    0.178693
    41  C   -0.053844
    42  C    0.028300
    43  C    0.003151
    44  H    0.055063
    45  H   -0.029703
    46  H   -0.008470
    47  H    0.105008
    48  H    0.125989
    49  H    0.033137
    50  H   -0.006291
    51  H    0.037001
    52  H   -0.030794
    53  H   -0.073582
    54  H    0.068139
    55  H   -0.014124
    56  H    0.003443
    57  H    0.022900
    58  H    0.004402
    59  H    0.037057
    60  H    0.139111
    61  H    0.025414
    62  H    0.023409
    63  H   -0.030907
    64  H    0.079385
    65  H    0.079600
    66  H    0.008069
    67  H    0.050628
    68  H    0.041385
    69  H    0.012893
    70  H   -0.079452
    71  H    0.007031
    72  H    0.163596
    73  H    0.023626
    74  H    0.046437
    75  H   -0.006343
    76  H    0.058900
    77  H    0.225955
    78  H    0.035411
    79  H   -0.024231
 Sum of Mulliken charges =  -0.00000

 Dipole moment (field-independent basis, Debye):
    X=              3.0240    Y=              3.9912    Z=             -1.1342  Tot=              5.1343
 Quadrupole moment (field-independent basis, Debye-Ang):
   XX=           -244.2516   YY=           -238.1433   ZZ=           -260.3978
   XY=             -0.8620   XZ=            -26.5557   YZ=            -15.2575

 Normal termination of Gaussian 16 at Wed Jul 24 07:22:30 2019.
