 Gaussian 16, Revision A.03,
 Gaussian 16:  ES64L-G16RevA.03 25-Dec-2016

 --------------------------
 # td=(NStates=1) B3LYP/SVP
 --------------------------

 --
 TD
 --
 Symbolic Z-matrix:
 Charge =  0 Multiplicity = 1

                         Standard orientation:
 ---------------------------------------------------------------------
 Center     Atomic      Atomic             Coordinates (Angstroms)
 Number     Number       Type             X           Y           Z
 ---------------------------------------------------------------------
      1          8           0        5.342813   -0.018853   -3.298262
      2          8           0       -3.021666   -3.032090    2.889022
      3          8           0       -3.230658   -0.706970    3.115436
      4          8           0       -1.996044    7.272786    1.364830
      5          8           0       -0.719965    6.996954   -0.417242
      6          8           0       -1.502258   -4.053989    0.139085
      7          7           0        2.321608    0.950244    0.660363
      8          7           0        4.299597   -0.536988   -1.331441
      9          7           0       -1.758395    0.684775   -0.482823
     10          7           0       -2.450048   -1.981750   -0.491349
     11          6           0        4.642578   -0.988987    0.034873
     12          6           0        4.406075   -0.098383    1.265512
     13          6           0        2.943920   -0.021210    1.388857
     14          6           0        1.959015   -0.584913    2.201073
     15          6           0        0.754875    0.046031    1.896301
     16          6           0        0.925286    1.050168    0.986668
     17          6           0        6.223054   -1.214329   -0.135510
     18          6           0       -0.593853   -0.235523    2.538085
     19          6           0        6.596459   -0.774311   -1.391589
     20          6           0        0.218404    2.056211    0.242230
     21          6           0       -1.083520    1.808427   -0.312820
     22          6           0        5.468727   -0.321561   -2.171133
     23          6           0       -2.007328    2.885847   -0.837592
     24          6           0        2.171693   -1.750625    3.174927
     25          6           0        7.001006   -1.814604    0.954325
     26          6           0       -3.138285    2.326965   -1.317880
     27          6           0       -1.034500   -1.672626    2.538938
     28          6           0       -2.973739    0.764109   -1.139491
     29          6           0       -1.812706    4.427467   -0.899373
     30          6           0        7.925796   -0.607922   -2.007745
     31          6           0       -2.107502    5.148067    0.350447
     32          6           0       -4.397377    2.889869   -2.019092
     33          6           0       -3.942159   -0.248741   -1.432233
     34          6           0       -2.580270   -1.674314    2.927588
     35          6           0       -3.564723   -1.607684   -1.054071
     36          6           0        9.091923   -0.672909   -1.432077
     37          6           0       -1.482815    6.503224    0.398317
     38          6           0       -4.458691   -2.790640   -1.457967
     39          6           0       -3.739205   -3.891304   -1.002762
     40          6           0       -2.397181   -3.429669   -0.417909
     41          6           0       -5.623572   -2.592973   -2.186594
     42          6           0       -4.053183   -5.295774   -0.988919
     43          6           0       -6.479697   -3.604483   -2.511981
     44          1           0        4.137888   -1.941563    0.133991
     45          1           0        4.792254    0.941131    1.210860
     46          1           0        4.884457   -0.892783    2.161402
     47          1           0        2.825242    1.440111   -0.229605
     48          1           0        3.475293   -0.547165   -1.806585
     49          1           0       -0.502841    0.172213    3.434027
     50          1           0       -1.454929    0.361465    2.028805
     51          1           0        0.692759    2.964680    0.191479
     52          1           0        3.291955   -1.919183    3.422824
     53          1           0        1.722289   -1.563620    4.049492
     54          1           0        1.611822   -2.623269    2.619856
     55          1           0        6.377823   -2.435938    1.710542
     56          1           0        7.732242   -1.178004    1.608255
     57          1           0        7.785774   -2.550397    0.378630
     58          1           0       -1.235221   -2.316734    1.628158
     59          1           0       -0.505245   -2.358716    3.333895
     60          1           0       -1.506884   -0.370938   -0.197213
     61          1           0       -2.288698    4.758830   -1.804257
     62          1           0       -0.686869    4.598624   -1.249938
     63          1           0        7.955480   -0.336881   -3.069847
     64          1           0       -1.875529    4.441843    1.196437
     65          1           0       -3.077114    5.309800    0.752185
     66          1           0       -4.045974    3.880359   -2.443188
     67          1           0       -5.223015    2.818502   -1.217210
     68          1           0       -4.654342    2.364027   -2.909414
     69          1           0       -4.772729   -0.019425   -2.039702
     70          1           0        9.176284   -0.713877   -0.318940
     71          1           0       10.058261   -0.490408   -2.094962
     72          1           0       -4.063093   -2.863735    2.946076
     73          1           0       -6.021414   -1.513000   -2.530098
     74          1           0       -4.925266   -5.623833   -0.507854
     75          1           0       -4.068904   -5.539908   -2.175485
     76          1           0       -3.248088   -6.024094   -0.489037
     77          1           0       -1.803575    8.304050    1.282673
     78          1           0       -7.293703   -3.370705   -2.854491
     79          1           0       -6.284533   -4.715544   -2.066383
 ---------------------------------------------------------------------

 SCF Done:  E(RB3LYP) =  -1947.81659101     A.U. after   16 cycles

 Excitation energies and oscillator strengths:

 Excited State   1:      Singlet-A      1.9522 eV  635.09 nm  f=0.3815  <S**2>=0.000
     155 ->156         0.70135
 This state for optimization and/or second-order correction.
 Total Energy, E(TD-HF/TD-DFT) =  -1947.74484746
 Copying the excited state density for this state as the 1-particle RhoCI density.

 The electronic state is 1-A.
 Alpha  occ. eigenvalues --  -19.18353 -19.16867 -19.13014 -19.12248 -19.12050
 Alpha  occ. eigenvalues --  -19.10654 -14.37426 -14.37007 -14.33233 -14.29892
 Alpha  occ. eigenvalues --  -10.32191 -10.30722 -10.28126 -10.28027 -10.25636
 Alpha  occ. eigenvalues --  -10.25075 -10.24938 -10.23966 -10.23262 -10.23120
 Alpha  occ. eigenvalues --  -10.23069 -10.21694 -10.21387 -10.21358 -10.21305
 Alpha  occ. eigenvalues --  -10.21177 -10.21136 -10.21041 -10.20960 -10.20831
 Alpha  occ. eigenvalues --  -10.20681 -10.20472 -10.20369 -10.20052 -10.19992
 Alpha  occ. eigenvalues --  -10.19935 -10.19566 -10.19350 -10.19232 -10.19215
 Alpha  occ. eigenvalues --  -10.17945 -10.17851 -10.17832  -1.09015  -1.07239
 Alpha  occ. eigenvalues --   -1.04818  -1.02021  -0.99253  -0.99149  -0.98228
 Alpha  occ. eigenvalues --   -0.96455  -0.92153  -0.91983  -0.82271  -0.82014
 Alpha  occ. eigenvalues --   -0.81416  -0.81164  -0.79959  -0.78988  -0.77884
 Alpha  occ. eigenvalues --   -0.77136  -0.76143  -0.75325  -0.74530  -0.72089
 Alpha  occ. eigenvalues --   -0.71557  -0.70509  -0.69994  -0.67904  -0.67608
 Alpha  occ. eigenvalues --   -0.65550  -0.65470  -0.63220  -0.61254  -0.60369
 Alpha  occ. eigenvalues --   -0.59565  -0.59163  -0.58056  -0.56356  -0.55698
 Alpha  occ. eigenvalues --   -0.55016  -0.54474  -0.54063  -0.53093  -0.52469
 Alpha  occ. eigenvalues --   -0.52312  -0.51123  -0.50769  -0.50019  -0.49142
 Alpha  occ. eigenvalues --   -0.48526  -0.47929  -0.47798  -0.47512  -0.47219
 Alpha  occ. eigenvalues --   -0.47129  -0.46384  -0.46069  -0.45775  -0.45465
 Alpha  occ. eigenvalues --   -0.45344  -0.44992  -0.44707  -0.44184  -0.44100
 Alpha  occ. eigenvalues --   -0.43672  -0.43281  -0.43030  -0.42821  -0.42611
 Alpha  occ. eigenvalues --   -0.42160  -0.41775  -0.41532  -0.41388  -0.41136
 Alpha  occ. eigenvalues --   -0.40996  -0.40596  -0.40337  -0.40030  -0.39724
 Alpha  occ. eigenvalues --   -0.39630  -0.39344  -0.38568  -0.38437  -0.38016
 Alpha  occ. eigenvalues --   -0.37674  -0.37419  -0.37284  -0.37072  -0.37014
 Alpha  occ. eigenvalues --   -0.36275  -0.35369  -0.34572  -0.34166  -0.33610
 Alpha  occ. eigenvalues --   -0.33191  -0.33164  -0.32735  -0.31976  -0.31845
 Alpha  occ. eigenvalues --   -0.31486  -0.31164  -0.28244  -0.28110  -0.27973
 Alpha  occ. eigenvalues --   -0.26936  -0.26311  -0.26205  -0.25702  -0.24658
 Alpha  occ. eigenvalues --   -0.24422  -0.23986  -0.23282  -0.22117  -0.18631
 Alpha virt. eigenvalues --   -0.10850  -0.06577  -0.06218  -0.01047  -0.00663
 Alpha virt. eigenvalues --    0.01024   0.01632   0.02167   0.02595   0.02802
 Alpha virt. eigenvalues --    0.03812   0.04034   0.04426   0.04799   0.05440

 Mulliken charges:
               1
     1  O   -0.166013
     2  O   -0.276322
     3  O   -0.190831
     4  O   -0.232895
     5  O   -0.234798
     6  O   -0.192951
     7  N   -0.186724
     8  N   -0.252769
     9  N   -0.092871
    10  N   -0.304899
    11  C    0.103692
    12  C    0.132622
    13  C   -0.060149
    14  C   -0.143255
    15  C   -0.110047
    16  C    0.098461
    17  C   -0.123302
    18  C    0.157475
    19  C   -0.025357
    20  C   -0.063300
    21  C    0.095337
    22  C    0.139211
    23  C   -0.155610
    24  C    0.113191
    25  C   -0.046216
    26  C   -0.147718
    27  C   -0.100777
    28  C    0.080257
    29  C    0.090747
    30  C    0.005014
    31  C    0.043536
    32  C    0.104467
    33  C   -0.060414
    34  C    0.148617
    35  C    0.069656
    36  C   -0.069147
    37  C    0.136231
    38  C    0.102675
    39  C   -0.189376
    40  C    0.209631
    41  C   -0.129697
    42  C    0.007960
    43  C    0.064386
    44  H    0.017381
    45  H    0.017604
    46  H    0.037556
    47  H    0.154996
    48  H    0.091850
    49  H   -0.035601
    50  H    0.028492
    51  H   -0.026509
    52  H    0.007493
    53  H   -0.015218
    54  H    0.069979
    55  H    0.047547
    56  H    0.066956
    57  H    0.064883
    58  H    0.090000
    59  H    0.043421
    60  H    0.203126
    61  H    0.000445
    62  H    0.040138
    63  H    0.008818
    64  H    0.045961
    65  H    0.011745
    66  H    0.020760
    67  H    0.058808
    68  H    0.019131
    69  H   -0.039912
    70  H    0.015101
    71  H    0.046292
    72  H    0.198697
    73  H    0.032648
    74  H    0.028860
    75  H    0.052109
    76  H    0.045988
    77  H    0.229648
    78  H   -0.072085
    79  H    0.045166
 Sum of Mulliken charges =  -0.00000

 Dipole moment (field-independent basis, Debye):
    X=             -1.1947    Y=              1.9196    Z=              2.2637  Tot=              3.1995
 Quadrupole moment (field-independent basis, Debye-Ang):
   XX=           -213.1595   YY=           -244.7831   ZZ=           -263.2812
   XY=             -9.6762   XZ=             30.8992   YZ=              4.8554

 Normal termination of Gaussian 16 at Mon Sep 30 07:35:30 2019.
