 Gaussian 16, Revision A.03,
 Gaussian 16:  ES64L-G16RevA.03 25-Dec-2016

 --------------------------
 # td=(NStates=1) B3LYP/SVP
 --------------------------

 --
 TD
 --
 Symbolic Z-matrix:
 Charge =  0 Multiplicity = 1

                         Standard orientation:
 ---------------------------------------------------------------------
 Center     Atomic      Atomic             Coordinates (Angstroms)
 Number     Number       Type             X           Y           Z
 ---------------------------------------------------------------------
      1          8           0       -3.129019   -1.531341   -2.846620
      2          8           0        3.161608    3.218953    2.771077
      3          8           0        3.219221    1.764144    4.663130
      4          8           0        7.933288   -1.512493   -0.740114
      5          8           0        6.779179   -3.106730   -1.922175
      6          8           0       -2.651825    1.730761    1.331231
      7          7           0       -0.419307   -2.335960    1.083355
      8          7           0       -2.612106   -1.252539   -0.549671
      9          7           0        1.198880   -0.029881   -0.708320
     10          7           0       -0.925009    1.364087   -0.277678
     11          6           0       -3.410081   -1.248714    0.648214
     12          6           0       -2.758633   -2.240942    1.730526
     13          6           0       -1.393668   -1.810891    1.931149
     14          6           0       -0.759126   -0.939998    2.834566
     15          6           0        0.581392   -0.912520    2.554993
     16          6           0        0.784638   -1.748280    1.299633
     17          6           0       -4.803353   -1.821096    0.199188
     18          6           0        1.669145   -0.192275    3.097020
     19          6           0       -4.758943   -2.076182   -1.202025
     20          6           0        1.978836   -1.915352    0.507544
     21          6           0        2.085662   -0.964565   -0.523932
     22          6           0       -3.375877   -1.594607   -1.717973
     23          6           0        3.124425   -0.851004   -1.519881
     24          6           0       -1.452194   -0.195281    3.942766
     25          6           0       -5.787056   -2.094790    1.285282
     26          6           0        2.656923    0.298823   -2.365336
     27          6           0        1.956113    1.193295    2.737762
     28          6           0        1.409521    0.745497   -1.910448
     29          6           0        4.333001   -1.717660   -1.658567
     30          6           0       -5.796718   -2.681372   -2.012640
     31          6           0        5.483815   -1.221068   -0.930105
     32          6           0        3.436410    0.868681   -3.566742
     33          6           0        0.522472    1.928149   -2.068455
     34          6           0        2.876891    2.090012    3.516030
     35          6           0       -0.518191    2.158769   -1.376156
     36          6           0       -6.914057   -3.232247   -1.600619
     37          6           0        6.744477   -2.033951   -1.268005
     38          6           0       -1.473626    3.359283   -1.566485
     39          6           0       -2.271380    3.294811   -0.456033
     40          6           0       -2.005162    2.025990    0.392179
     41          6           0       -1.184971    4.516909   -2.564570
     42          6           0       -3.395990    4.266837   -0.089660
     43          6           0       -1.927206    5.606179   -2.602321
     44          1           0       -3.238331   -0.282010    1.209736
     45          1           0       -2.681287   -3.316512    1.456932
     46          1           0       -3.353581   -2.179356    2.691211
     47          1           0       -0.699434   -2.669695    0.170716
     48          1           0       -2.023295   -0.535596   -0.541017
     49          1           0        1.397325   -0.252120    4.272590
     50          1           0        2.638651   -0.761611    3.039500
     51          1           0        2.481054   -2.911028    0.599251
     52          1           0       -2.168739   -0.964682    4.593657
     53          1           0       -0.691382    0.087731    4.816372
     54          1           0       -2.001616    0.558851    3.228660
     55          1           0       -5.348569   -1.437140    2.216472
     56          1           0       -5.706042   -3.116957    1.700523
     57          1           0       -6.779757   -1.710403    1.205839
     58          1           0        2.379700    1.481090    1.673472
     59          1           0        0.999992    1.650062    2.866512
     60          1           0        0.483573    0.464352   -0.045371
     61          1           0        4.526412   -1.932510   -2.743438
     62          1           0        4.208076   -2.746880   -1.238243
     63          1           0       -5.375255   -2.498048   -3.108863
     64          1           0        5.120725   -1.388647    0.129490
     65          1           0        5.771006   -0.182282   -0.998092
     66          1           0        4.156495    0.334043   -4.113035
     67          1           0        3.783624    1.900875   -3.242090
     68          1           0        2.700228    1.206836   -4.393279
     69          1           0        0.779673    2.287943   -3.064162
     70          1           0       -7.232846   -3.223077   -0.466652
     71          1           0       -7.530307   -3.792526   -2.368955
     72          1           0        3.710985    3.930315    3.498737
     73          1           0       -0.435568    4.382083   -3.464972
     74          1           0       -4.229767    4.418962   -0.916619
     75          1           0       -4.021777    3.985994    0.857868
     76          1           0       -2.821702    5.133287    0.221574
     77          1           0        8.685410   -1.931234   -1.177808
     78          1           0       -1.910497    6.256586   -3.480868
     79          1           0       -2.714911    5.864355   -2.033066
 ---------------------------------------------------------------------

 SCF Done:  E(RB3LYP) =  -1947.78632792     A.U. after   20 cycles

 Excitation energies and oscillator strengths:

 Excited State   1:      Singlet-A      0.6985 eV 1775.00 nm  f=0.0182  <S**2>=0.000
     155 ->156         0.71124
     155 <-156        -0.10698
 This state for optimization and/or second-order correction.
 Total Energy, E(TD-HF/TD-DFT) =  -1947.76065849
 Copying the excited state density for this state as the 1-particle RhoCI density.

 The electronic state is 1-A.
 Alpha  occ. eigenvalues --  -19.20177 -19.19050 -19.14506 -19.12612 -19.12368
 Alpha  occ. eigenvalues --  -19.10444 -14.37227 -14.35918 -14.32130 -14.30030
 Alpha  occ. eigenvalues --  -10.34359 -10.32101 -10.28023 -10.27977 -10.26647
 Alpha  occ. eigenvalues --  -10.25437 -10.24102 -10.23727 -10.23672 -10.23595
 Alpha  occ. eigenvalues --  -10.22917 -10.22474 -10.22126 -10.21905 -10.21902
 Alpha  occ. eigenvalues --  -10.21467 -10.21292 -10.21240 -10.20413 -10.20333
 Alpha  occ. eigenvalues --  -10.20330 -10.20279 -10.20194 -10.20040 -10.19727
 Alpha  occ. eigenvalues --  -10.19583 -10.19296 -10.19152 -10.19018 -10.18914
 Alpha  occ. eigenvalues --  -10.18505 -10.17778 -10.17543  -1.08586  -1.06594
 Alpha  occ. eigenvalues --   -1.05122  -1.04996  -0.99939  -0.99326  -0.99118
 Alpha  occ. eigenvalues --   -0.97083  -0.92367  -0.90733  -0.84242  -0.82571
 Alpha  occ. eigenvalues --   -0.81773  -0.80044  -0.79739  -0.79073  -0.78614
 Alpha  occ. eigenvalues --   -0.76950  -0.76438  -0.74896  -0.74550  -0.72954
 Alpha  occ. eigenvalues --   -0.70355  -0.69619  -0.69361  -0.68943  -0.67267
 Alpha  occ. eigenvalues --   -0.66590  -0.65199  -0.62075  -0.60930  -0.60181
 Alpha  occ. eigenvalues --   -0.59872  -0.58694  -0.58136  -0.57501  -0.55977
 Alpha  occ. eigenvalues --   -0.55429  -0.54884  -0.54771  -0.53017  -0.52321
 Alpha  occ. eigenvalues --   -0.52045  -0.51306  -0.50665  -0.50013  -0.49366
 Alpha  occ. eigenvalues --   -0.48973  -0.48790  -0.48555  -0.48416  -0.47980
 Alpha  occ. eigenvalues --   -0.47007  -0.46849  -0.46483  -0.45878  -0.45253
 Alpha  occ. eigenvalues --   -0.45158  -0.44528  -0.44240  -0.44181  -0.43832
 Alpha  occ. eigenvalues --   -0.43582  -0.43342  -0.43015  -0.42881  -0.42781
 Alpha  occ. eigenvalues --   -0.42452  -0.42231  -0.42209  -0.41747  -0.41207
 Alpha  occ. eigenvalues --   -0.40986  -0.40667  -0.40418  -0.39936  -0.39307
 Alpha  occ. eigenvalues --   -0.39180  -0.39038  -0.38813  -0.38317  -0.37817
 Alpha  occ. eigenvalues --   -0.37435  -0.37202  -0.36758  -0.36325  -0.36220
 Alpha  occ. eigenvalues --   -0.35708  -0.35478  -0.35155  -0.34942  -0.34357
 Alpha  occ. eigenvalues --   -0.33648  -0.33001  -0.32224  -0.32007  -0.31686
 Alpha  occ. eigenvalues --   -0.31056  -0.30163  -0.29520  -0.29246  -0.28453
 Alpha  occ. eigenvalues --   -0.26950  -0.26113  -0.25747  -0.24897  -0.24600
 Alpha  occ. eigenvalues --   -0.23630  -0.23503  -0.22280  -0.22146  -0.18597
 Alpha virt. eigenvalues --   -0.13692  -0.06658  -0.04643  -0.03291  -0.00994
 Alpha virt. eigenvalues --   -0.00893   0.00087   0.00586   0.02576   0.02945
 Alpha virt. eigenvalues --    0.03285   0.04062   0.04342   0.04828   0.05247

 Mulliken charges:
               1
     1  O   -0.145880
     2  O   -0.284167
     3  O   -0.243776
     4  O   -0.214196
     5  O   -0.255042
     6  O   -0.176528
     7  N   -0.023880
     8  N   -0.196667
     9  N   -0.122570
    10  N   -0.423996
    11  C   -0.009662
    12  C    0.177751
    13  C   -0.139234
    14  C   -0.073377
    15  C   -0.084649
    16  C   -0.047852
    17  C   -0.103451
    18  C    0.049928
    19  C   -0.128536
    20  C   -0.099496
    21  C    0.099569
    22  C    0.170279
    23  C   -0.071572
    24  C   -0.040590
    25  C    0.052627
    26  C   -0.133184
    27  C    0.024670
    28  C    0.073241
    29  C    0.077428
    30  C    0.006863
    31  C    0.010182
    32  C    0.070218
    33  C   -0.104667
    34  C    0.159549
    35  C    0.197802
    36  C   -0.073697
    37  C    0.173599
    38  C    0.054385
    39  C   -0.225190
    40  C    0.216577
    41  C   -0.015630
    42  C    0.022074
    43  C    0.008149
    44  H    0.065358
    45  H   -0.009591
    46  H   -0.003033
    47  H    0.118719
    48  H    0.086138
    49  H    0.023492
    50  H   -0.005691
    51  H    0.041696
    52  H    0.029982
    53  H    0.034394
    54  H    0.096697
    55  H    0.025096
    56  H    0.045145
    57  H    0.039302
    58  H    0.041951
    59  H    0.027832
    60  H    0.224276
    61  H    0.032652
    62  H    0.021564
    63  H    0.026534
    64  H    0.054630
    65  H    0.035503
    66  H    0.021564
    67  H    0.035978
    68  H    0.025781
    69  H   -0.008738
    70  H    0.037342
    71  H    0.035909
    72  H    0.253422
    73  H    0.029407
    74  H    0.061395
    75  H    0.032397
    76  H    0.035120
    77  H    0.188012
    78  H    0.015970
    79  H   -0.023610
 Sum of Mulliken charges =  -0.00000

 Dipole moment (field-independent basis, Debye):
    X=              3.6501    Y=              2.2588    Z=             -1.0918  Tot=              4.4292
 Quadrupole moment (field-independent basis, Debye-Ang):
   XX=           -232.5663   YY=           -241.1782   ZZ=           -267.1332
   XY=              8.6295   XZ=            -21.6002   YZ=            -13.6995

 Normal termination of Gaussian 16 at Tue Jul 30 18:41:52 2019.
