 Gaussian 16, Revision A.03,
 Gaussian 16:  ES64L-G16RevA.03 25-Dec-2016

 --------------------------
 # td=(NStates=1) B3LYP/SVP
 --------------------------

 --
 TD
 --
 Symbolic Z-matrix:
 Charge =  0 Multiplicity = 1

                         Standard orientation:
 ---------------------------------------------------------------------
 Center     Atomic      Atomic             Coordinates (Angstroms)
 Number     Number       Type             X           Y           Z
 ---------------------------------------------------------------------
      1          8           0        5.375243   -0.235425   -3.272750
      2          8           0       -3.081258   -2.898417    3.182374
      3          8           0       -3.227577   -0.651073    3.054360
      4          8           0       -1.317981    7.238300    1.369697
      5          8           0       -0.618812    6.956796   -0.644478
      6          8           0       -1.859045   -3.869566    0.054741
      7          7           0        2.339323    0.821384    0.563914
      8          7           0        4.374695   -0.590346   -1.230872
      9          7           0       -1.826019    0.653940   -0.434029
     10          7           0       -2.696829   -1.829916   -0.425794
     11          6           0        4.724372   -1.251841    0.026057
     12          6           0        4.466205   -0.405795    1.253880
     13          6           0        2.966905   -0.101302    1.340107
     14          6           0        1.999749   -0.541582    2.221105
     15          6           0        0.736700    0.012204    1.930652
     16          6           0        0.996796    0.983375    0.945542
     17          6           0        6.272551   -1.327643   -0.157742
     18          6           0       -0.580497   -0.193326    2.540836
     19          6           0        6.650032   -0.922912   -1.426272
     20          6           0        0.178532    1.902197    0.129412
     21          6           0       -1.183920    1.816247   -0.255348
     22          6           0        5.380474   -0.555592   -2.159026
     23          6           0       -1.992767    2.875809   -0.789746
     24          6           0        2.145130   -1.698067    3.255852
     25          6           0        7.125384   -2.052433    0.858555
     26          6           0       -3.130460    2.366970   -1.210689
     27          6           0       -1.104405   -1.661281    2.557874
     28          6           0       -2.993747    0.838984   -0.966386
     29          6           0       -1.517593    4.279203   -0.962123
     30          6           0        7.959739   -0.831805   -2.136768
     31          6           0       -1.614401    5.065955    0.363871
     32          6           0       -4.244021    3.076276   -1.911719
     33          6           0       -4.030407   -0.001375   -1.291350
     34          6           0       -2.552672   -1.632269    2.986911
     35          6           0       -3.833454   -1.389988   -1.031305
     36          6           0        9.118892   -0.882672   -1.537021
     37          6           0       -1.049529    6.494376    0.350558
     38          6           0       -4.695612   -2.538782   -1.441222
     39          6           0       -3.940386   -3.683480   -1.127533
     40          6           0       -2.689734   -3.239819   -0.377235
     41          6           0       -5.928210   -2.380027   -2.062785
     42          6           0       -4.390262   -5.212098   -1.300700
     43          6           0       -6.752118   -3.379732   -2.542718
     44          1           0        4.197740   -2.211212    0.139315
     45          1           0        4.824088    0.573108    1.180116
     46          1           0        4.806447   -0.784627    2.210346
     47          1           0        3.033592    1.331573   -0.014739
     48          1           0        3.350801   -0.494606   -1.547879
     49          1           0       -0.498969    0.072879    3.683233
     50          1           0       -1.441248    0.431719    2.097798
     51          1           0        0.564699    2.926330   -0.129495
     52          1           0        3.107932   -1.648413    4.222285
     53          1           0        1.275679   -1.557491    4.014388
     54          1           0        2.148864   -2.606013    2.318101
     55          1           0        6.703045   -2.960923    1.161372
     56          1           0        7.448135   -1.168831    1.886086
     57          1           0        8.240329   -2.102902    0.493489
     58          1           0       -1.059589   -2.159751    1.548395
     59          1           0       -0.625321   -2.289216    3.213116
     60          1           0       -1.577473   -0.320582   -0.435362
     61          1           0       -1.988245    5.002771   -1.812606
     62          1           0       -0.482989    4.027729   -1.104519
     63          1           0        7.843911   -0.607325   -3.195942
     64          1           0       -1.283383    4.600710    1.200558
     65          1           0       -2.744653    5.378951    0.790851
     66          1           0       -4.101772    4.066278   -1.975795
     67          1           0       -5.185393    3.118063   -1.304866
     68          1           0       -4.603051    2.667554   -2.892206
     69          1           0       -4.968801    0.369999   -1.696323
     70          1           0        9.393863   -0.980610   -0.477154
     71          1           0       10.104924   -0.810146   -2.119818
     72          1           0       -4.054830   -3.001688    3.178101
     73          1           0       -6.215404   -1.339412   -2.088532
     74          1           0       -5.396323   -5.627285   -1.046485
     75          1           0       -4.273832   -5.235284   -2.298138
     76          1           0       -3.586889   -5.800020   -0.867659
     77          1           0       -0.902475    8.033328    1.270000
     78          1           0       -7.754691   -3.070386   -3.030046
     79          1           0       -6.785049   -4.501270   -2.275220
 ---------------------------------------------------------------------

 SCF Done:  E(RB3LYP) =  -1947.80649716     A.U. after   16 cycles

 Excitation energies and oscillator strengths:

 Excited State   1:      Singlet-A      2.0828 eV  595.26 nm  f=0.3961  <S**2>=0.000
     154 ->156         0.15548
     155 ->156         0.68540
 This state for optimization and/or second-order correction.
 Total Energy, E(TD-HF/TD-DFT) =  -1947.72995411
 Copying the excited state density for this state as the 1-particle RhoCI density.

 The electronic state is 1-A.
 Alpha  occ. eigenvalues --  -19.18657 -19.15382 -19.11808 -19.11078 -19.11056
 Alpha  occ. eigenvalues --  -19.10547 -14.38169 -14.36812 -14.36040 -14.28190
 Alpha  occ. eigenvalues --  -10.31593 -10.30229 -10.28245 -10.26312 -10.25600
 Alpha  occ. eigenvalues --  -10.24305 -10.24283 -10.23581 -10.23302 -10.23276
 Alpha  occ. eigenvalues --  -10.23103 -10.22443 -10.22245 -10.22066 -10.21826
 Alpha  occ. eigenvalues --  -10.21520 -10.21324 -10.20844 -10.20311 -10.20305
 Alpha  occ. eigenvalues --  -10.20289 -10.20282 -10.20257 -10.20013 -10.19944
 Alpha  occ. eigenvalues --  -10.19654 -10.19623 -10.19588 -10.18995 -10.18908
 Alpha  occ. eigenvalues --  -10.18591 -10.18529 -10.18016  -1.13818  -1.06876
 Alpha  occ. eigenvalues --   -1.06674  -1.05870  -1.02399  -1.01466  -0.98617
 Alpha  occ. eigenvalues --   -0.98432  -0.94550  -0.91070  -0.84000  -0.81677
 Alpha  occ. eigenvalues --   -0.81464  -0.80540  -0.80096  -0.79788  -0.77943
 Alpha  occ. eigenvalues --   -0.76756  -0.75957  -0.75418  -0.73855  -0.72913
 Alpha  occ. eigenvalues --   -0.71035  -0.70303  -0.70011  -0.69129  -0.67457
 Alpha  occ. eigenvalues --   -0.66659  -0.66103  -0.63979  -0.63001  -0.60972
 Alpha  occ. eigenvalues --   -0.60823  -0.59441  -0.58957  -0.58064  -0.56978
 Alpha  occ. eigenvalues --   -0.56327  -0.55063  -0.54200  -0.53912  -0.52933
 Alpha  occ. eigenvalues --   -0.51968  -0.51833  -0.51373  -0.50884  -0.49451
 Alpha  occ. eigenvalues --   -0.49169  -0.48874  -0.48325  -0.48187  -0.47705
 Alpha  occ. eigenvalues --   -0.46829  -0.46652  -0.46405  -0.45992  -0.45471
 Alpha  occ. eigenvalues --   -0.45035  -0.44856  -0.44682  -0.44439  -0.44239
 Alpha  occ. eigenvalues --   -0.43898  -0.43599  -0.43503  -0.43146  -0.42865
 Alpha  occ. eigenvalues --   -0.42748  -0.41791  -0.41455  -0.41354  -0.41189
 Alpha  occ. eigenvalues --   -0.41025  -0.40924  -0.40481  -0.40157  -0.40074
 Alpha  occ. eigenvalues --   -0.40012  -0.39554  -0.39295  -0.38595  -0.38060
 Alpha  occ. eigenvalues --   -0.37282  -0.36913  -0.36899  -0.36528  -0.36131
 Alpha  occ. eigenvalues --   -0.35804  -0.35462  -0.34826  -0.34662  -0.34152
 Alpha  occ. eigenvalues --   -0.33776  -0.33412  -0.33145  -0.32624  -0.31528
 Alpha  occ. eigenvalues --   -0.31041  -0.30636  -0.28337  -0.27917  -0.27811
 Alpha  occ. eigenvalues --   -0.27548  -0.26647  -0.26493  -0.26159  -0.24332
 Alpha  occ. eigenvalues --   -0.24253  -0.23847  -0.23558  -0.21504  -0.18809
 Alpha virt. eigenvalues --   -0.10380  -0.06442  -0.05840  -0.00987   0.00732
 Alpha virt. eigenvalues --    0.00903   0.01786   0.01830   0.02129   0.03095
 Alpha virt. eigenvalues --    0.03804   0.04287   0.04469   0.05290   0.05850

 Mulliken charges:
               1
     1  O   -0.152950
     2  O   -0.240677
     3  O   -0.207596
     4  O   -0.082917
     5  O   -0.210894
     6  O   -0.099437
     7  N   -0.091570
     8  N   -0.249025
     9  N    0.085041
    10  N   -0.354187
    11  C    0.095247
    12  C    0.299728
    13  C   -0.175874
    14  C   -0.128403
    15  C   -0.021142
    16  C    0.067933
    17  C   -0.167415
    18  C   -0.005811
    19  C   -0.061170
    20  C   -0.072354
    21  C    0.023553
    22  C    0.117972
    23  C   -0.056428
    24  C   -0.084021
    25  C    0.006899
    26  C   -0.151641
    27  C    0.024568
    28  C    0.053193
    29  C    0.125770
    30  C    0.058624
    31  C   -0.041343
    32  C    0.161729
    33  C   -0.134725
    34  C    0.138796
    35  C    0.103709
    36  C   -0.063494
    37  C    0.070998
    38  C    0.058683
    39  C   -0.250550
    40  C    0.131745
    41  C   -0.012645
    42  C    0.124655
    43  C   -0.078624
    44  H    0.028946
    45  H   -0.032223
    46  H    0.006110
    47  H    0.125908
    48  H    0.148233
    49  H    0.020086
    50  H    0.054833
    51  H    0.001833
    52  H    0.037568
    53  H    0.050757
    54  H    0.086791
    55  H    0.037588
    56  H    0.036594
    57  H    0.039964
    58  H    0.071023
    59  H   -0.007076
    60  H    0.127420
    61  H    0.063042
    62  H    0.006283
    63  H    0.014091
    64  H   -0.002405
    65  H    0.049501
    66  H   -0.040140
    67  H    0.011061
    68  H    0.033305
    69  H   -0.023413
    70  H    0.024605
    71  H    0.031819
    72  H    0.187730
    73  H   -0.017871
    74  H    0.045993
    75  H   -0.003051
    76  H    0.013083
    77  H    0.141362
    78  H    0.030965
    79  H    0.045733
 Sum of Mulliken charges =  -0.00000

 Dipole moment (field-independent basis, Debye):
    X=              0.5292    Y=              1.7491    Z=              2.2773  Tot=              2.9198
 Quadrupole moment (field-independent basis, Debye-Ang):
   XX=           -219.3504   YY=           -243.3157   ZZ=           -266.9021
   XY=             -4.8863   XZ=             28.7603   YZ=              7.1241

 Normal termination of Gaussian 16 at Tue Oct  1 07:43:49 2019.
