 Gaussian 16, Revision A.03,
 Gaussian 16:  ES64L-G16RevA.03 25-Dec-2016

 --------------------------
 # td=(NStates=1) B3LYP/SVP
 --------------------------

 --
 TD
 --
 Symbolic Z-matrix:
 Charge =  0 Multiplicity = 1

                         Standard orientation:
 ---------------------------------------------------------------------
 Center     Atomic      Atomic             Coordinates (Angstroms)
 Number     Number       Type             X           Y           Z
 ---------------------------------------------------------------------
      1          8           0       -3.370959   -1.495859   -2.791666
      2          8           0        3.078997    3.397469    3.213454
      3          8           0        3.710492    1.678388    4.548582
      4          8           0        7.777993   -1.789930   -0.769161
      5          8           0        6.739336   -3.244128   -1.930003
      6          8           0       -2.533270    1.827471    1.332836
      7          7           0       -0.285350   -2.244106    1.070416
      8          7           0       -2.803003   -1.224745   -0.558246
      9          7           0        1.089375   -0.039682   -0.794684
     10          7           0       -1.063713    1.383422   -0.387875
     11          6           0       -3.505265   -1.249929    0.769953
     12          6           0       -2.661280   -2.191432    1.697623
     13          6           0       -1.205103   -1.821857    1.872577
     14          6           0       -0.616088   -0.981084    2.842554
     15          6           0        0.691045   -0.932850    2.627999
     16          6           0        0.939672   -1.748026    1.419260
     17          6           0       -4.755306   -1.878241    0.443717
     18          6           0        1.792518   -0.189222    3.327093
     19          6           0       -4.908153   -2.137685   -0.919713
     20          6           0        2.179564   -1.791563    0.499851
     21          6           0        2.079333   -0.975114   -0.616186
     22          6           0       -3.625440   -1.637761   -1.627605
     23          6           0        3.061994   -0.842856   -1.734190
     24          6           0       -1.429201   -0.217331    3.778401
     25          6           0       -5.881996   -1.988364    1.455742
     26          6           0        2.590624    0.283425   -2.541361
     27          6           0        2.032595    1.335125    2.742344
     28          6           0        1.376629    0.756413   -1.942564
     29          6           0        4.186397   -1.654261   -1.906817
     30          6           0       -5.999219   -2.574948   -1.797689
     31          6           0        5.468244   -1.282517   -1.040502
     32          6           0        3.284032    0.947356   -3.701425
     33          6           0        0.622889    1.888761   -2.189119
     34          6           0        3.037646    2.082274    3.619143
     35          6           0       -0.547273    2.264595   -1.397782
     36          6           0       -7.054525   -3.370671   -1.336311
     37          6           0        6.572765   -2.244038   -1.374444
     38          6           0       -1.364049    3.338722   -1.498935
     39          6           0       -2.222761    3.450806   -0.459277
     40          6           0       -2.015926    2.099776    0.258776
     41          6           0       -1.109541    4.318208   -2.560037
     42          6           0       -3.284741    4.412832   -0.085583
     43          6           0       -1.778185    5.431055   -2.865322
     44          1           0       -3.487450   -0.166204    1.155788
     45          1           0       -2.864346   -3.317007    1.295771
     46          1           0       -3.161756   -1.993202    2.700212
     47          1           0       -0.370025   -2.846718    0.177920
     48          1           0       -2.320230   -0.222135   -0.473270
     49          1           0        1.639661   -0.082349    4.345716
     50          1           0        2.855962   -0.623875    3.316608
     51          1           0        2.845142   -2.737320    0.440330
     52          1           0       -2.183529   -0.771296    4.117160
     53          1           0       -1.014638    0.344429    4.540533
     54          1           0       -2.059038    0.397794    3.047717
     55          1           0       -5.574329   -1.264733    2.070538
     56          1           0       -5.658960   -3.032064    1.869936
     57          1           0       -6.976564   -1.748131    1.078041
     58          1           0        2.544702    1.312760    1.790425
     59          1           0        1.094578    1.798030    2.710362
     60          1           0        0.266894    0.125580   -0.079389
     61          1           0        4.448078   -1.553881   -2.972236
     62          1           0        3.931598   -2.908857   -1.666064
     63          1           0       -5.869919   -2.319228   -2.796656
     64          1           0        5.236303   -1.376892    0.013981
     65          1           0        5.902876   -0.357811   -1.239557
     66          1           0        3.934029    0.163474   -4.271061
     67          1           0        3.929383    1.811266   -3.254812
     68          1           0        2.377596    1.451054   -4.341631
     69          1           0        0.817521    2.497935   -3.104650
     70          1           0       -7.018245   -3.755989   -0.263381
     71          1           0       -7.788448   -3.588387   -2.055707
     72          1           0        3.938197    3.827984    3.967947
     73          1           0       -0.487461    3.976839   -3.376854
     74          1           0       -3.934927    4.564092   -0.884470
     75          1           0       -3.727086    3.956563    0.806505
     76          1           0       -2.968352    5.448603   -0.155690
     77          1           0        8.608614   -2.373878   -1.125291
     78          1           0       -1.590264    6.218904   -3.683891
     79          1           0       -2.808811    5.635564   -2.401520
 ---------------------------------------------------------------------

 SCF Done:  E(RB3LYP) =  -1947.79130403     A.U. after   24 cycles

 Excitation energies and oscillator strengths:

 Excited State   1:      Singlet-A      0.5393 eV 2298.79 nm  f=0.0007  <S**2>=0.000
     155 ->156         0.70491
 This state for optimization and/or second-order correction.
 Total Energy, E(TD-HF/TD-DFT) =  -1947.77148349
 Copying the excited state density for this state as the 1-particle RhoCI density.

 The electronic state is 1-A.
 Alpha  occ. eigenvalues --  -19.18296 -19.15857 -19.14291 -19.12647 -19.12639
 Alpha  occ. eigenvalues --  -19.08752 -14.37885 -14.37338 -14.31320 -14.30839
 Alpha  occ. eigenvalues --  -10.32734 -10.31417 -10.28215 -10.27270 -10.26454
 Alpha  occ. eigenvalues --  -10.25993 -10.25518 -10.24487 -10.24162 -10.23863
 Alpha  occ. eigenvalues --  -10.23837 -10.23350 -10.23323 -10.22356 -10.21843
 Alpha  occ. eigenvalues --  -10.21762 -10.21472 -10.21045 -10.20923 -10.20592
 Alpha  occ. eigenvalues --  -10.20543 -10.20128 -10.19891 -10.19742 -10.19469
 Alpha  occ. eigenvalues --  -10.19331 -10.18966 -10.18844 -10.18833 -10.18614
 Alpha  occ. eigenvalues --  -10.16822 -10.15760 -10.15169  -1.10823  -1.06848
 Alpha  occ. eigenvalues --   -1.03647  -1.01088  -0.98766  -0.98063  -0.97934
 Alpha  occ. eigenvalues --   -0.97772  -0.93817  -0.90450  -0.84495  -0.82517
 Alpha  occ. eigenvalues --   -0.82179  -0.80196  -0.79218  -0.79196  -0.78041
 Alpha  occ. eigenvalues --   -0.77183  -0.75945  -0.75539  -0.74403  -0.73109
 Alpha  occ. eigenvalues --   -0.72716  -0.70321  -0.69402  -0.68648  -0.67811
 Alpha  occ. eigenvalues --   -0.66438  -0.65587  -0.62593  -0.60712  -0.59637
 Alpha  occ. eigenvalues --   -0.58929  -0.58174  -0.57007  -0.56416  -0.55947
 Alpha  occ. eigenvalues --   -0.55452  -0.54718  -0.54194  -0.53570  -0.53198
 Alpha  occ. eigenvalues --   -0.52429  -0.51297  -0.50851  -0.50274  -0.49425
 Alpha  occ. eigenvalues --   -0.48490  -0.48291  -0.48073  -0.47958  -0.47631
 Alpha  occ. eigenvalues --   -0.46930  -0.46763  -0.46312  -0.46239  -0.45929
 Alpha  occ. eigenvalues --   -0.45301  -0.45017  -0.44371  -0.44264  -0.44020
 Alpha  occ. eigenvalues --   -0.43818  -0.43508  -0.43000  -0.42412  -0.42193
 Alpha  occ. eigenvalues --   -0.41830  -0.41601  -0.41343  -0.41061  -0.40959
 Alpha  occ. eigenvalues --   -0.40796  -0.40556  -0.40349  -0.40259  -0.39963
 Alpha  occ. eigenvalues --   -0.39865  -0.39694  -0.39449  -0.39099  -0.38495
 Alpha  occ. eigenvalues --   -0.38132  -0.37493  -0.37153  -0.36924  -0.36503
 Alpha  occ. eigenvalues --   -0.36129  -0.36022  -0.35684  -0.35456  -0.35181
 Alpha  occ. eigenvalues --   -0.34437  -0.33982  -0.33073  -0.31652  -0.31471
 Alpha  occ. eigenvalues --   -0.31253  -0.29660  -0.29179  -0.28743  -0.28670
 Alpha  occ. eigenvalues --   -0.27846  -0.26306  -0.26054  -0.24714  -0.23626
 Alpha  occ. eigenvalues --   -0.23347  -0.22792  -0.22617  -0.21864  -0.18228
 Alpha virt. eigenvalues --   -0.13735  -0.08368  -0.04474  -0.02664  -0.01121
 Alpha virt. eigenvalues --   -0.00417   0.00829   0.01061   0.01810   0.02288
 Alpha virt. eigenvalues --    0.02578   0.03377   0.03621   0.04465   0.04931

 Mulliken charges:
               1
     1  O   -0.207890
     2  O   -0.305564
     3  O   -0.238228
     4  O   -0.326490
     5  O   -0.146971
     6  O   -0.216751
     7  N    0.020773
     8  N   -0.294060
     9  N   -0.160536
    10  N   -0.349749
    11  C   -0.005214
    12  C    0.128984
    13  C   -0.121752
    14  C   -0.118802
    15  C   -0.081307
    16  C   -0.118552
    17  C   -0.197454
    18  C    0.090709
    19  C   -0.077408
    20  C   -0.078962
    21  C    0.092157
    22  C    0.154076
    23  C   -0.003014
    24  C    0.232646
    25  C    0.117613
    26  C   -0.116933
    27  C    0.017960
    28  C    0.193182
    29  C   -0.065530
    30  C   -0.001352
    31  C    0.080503
    32  C    0.004462
    33  C   -0.118994
    34  C    0.154351
    35  C    0.109709
    36  C   -0.014210
    37  C    0.111258
    38  C    0.076780
    39  C   -0.214358
    40  C    0.162883
    41  C    0.007365
    42  C    0.167406
    43  C   -0.102755
    44  H    0.072197
    45  H    0.012535
    46  H   -0.006797
    47  H    0.150547
    48  H    0.183668
    49  H   -0.017121
    50  H    0.007961
    51  H    0.035779
    52  H   -0.066614
    53  H   -0.016850
    54  H    0.021383
    55  H   -0.017968
    56  H    0.047108
    57  H    0.058174
    58  H    0.033147
    59  H    0.037965
    60  H    0.231634
    61  H    0.018218
    62  H    0.073247
    63  H   -0.014877
    64  H    0.057857
    65  H    0.024880
    66  H    0.057681
    67  H    0.066761
    68  H    0.061824
    69  H   -0.006538
    70  H    0.039693
    71  H    0.010984
    72  H    0.247527
    73  H   -0.000268
    74  H    0.008269
    75  H    0.047692
    76  H    0.011621
    77  H    0.222123
    78  H    0.048260
    79  H    0.018316
 Sum of Mulliken charges =  -0.00000

 Dipole moment (field-independent basis, Debye):
    X=              2.4849    Y=              3.3621    Z=             -2.6656  Tot=              4.9582
 Quadrupole moment (field-independent basis, Debye-Ang):
   XX=           -238.7185   YY=           -238.8501   ZZ=           -265.2689
   XY=             -0.3754   XZ=            -23.5786   YZ=            -14.8998

 Normal termination of Gaussian 16 at Fri Jul 26 05:05:29 2019.
