 Gaussian 16, Revision A.03,
 Gaussian 16:  ES64L-G16RevA.03 25-Dec-2016

 --------------------------
 # td=(NStates=1) B3LYP/SVP
 --------------------------

 --
 TD
 --
 Symbolic Z-matrix:
 Charge =  0 Multiplicity = 1

                         Standard orientation:
 ---------------------------------------------------------------------
 Center     Atomic      Atomic             Coordinates (Angstroms)
 Number     Number       Type             X           Y           Z
 ---------------------------------------------------------------------
      1          8           0        5.329301    0.055393   -3.239725
      2          8           0       -3.078981   -2.900111    3.023121
      3          8           0       -3.408733   -0.667875    2.990211
      4          8           0       -1.440221    7.222110    1.352250
      5          8           0       -0.536044    6.932208   -0.618558
      6          8           0       -1.835591   -4.008415    0.056531
      7          7           0        2.374731    0.854996    0.505866
      8          7           0        4.351270   -0.546271   -1.179745
      9          7           0       -1.765080    0.695550   -0.307745
     10          7           0       -2.680751   -1.829498   -0.393812
     11          6           0        4.726164   -1.211789   -0.007705
     12          6           0        4.394557   -0.393232    1.205521
     13          6           0        2.987973   -0.007725    1.381945
     14          6           0        1.911388   -0.502666    2.308590
     15          6           0        0.658663   -0.007025    1.833446
     16          6           0        1.073054    0.951866    0.820529
     17          6           0        6.222393   -1.457595   -0.197461
     18          6           0       -0.531290   -0.142147    2.603741
     19          6           0        6.617335   -0.989346   -1.454486
     20          6           0        0.272366    2.022566    0.101315
     21          6           0       -1.074191    1.894090   -0.225985
     22          6           0        5.466389   -0.415010   -2.071914
     23          6           0       -1.879053    2.824757   -0.881353
     24          6           0        2.125669   -1.628837    3.311749
     25          6           0        7.055922   -2.103060    0.866604
     26          6           0       -3.102007    2.352527   -1.311358
     27          6           0       -1.172974   -1.546499    2.473453
     28          6           0       -3.018062    0.941124   -0.977975
     29          6           0       -1.449377    4.287268   -0.878367
     30          6           0        7.973523   -0.928062   -2.038432
     31          6           0       -1.534736    5.025498    0.442933
     32          6           0       -4.181946    3.117576   -1.913153
     33          6           0       -3.900114   -0.081529   -1.306639
     34          6           0       -2.640770   -1.557667    2.849238
     35          6           0       -3.713976   -1.488128   -1.074958
     36          6           0        9.283010   -1.148243   -1.463379
     37          6           0       -1.170264    6.495224    0.361658
     38          6           0       -4.671111   -2.580632   -1.464526
     39          6           0       -4.046366   -3.711359   -1.001121
     40          6           0       -2.807820   -3.276313   -0.331132
     41          6           0       -5.966474   -2.352343   -2.057405
     42          6           0       -4.445294   -5.150968   -1.233999
     43          6           0       -6.804319   -3.376738   -2.585222
     44          1           0        4.126900   -2.152173    0.210580
     45          1           0        4.961805    0.588369    0.974624
     46          1           0        4.710936   -0.887704    2.161138
     47          1           0        2.682989    1.091132   -0.417585
     48          1           0        3.361342   -0.726271   -1.719897
     49          1           0       -0.213127    0.326259    3.589823
     50          1           0       -1.495758    0.511549    2.420706
     51          1           0        0.760283    2.948071   -0.178665
     52          1           0        3.156801   -1.833200    3.551421
     53          1           0        1.307390   -1.648534    4.293839
     54          1           0        1.963700   -2.815299    2.998072
     55          1           0        6.452547   -2.894337    1.340264
     56          1           0        7.509663   -1.441373    1.812685
     57          1           0        8.002830   -2.556208    0.365294
     58          1           0       -1.321036   -2.070923    1.530597
     59          1           0       -0.844410   -2.240459    3.189841
     60          1           0       -1.536882   -0.224934   -0.012663
     61          1           0       -1.885983    5.001459   -1.454112
     62          1           0       -0.427658    4.423786   -1.265128
     63          1           0        8.020784   -0.703184   -3.016440
     64          1           0       -0.943248    4.615169    1.215578
     65          1           0       -2.614845    5.200805    0.725121
     66          1           0       -4.116823    4.167131   -1.707047
     67          1           0       -5.294844    2.623489   -1.552129
     68          1           0       -3.972413    2.894621   -3.119553
     69          1           0       -4.648236    0.180686   -1.769614
     70          1           0        9.303707   -1.434839   -0.389837
     71          1           0       10.136001   -1.099812   -2.042528
     72          1           0       -3.939338   -2.771515    3.394116
     73          1           0       -6.173461   -1.334269   -2.267053
     74          1           0       -5.392474   -5.560061   -0.777897
     75          1           0       -4.480779   -5.371645   -2.301963
     76          1           0       -3.752186   -5.868701   -0.760783
     77          1           0       -1.150639    8.149697    1.232910
     78          1           0       -7.803714   -3.039412   -2.986039
     79          1           0       -6.598443   -4.470775   -2.655166
 ---------------------------------------------------------------------

 SCF Done:  E(RB3LYP) =  -1947.83241704     A.U. after   19 cycles

 Excitation energies and oscillator strengths:

 Excited State   1:      Singlet-A      1.8482 eV  670.83 nm  f=0.4152  <S**2>=0.000
     155 ->156         0.70250
     155 <-156        -0.11645
 This state for optimization and/or second-order correction.
 Total Energy, E(TD-HF/TD-DFT) =  -1947.76449576
 Copying the excited state density for this state as the 1-particle RhoCI density.

 The electronic state is 1-A.
 Alpha  occ. eigenvalues --  -19.20491 -19.15033 -19.12180 -19.11156 -19.10563
 Alpha  occ. eigenvalues --  -19.10506 -14.38411 -14.36520 -14.35369 -14.29280
 Alpha  occ. eigenvalues --  -10.31949 -10.30265 -10.29335 -10.26906 -10.25154
 Alpha  occ. eigenvalues --  -10.24352 -10.24051 -10.23428 -10.23334 -10.23213
 Alpha  occ. eigenvalues --  -10.23206 -10.22746 -10.22701 -10.22060 -10.21846
 Alpha  occ. eigenvalues --  -10.21828 -10.21554 -10.21520 -10.21434 -10.21394
 Alpha  occ. eigenvalues --  -10.21193 -10.20740 -10.20663 -10.20483 -10.20375
 Alpha  occ. eigenvalues --  -10.20209 -10.20202 -10.19844 -10.19588 -10.19112
 Alpha  occ. eigenvalues --  -10.19093 -10.18436 -10.17010  -1.13628  -1.07738
 Alpha  occ. eigenvalues --   -1.01027  -0.99155  -0.99094  -0.99012  -0.98804
 Alpha  occ. eigenvalues --   -0.96517  -0.94407  -0.92341  -0.82655  -0.82325
 Alpha  occ. eigenvalues --   -0.81843  -0.81060  -0.80561  -0.80042  -0.78120
 Alpha  occ. eigenvalues --   -0.76581  -0.76183  -0.75422  -0.74079  -0.72690
 Alpha  occ. eigenvalues --   -0.71907  -0.70565  -0.69630  -0.69361  -0.68356
 Alpha  occ. eigenvalues --   -0.67626  -0.65937  -0.63693  -0.62543  -0.62171
 Alpha  occ. eigenvalues --   -0.60643  -0.58698  -0.58170  -0.57455  -0.56511
 Alpha  occ. eigenvalues --   -0.56241  -0.55741  -0.54736  -0.54462  -0.53711
 Alpha  occ. eigenvalues --   -0.52821  -0.52239  -0.51437  -0.50856  -0.49748
 Alpha  occ. eigenvalues --   -0.49439  -0.48674  -0.48469  -0.48296  -0.47573
 Alpha  occ. eigenvalues --   -0.47012  -0.46908  -0.46598  -0.46045  -0.45431
 Alpha  occ. eigenvalues --   -0.45182  -0.44565  -0.44051  -0.43677  -0.43546
 Alpha  occ. eigenvalues --   -0.43210  -0.43161  -0.42959  -0.42821  -0.42754
 Alpha  occ. eigenvalues --   -0.42129  -0.41908  -0.41633  -0.41101  -0.40675
 Alpha  occ. eigenvalues --   -0.40474  -0.40270  -0.40092  -0.40011  -0.39442
 Alpha  occ. eigenvalues --   -0.39366  -0.39272  -0.38842  -0.38716  -0.38524
 Alpha  occ. eigenvalues --   -0.38189  -0.37480  -0.37307  -0.36939  -0.36616
 Alpha  occ. eigenvalues --   -0.36239  -0.35996  -0.35494  -0.35154  -0.34712
 Alpha  occ. eigenvalues --   -0.34141  -0.33379  -0.31813  -0.31353  -0.31170
 Alpha  occ. eigenvalues --   -0.31023  -0.30525  -0.28372  -0.28096  -0.27072
 Alpha  occ. eigenvalues --   -0.26946  -0.26763  -0.25869  -0.25124  -0.24587
 Alpha  occ. eigenvalues --   -0.24375  -0.24138  -0.23132  -0.22221  -0.18108
 Alpha virt. eigenvalues --   -0.10882  -0.08282  -0.06990  -0.02086  -0.01602
 Alpha virt. eigenvalues --   -0.00326   0.00954   0.01929   0.02432   0.02918
 Alpha virt. eigenvalues --    0.03235   0.03415   0.03801   0.04701   0.05047

 Mulliken charges:
               1
     1  O   -0.261227
     2  O   -0.228494
     3  O   -0.194740
     4  O   -0.090785
     5  O   -0.289875
     6  O   -0.255352
     7  N   -0.023368
     8  N   -0.266365
     9  N   -0.108502
    10  N   -0.256893
    11  C    0.056737
    12  C    0.177679
    13  C   -0.098109
    14  C   -0.088081
    15  C   -0.017918
    16  C    0.005731
    17  C   -0.118485
    18  C   -0.038138
    19  C    0.021294
    20  C   -0.074134
    21  C    0.121546
    22  C    0.158560
    23  C   -0.047464
    24  C   -0.031729
    25  C   -0.008439
    26  C   -0.078374
    27  C    0.082055
    28  C    0.119121
    29  C    0.113999
    30  C   -0.010116
    31  C    0.029660
    32  C    0.015316
    33  C    0.032361
    34  C    0.085086
    35  C    0.062404
    36  C    0.001570
    37  C    0.057624
    38  C    0.047742
    39  C   -0.153814
    40  C    0.189902
    41  C   -0.008674
    42  C    0.065999
    43  C   -0.044830
    44  H    0.026267
    45  H    0.002051
    46  H    0.004870
    47  H    0.122105
    48  H    0.187576
    49  H    0.039857
    50  H    0.047604
    51  H   -0.003410
    52  H   -0.003410
    53  H    0.046903
    54  H    0.037368
    55  H    0.031357
    56  H    0.073697
    57  H    0.053899
    58  H    0.071966
    59  H    0.003822
    60  H    0.124389
    61  H   -0.045559
    62  H    0.009611
    63  H   -0.028727
    64  H    0.028441
    65  H    0.026263
    66  H    0.028694
    67  H    0.060760
    68  H    0.064448
    69  H   -0.204529
    70  H    0.021860
    71  H    0.021971
    72  H    0.152373
    73  H   -0.008690
    74  H    0.027396
    75  H    0.032407
    76  H    0.017604
    77  H    0.197743
    78  H    0.036532
    79  H    0.044012
 Sum of Mulliken charges =  -0.00000

 Dipole moment (field-independent basis, Debye):
    X=              0.3642    Y=              1.4991    Z=              2.6773  Tot=              3.0900
 Quadrupole moment (field-independent basis, Debye-Ang):
   XX=           -211.4090   YY=           -239.8754   ZZ=           -261.6557
   XY=            -17.1818   XZ=             30.8330   YZ=             11.3561

 Normal termination of Gaussian 16 at Mon Oct  7 19:20:37 2019.
