 Gaussian 16, Revision A.03,
 Gaussian 16:  ES64L-G16RevA.03 25-Dec-2016

 --------------------------
 # td=(NStates=1) B3LYP/SVP
 --------------------------

 --
 TD
 --
 Symbolic Z-matrix:
 Charge =  0 Multiplicity = 1

                         Standard orientation:
 ---------------------------------------------------------------------
 Center     Atomic      Atomic             Coordinates (Angstroms)
 Number     Number       Type             X           Y           Z
 ---------------------------------------------------------------------
      1          8           0       -3.143762   -1.453680   -2.878751
      2          8           0        2.793871    3.115356    3.188470
      3          8           0        3.472244    1.472628    4.496827
      4          8           0        7.799633   -1.472169   -0.611655
      5          8           0        6.831454   -2.796966   -2.068199
      6          8           0       -2.625449    1.730580    1.407833
      7          7           0       -0.240324   -2.461096    0.961464
      8          7           0       -2.664315   -1.218671   -0.687666
      9          7           0        1.181276    0.018075   -0.676211
     10          7           0       -0.952010    1.484701   -0.192339
     11          6           0       -3.361913   -1.321953    0.580171
     12          6           0       -2.673684   -2.288667    1.514901
     13          6           0       -1.195072   -2.074596    1.777876
     14          6           0       -0.694093   -1.185215    2.809671
     15          6           0        0.637966   -1.140430    2.541155
     16          6           0        0.899750   -1.970269    1.306302
     17          6           0       -4.799235   -1.847738    0.207341
     18          6           0        1.733187   -0.343062    3.227298
     19          6           0       -4.784022   -1.958311   -1.131178
     20          6           0        2.044286   -1.973166    0.382298
     21          6           0        2.129681   -1.007879   -0.606370
     22          6           0       -3.486417   -1.639774   -1.740840
     23          6           0        3.048323   -0.790452   -1.699825
     24          6           0       -1.475756   -0.546603    3.908212
     25          6           0       -5.870629   -2.070973    1.184079
     26          6           0        2.669578    0.375065   -2.435753
     27          6           0        1.820552    1.098281    2.806229
     28          6           0        1.469987    0.887753   -1.746600
     29          6           0        4.252435   -1.666973   -2.023830
     30          6           0       -5.867078   -2.420169   -2.087667
     31          6           0        5.506571   -1.152733   -1.150580
     32          6           0        3.265215    1.011980   -3.652231
     33          6           0        0.648330    1.968305   -1.912617
     34          6           0        2.726755    1.913748    3.674670
     35          6           0       -0.461683    2.277487   -1.182147
     36          6           0       -6.992734   -3.029434   -1.708151
     37          6           0        6.808952   -1.892867   -1.312848
     38          6           0       -1.298488    3.489062   -1.227177
     39          6           0       -2.270200    3.325730   -0.299916
     40          6           0       -1.987445    2.086566    0.382537
     41          6           0       -1.178266    4.598535   -2.330810
     42          6           0       -3.382972    4.266863   -0.006680
     43          6           0       -1.805463    5.743517   -2.315549
     44          1           0       -3.216180   -0.406412    1.083384
     45          1           0       -3.047830   -3.293689    1.305275
     46          1           0       -3.138354   -2.308267    2.561961
     47          1           0       -0.519190   -2.777899    0.027226
     48          1           0       -1.893688   -0.331165   -0.667565
     49          1           0        1.523395   -0.354321    4.302482
     50          1           0        2.757415   -0.831609    2.893968
     51          1           0        2.665997   -2.842384    0.442870
     52          1           0       -2.357866   -1.263171    3.900813
     53          1           0       -0.816801   -0.487302    4.815536
     54          1           0       -1.840676    0.387242    3.476226
     55          1           0       -5.855601   -1.626677    1.990237
     56          1           0       -5.694922   -3.195623    1.425100
     57          1           0       -6.893018   -1.754375    0.564963
     58          1           0        2.014920    1.165488    1.735689
     59          1           0        0.772030    1.406517    2.928287
     60          1           0        0.409049    0.273595   -0.122553
     61          1           0        4.586124   -1.392944   -3.129376
     62          1           0        4.006996   -2.661087   -1.723117
     63          1           0       -5.687776   -2.175047   -3.130140
     64          1           0        5.259398   -1.137701   -0.006237
     65          1           0        5.536473    0.007063   -1.494790
     66          1           0        3.957662    0.376917   -4.372096
     67          1           0        3.710228    1.849861   -3.191239
     68          1           0        2.536385    1.217292   -4.234191
     69          1           0        0.887574    2.726323   -2.727104
     70          1           0       -7.228450   -3.495119   -0.719863
     71          1           0       -7.659676   -3.189618   -2.352983
     72          1           0        3.340589    3.654441    3.875479
     73          1           0       -0.365662    4.480459   -3.143798
     74          1           0       -4.010389    4.484270   -0.944515
     75          1           0       -4.037364    4.047448    0.906460
     76          1           0       -3.045465    5.081311    0.627934
     77          1           0        8.648439   -1.934318   -0.572741
     78          1           0       -1.427947    6.459485   -2.959524
     79          1           0       -2.630661    5.984187   -1.876840
 ---------------------------------------------------------------------

 SCF Done:  E(RB3LYP) =  -1947.80086006     A.U. after   22 cycles

 Excitation energies and oscillator strengths:

 Excited State   1:      Singlet-A      0.6360 eV 1949.41 nm  f=0.0030  <S**2>=0.000
     155 ->156         0.70435
 This state for optimization and/or second-order correction.
 Total Energy, E(TD-HF/TD-DFT) =  -1947.77748720
 Copying the excited state density for this state as the 1-particle RhoCI density.

 The electronic state is 1-A.
 Alpha  occ. eigenvalues --  -19.19716 -19.18527 -19.12263 -19.11624 -19.11153
 Alpha  occ. eigenvalues --  -19.07673 -14.37399 -14.37106 -14.31688 -14.30357
 Alpha  occ. eigenvalues --  -10.32590 -10.30641 -10.27187 -10.26958 -10.26080
 Alpha  occ. eigenvalues --  -10.25819 -10.25000 -10.23786 -10.23558 -10.23292
 Alpha  occ. eigenvalues --  -10.22916 -10.22885 -10.21748 -10.21269 -10.21172
 Alpha  occ. eigenvalues --  -10.21105 -10.20383 -10.20216 -10.20026 -10.19993
 Alpha  occ. eigenvalues --  -10.19847 -10.19451 -10.19171 -10.18774 -10.18461
 Alpha  occ. eigenvalues --  -10.18307 -10.18248 -10.18197 -10.17922 -10.17665
 Alpha  occ. eigenvalues --  -10.16719 -10.16661 -10.16312  -1.12724  -1.10867
 Alpha  occ. eigenvalues --   -1.03009  -1.01358  -1.00745  -1.00667  -0.99938
 Alpha  occ. eigenvalues --   -0.98711  -0.94149  -0.90247  -0.83550  -0.83010
 Alpha  occ. eigenvalues --   -0.80939  -0.80258  -0.79942  -0.78652  -0.78411
 Alpha  occ. eigenvalues --   -0.76825  -0.76384  -0.75989  -0.74859  -0.74003
 Alpha  occ. eigenvalues --   -0.71274  -0.70594  -0.70448  -0.69635  -0.68425
 Alpha  occ. eigenvalues --   -0.66576  -0.66145  -0.63649  -0.62837  -0.60953
 Alpha  occ. eigenvalues --   -0.60006  -0.59336  -0.59037  -0.57853  -0.56906
 Alpha  occ. eigenvalues --   -0.55778  -0.55394  -0.55223  -0.54266  -0.52619
 Alpha  occ. eigenvalues --   -0.52216  -0.51406  -0.51336  -0.50201  -0.50045
 Alpha  occ. eigenvalues --   -0.49387  -0.48915  -0.48752  -0.48379  -0.48271
 Alpha  occ. eigenvalues --   -0.47900  -0.47425  -0.47376  -0.46756  -0.46547
 Alpha  occ. eigenvalues --   -0.45840  -0.45663  -0.44918  -0.44209  -0.44058
 Alpha  occ. eigenvalues --   -0.43811  -0.43516  -0.43088  -0.42631  -0.42566
 Alpha  occ. eigenvalues --   -0.42141  -0.41833  -0.41334  -0.40932  -0.40726
 Alpha  occ. eigenvalues --   -0.40469  -0.40256  -0.39975  -0.39825  -0.39296
 Alpha  occ. eigenvalues --   -0.39188  -0.38892  -0.38212  -0.38004  -0.37804
 Alpha  occ. eigenvalues --   -0.37493  -0.37074  -0.36860  -0.36799  -0.36753
 Alpha  occ. eigenvalues --   -0.36431  -0.35325  -0.34962  -0.34144  -0.33755
 Alpha  occ. eigenvalues --   -0.33651  -0.32570  -0.32092  -0.31988  -0.31311
 Alpha  occ. eigenvalues --   -0.30880  -0.29414  -0.28948  -0.28600  -0.28266
 Alpha  occ. eigenvalues --   -0.27632  -0.26912  -0.25399  -0.24071  -0.23800
 Alpha  occ. eigenvalues --   -0.23346  -0.22938  -0.22764  -0.22263  -0.18003
 Alpha virt. eigenvalues --   -0.13046  -0.07395  -0.03380  -0.01397   0.00345
 Alpha virt. eigenvalues --    0.01243   0.02179   0.02273   0.02650   0.03231
 Alpha virt. eigenvalues --    0.03811   0.03973   0.04507   0.04867   0.05342

 Mulliken charges:
               1
     1  O   -0.220962
     2  O   -0.163311
     3  O   -0.216188
     4  O   -0.134681
     5  O   -0.196892
     6  O   -0.246780
     7  N    0.102381
     8  N   -0.311036
     9  N   -0.102872
    10  N   -0.290049
    11  C    0.132214
    12  C    0.113940
    13  C   -0.169100
    14  C   -0.134828
    15  C   -0.142967
    16  C   -0.100736
    17  C   -0.150545
    18  C    0.100498
    19  C   -0.094001
    20  C   -0.109438
    21  C    0.194098
    22  C    0.157613
    23  C   -0.128076
    24  C    0.136148
    25  C    0.158366
    26  C   -0.124563
    27  C   -0.015195
    28  C    0.116226
    29  C    0.161758
    30  C    0.004878
    31  C   -0.135849
    32  C    0.177352
    33  C   -0.107308
    34  C    0.118544
    35  C    0.089524
    36  C    0.038324
    37  C    0.126751
    38  C    0.035831
    39  C   -0.157943
    40  C    0.145066
    41  C   -0.031957
    42  C    0.065290
    43  C    0.078204
    44  H   -0.003529
    45  H   -0.043480
    46  H   -0.020251
    47  H    0.125924
    48  H    0.199805
    49  H   -0.002305
    50  H    0.001962
    51  H    0.003698
    52  H    0.001242
    53  H    0.025620
    54  H    0.043370
    55  H   -0.064913
    56  H    0.045405
    57  H    0.065292
    58  H    0.024421
    59  H    0.030908
    60  H    0.145197
    61  H    0.040838
    62  H    0.013518
    63  H    0.004146
    64  H    0.056147
    65  H    0.052606
    66  H    0.047640
    67  H    0.032661
    68  H   -0.018334
    69  H   -0.010221
    70  H    0.023472
    71  H   -0.050811
    72  H    0.195882
    73  H    0.014323
    74  H    0.065865
    75  H    0.012149
    76  H    0.020214
    77  H    0.196511
    78  H    0.000428
    79  H   -0.043126
 Sum of Mulliken charges =  -0.00000

 Dipole moment (field-independent basis, Debye):
    X=              4.3129    Y=              3.4308    Z=             -1.1441  Tot=              5.6285
 Quadrupole moment (field-independent basis, Debye-Ang):
   XX=           -221.4660   YY=           -234.3212   ZZ=           -267.2641
   XY=              4.1100   XZ=            -18.2834   YZ=            -12.8721

 Normal termination of Gaussian 16 at Wed Jul 31 03:21:21 2019.
