 Gaussian 16, Revision A.03,
 Gaussian 16:  ES64L-G16RevA.03 25-Dec-2016

 --------------------------
 # td=(NStates=1) B3LYP/SVP
 --------------------------

 --
 TD
 --
 Symbolic Z-matrix:
 Charge =  0 Multiplicity = 1

                         Standard orientation:
 ---------------------------------------------------------------------
 Center     Atomic      Atomic             Coordinates (Angstroms)
 Number     Number       Type             X           Y           Z
 ---------------------------------------------------------------------
      1          8           0       -3.204578   -1.314307   -2.904845
      2          8           0        3.010320    2.990094    3.605248
      3          8           0        3.618907    1.076277    4.571262
      4          8           0        7.608173   -1.689935   -0.694330
      5          8           0        6.592688   -2.833445   -2.451043
      6          8           0       -2.649498    1.583379    1.553323
      7          7           0       -0.211047   -2.459456    0.768382
      8          7           0       -2.507141   -1.195324   -0.605352
      9          7           0        1.010061    0.071741   -0.839193
     10          7           0       -1.000376    1.558059   -0.088233
     11          6           0       -3.338371   -1.446369    0.562772
     12          6           0       -2.616634   -2.407672    1.554781
     13          6           0       -1.107809   -2.115176    1.668431
     14          6           0       -0.548087   -1.471153    2.704922
     15          6           0        0.744112   -1.253965    2.365836
     16          6           0        0.946069   -1.871368    1.074981
     17          6           0       -4.716987   -1.845182    0.177830
     18          6           0        1.794618   -0.494706    3.119398
     19          6           0       -4.699566   -2.003040   -1.125181
     20          6           0        2.193722   -1.783514    0.202346
     21          6           0        2.061518   -0.796745   -0.766450
     22          6           0       -3.413791   -1.309463   -1.709877
     23          6           0        2.993562   -0.464173   -1.912260
     24          6           0       -1.216096   -0.859306    3.903313
     25          6           0       -5.719487   -2.287637    1.161282
     26          6           0        2.536538    0.781120   -2.450090
     27          6           0        1.852766    0.986344    2.956789
     28          6           0        1.364181    1.145924   -1.745239
     29          6           0        4.217648   -1.294009   -2.262665
     30          6           0       -5.630030   -2.602257   -2.123631
     31          6           0        5.330248   -1.040950   -1.190668
     32          6           0        3.168638    1.607270   -3.650695
     33          6           0        0.463390    2.130288   -2.009600
     34          6           0        2.904360    1.678695    3.806966
     35          6           0       -0.640935    2.359862   -1.105648
     36          6           0       -6.632434   -3.357075   -1.908781
     37          6           0        6.510779   -2.052765   -1.507526
     38          6           0       -1.504217    3.569159   -1.139093
     39          6           0       -2.315834    3.389904   -0.049531
     40          6           0       -2.027767    2.152960    0.604866
     41          6           0       -1.416993    4.652232   -2.089069
     42          6           0       -3.484071    4.257431    0.397861
     43          6           0       -2.033009    5.912438   -2.064734
     44          1           0       -3.300760   -0.566171    1.249239
     45          1           0       -2.682591   -3.497889    1.187034
     46          1           0       -3.025036   -2.553873    2.445101
     47          1           0       -0.264089   -3.059974   -0.132504
     48          1           0       -2.035196   -0.312557   -0.449393
     49          1           0        2.112361   -0.954423    4.126846
     50          1           0        2.720135   -0.972950    2.768312
     51          1           0        2.904860   -2.676560    0.202784
     52          1           0       -1.730287   -1.612120    4.601038
     53          1           0       -0.482989   -0.147241    4.656894
     54          1           0       -2.015660   -0.235721    3.466128
     55          1           0       -5.536250   -1.883859    2.190690
     56          1           0       -5.826157   -3.433385    1.397161
     57          1           0       -6.685051   -2.039732    0.849792
     58          1           0        2.123701    1.149366    1.804125
     59          1           0        0.981029    1.444069    3.250361
     60          1           0        0.216876    0.247727   -0.196484
     61          1           0        4.545722   -0.881179   -3.241412
     62          1           0        3.798823   -2.483290   -2.153392
     63          1           0       -5.324327   -2.319974   -3.181638
     64          1           0        5.130670   -1.211304   -0.130260
     65          1           0        5.755062   -0.023090   -1.382893
     66          1           0        3.832438    0.797545   -3.981054
     67          1           0        3.726134    2.637193   -3.397274
     68          1           0        2.442345    2.002446   -4.362071
     69          1           0        0.606457    2.901754   -2.642118
     70          1           0       -6.983795   -3.695312   -0.945420
     71          1           0       -7.259594   -3.820621   -2.613968
     72          1           0        3.945886    3.262925    3.802366
     73          1           0       -0.746347    4.544593   -2.919281
     74          1           0       -4.068200    4.534165   -0.574325
     75          1           0       -4.341662    3.767275    1.126926
     76          1           0       -3.071789    5.115851    1.147866
     77          1           0        8.213855   -2.436818   -0.763552
     78          1           0       -2.003553    6.604282   -2.948072
     79          1           0       -2.641798    6.284579   -1.053505
 ---------------------------------------------------------------------

 SCF Done:  E(RB3LYP) =  -1947.84441230     A.U. after   20 cycles

 Excitation energies and oscillator strengths:

 Excited State   1:      Singlet-A      0.7177 eV 1727.40 nm  f=0.0006  <S**2>=0.000
     155 ->156         0.70389
 This state for optimization and/or second-order correction.
 Total Energy, E(TD-HF/TD-DFT) =  -1947.81803549
 Copying the excited state density for this state as the 1-particle RhoCI density.

 The electronic state is 1-A.
 Alpha  occ. eigenvalues --  -19.19050 -19.17858 -19.15403 -19.12453 -19.11499
 Alpha  occ. eigenvalues --  -19.09701 -14.37162 -14.36712 -14.32873 -14.31102
 Alpha  occ. eigenvalues --  -10.34229 -10.30947 -10.28133 -10.27384 -10.26360
 Alpha  occ. eigenvalues --  -10.25896 -10.25824 -10.24466 -10.24214 -10.23682
 Alpha  occ. eigenvalues --  -10.23473 -10.23183 -10.23150 -10.22807 -10.22384
 Alpha  occ. eigenvalues --  -10.22187 -10.22064 -10.21208 -10.21057 -10.20691
 Alpha  occ. eigenvalues --  -10.19788 -10.19439 -10.19306 -10.19263 -10.18669
 Alpha  occ. eigenvalues --  -10.18602 -10.18144 -10.17992 -10.17863 -10.17474
 Alpha  occ. eigenvalues --  -10.16669 -10.15504 -10.14682  -1.09444  -1.09064
 Alpha  occ. eigenvalues --   -1.01551  -1.01549  -1.01214  -0.99833  -0.98786
 Alpha  occ. eigenvalues --   -0.97790  -0.94206  -0.92095  -0.83062  -0.82573
 Alpha  occ. eigenvalues --   -0.81537  -0.80873  -0.79974  -0.78481  -0.78030
 Alpha  occ. eigenvalues --   -0.76294  -0.76078  -0.75328  -0.74269  -0.72235
 Alpha  occ. eigenvalues --   -0.70459  -0.69898  -0.69271  -0.68965  -0.66642
 Alpha  occ. eigenvalues --   -0.66170  -0.65379  -0.62999  -0.61310  -0.60232
 Alpha  occ. eigenvalues --   -0.59898  -0.59344  -0.59019  -0.57205  -0.56442
 Alpha  occ. eigenvalues --   -0.55504  -0.55276  -0.54984  -0.53447  -0.53009
 Alpha  occ. eigenvalues --   -0.51922  -0.51547  -0.50732  -0.49734  -0.49153
 Alpha  occ. eigenvalues --   -0.49057  -0.48811  -0.48523  -0.48340  -0.48271
 Alpha  occ. eigenvalues --   -0.47543  -0.46615  -0.46526  -0.45854  -0.45653
 Alpha  occ. eigenvalues --   -0.45263  -0.44555  -0.44365  -0.44280  -0.43972
 Alpha  occ. eigenvalues --   -0.43605  -0.42983  -0.42695  -0.42265  -0.42150
 Alpha  occ. eigenvalues --   -0.41641  -0.41529  -0.41087  -0.40924  -0.40721
 Alpha  occ. eigenvalues --   -0.40217  -0.40116  -0.39668  -0.39606  -0.38976
 Alpha  occ. eigenvalues --   -0.38946  -0.38705  -0.38549  -0.38071  -0.38018
 Alpha  occ. eigenvalues --   -0.37837  -0.37455  -0.36996  -0.36807  -0.36301
 Alpha  occ. eigenvalues --   -0.36177  -0.35645  -0.34671  -0.34360  -0.33732
 Alpha  occ. eigenvalues --   -0.33724  -0.33143  -0.32071  -0.31915  -0.31593
 Alpha  occ. eigenvalues --   -0.30382  -0.30058  -0.29496  -0.29064  -0.28782
 Alpha  occ. eigenvalues --   -0.26958  -0.26570  -0.26289  -0.25714  -0.24281
 Alpha  occ. eigenvalues --   -0.23904  -0.23136  -0.22729  -0.22384  -0.18594
 Alpha virt. eigenvalues --   -0.13498  -0.08447  -0.03236  -0.03037  -0.02866
 Alpha virt. eigenvalues --    0.00747   0.01875   0.02045   0.03033   0.03327
 Alpha virt. eigenvalues --    0.03782   0.04693   0.04828   0.05057   0.05148

 Mulliken charges:
               1
     1  O   -0.215083
     2  O   -0.187323
     3  O   -0.222457
     4  O   -0.221052
     5  O   -0.216747
     6  O   -0.230964
     7  N    0.028589
     8  N   -0.199170
     9  N   -0.133695
    10  N   -0.301671
    11  C    0.020274
    12  C    0.265228
    13  C   -0.187017
    14  C   -0.054221
    15  C   -0.100145
    16  C   -0.130991
    17  C   -0.094408
    18  C    0.059682
    19  C   -0.113373
    20  C   -0.122595
    21  C    0.143429
    22  C    0.163427
    23  C   -0.103801
    24  C    0.012615
    25  C    0.069092
    26  C   -0.118094
    27  C    0.072201
    28  C    0.190061
    29  C    0.058705
    30  C    0.042660
    31  C   -0.018300
    32  C    0.063337
    33  C   -0.018296
    34  C    0.091811
    35  C    0.042841
    36  C   -0.022777
    37  C    0.163015
    38  C    0.099670
    39  C   -0.163595
    40  C    0.177956
    41  C   -0.039449
    42  C   -0.047373
    43  C   -0.081976
    44  H    0.037174
    45  H   -0.040941
    46  H   -0.071875
    47  H    0.151635
    48  H    0.154689
    49  H    0.013098
    50  H   -0.038590
    51  H    0.036289
    52  H    0.013359
    53  H    0.036126
    54  H    0.038958
    55  H    0.016248
    56  H    0.039678
    57  H    0.014705
    58  H    0.051164
    59  H    0.013572
    60  H    0.195401
    61  H    0.029960
    62  H    0.072421
    63  H    0.017416
    64  H    0.059968
    65  H    0.057555
    66  H    0.025569
    67  H    0.051784
    68  H    0.036487
    69  H   -0.079142
    70  H   -0.010839
    71  H   -0.001692
    72  H    0.194967
    73  H   -0.009067
    74  H    0.060918
    75  H    0.056126
    76  H    0.061815
    77  H    0.177484
    78  H    0.048494
    79  H    0.069064
 Sum of Mulliken charges =  -0.00000

 Dipole moment (field-independent basis, Debye):
    X=              3.4786    Y=              3.2971    Z=             -1.9434  Tot=              5.1719
 Quadrupole moment (field-independent basis, Debye-Ang):
   XX=           -234.3314   YY=           -227.5628   ZZ=           -274.9742
   XY=              3.7221   XZ=            -16.9737   YZ=            -17.1658

 Normal termination of Gaussian 16 at Tue Jul 30 23:01:44 2019.
