 Gaussian 16, Revision A.03,
 Gaussian 16:  ES64L-G16RevA.03 25-Dec-2016

 --------------------------
 # td=(NStates=1) B3LYP/SVP
 --------------------------

 --
 TD
 --
 Symbolic Z-matrix:
 Charge =  0 Multiplicity = 1

                         Standard orientation:
 ---------------------------------------------------------------------
 Center     Atomic      Atomic             Coordinates (Angstroms)
 Number     Number       Type             X           Y           Z
 ---------------------------------------------------------------------
      1          8           0        5.114738    0.032476   -3.232951
      2          8           0       -3.051472   -3.003612    3.088723
      3          8           0       -3.261769   -0.730085    3.142709
      4          8           0       -1.912453    7.285362    1.338844
      5          8           0       -0.591480    7.057389   -0.473985
      6          8           0       -1.579852   -4.007982   -0.041000
      7          7           0        2.339256    1.074293    0.662545
      8          7           0        4.312155   -0.612854   -1.200226
      9          7           0       -1.856754    0.712675   -0.411175
     10          7           0       -2.452673   -1.975467   -0.590628
     11          6           0        4.751130   -1.088917    0.108934
     12          6           0        4.435599   -0.150714    1.313417
     13          6           0        3.043657    0.159569    1.456733
     14          6           0        2.041393   -0.483444    2.189085
     15          6           0        0.790306    0.008707    1.819193
     16          6           0        0.950566    1.057345    0.822590
     17          6           0        6.202205   -1.212026   -0.074918
     18          6           0       -0.483932   -0.191938    2.595298
     19          6           0        6.557297   -0.915764   -1.372550
     20          6           0        0.177495    1.962391    0.215440
     21          6           0       -1.139566    1.824120   -0.287646
     22          6           0        5.259443   -0.447016   -2.127029
     23          6           0       -1.990385    2.905959   -0.839957
     24          6           0        2.278858   -1.621096    3.133900
     25          6           0        7.185643   -1.714613    1.053093
     26          6           0       -3.105408    2.265427   -1.359910
     27          6           0       -1.142358   -1.634192    2.555581
     28          6           0       -3.042273    0.839408   -1.068299
     29          6           0       -1.645370    4.292515   -0.999281
     30          6           0        7.813625   -0.858971   -2.180161
     31          6           0       -1.960611    5.136097    0.226728
     32          6           0       -4.374907    2.946682   -1.919963
     33          6           0       -3.830429   -0.196620   -1.384815
     34          6           0       -2.564781   -1.690893    2.931831
     35          6           0       -3.619205   -1.557496   -1.143860
     36          6           0        9.104401   -0.909563   -1.717003
     37          6           0       -1.436729    6.563110    0.324651
     38          6           0       -4.452035   -2.675433   -1.464480
     39          6           0       -3.791269   -3.862133   -1.068185
     40          6           0       -2.525445   -3.384982   -0.491395
     41          6           0       -5.807017   -2.598276   -2.002418
     42          6           0       -4.176530   -5.310959   -1.004439
     43          6           0       -6.539767   -3.685994   -2.309241
     44          1           0        4.158647   -2.129763    0.152212
     45          1           0        5.112260    0.729635    1.023039
     46          1           0        4.867017   -0.497286    2.205807
     47          1           0        2.819514    1.825393    0.022670
     48          1           0        3.155257   -0.544701   -1.375219
     49          1           0       -0.133249   -0.120120    3.753412
     50          1           0       -1.239652    0.516172    2.092596
     51          1           0        0.650649    3.010670   -0.030060
     52          1           0        3.405116   -1.841862    3.117567
     53          1           0        1.551575   -1.531357    3.996849
     54          1           0        2.114984   -2.480810    2.713665
     55          1           0        6.459129   -2.286636    1.859111
     56          1           0        8.186650   -0.990278    1.424766
     57          1           0        7.780767   -2.685865    0.586623
     58          1           0       -1.127451   -2.350177    1.485694
     59          1           0       -0.491385   -1.967236    3.520013
     60          1           0       -1.513033   -0.309156   -0.262465
     61          1           0       -2.216145    4.607210   -1.946824
     62          1           0       -0.669702    4.582286   -1.338389
     63          1           0        7.889564   -0.821781   -3.178030
     64          1           0       -1.706777    4.518682    1.161448
     65          1           0       -3.051673    5.168017    0.418505
     66          1           0       -4.205351    3.817349   -2.532085
     67          1           0       -5.144301    3.418890   -1.034170
     68          1           0       -4.562023    2.188608   -2.764302
     69          1           0       -4.774686   -0.066804   -1.994076
     70          1           0        9.334635   -1.102441   -0.533059
     71          1           0        9.894625   -1.164273   -2.472214
     72          1           0       -3.888235   -2.838696    3.552083
     73          1           0       -6.262366   -1.735633   -2.297993
     74          1           0       -5.089370   -5.392679   -0.261609
     75          1           0       -4.463831   -5.749066   -2.051250
     76          1           0       -3.202171   -5.791418   -0.590408
     77          1           0       -1.484080    8.241407    1.230344
     78          1           0       -7.523895   -3.475758   -2.787759
     79          1           0       -6.548205   -4.831179   -2.254358
 ---------------------------------------------------------------------

 SCF Done:  E(RB3LYP) =  -1947.79472371     A.U. after   19 cycles

 Excitation energies and oscillator strengths:

 Excited State   1:      Singlet-A      1.8587 eV  667.05 nm  f=0.3860  <S**2>=0.000
     154 ->156         0.22377
     155 ->156         0.67286
     155 <-156        -0.13939
 This state for optimization and/or second-order correction.
 Total Energy, E(TD-HF/TD-DFT) =  -1947.72641767
 Copying the excited state density for this state as the 1-particle RhoCI density.

 The electronic state is 1-A.
 Alpha  occ. eigenvalues --  -19.20215 -19.15914 -19.12856 -19.11656 -19.10494
 Alpha  occ. eigenvalues --  -19.09622 -14.39326 -14.36818 -14.36493 -14.28342
 Alpha  occ. eigenvalues --  -10.33371 -10.30507 -10.28417 -10.26306 -10.25866
 Alpha  occ. eigenvalues --  -10.25315 -10.24583 -10.24320 -10.23870 -10.23457
 Alpha  occ. eigenvalues --  -10.23036 -10.22578 -10.22541 -10.22422 -10.22408
 Alpha  occ. eigenvalues --  -10.21922 -10.21706 -10.21234 -10.21146 -10.21112
 Alpha  occ. eigenvalues --  -10.20990 -10.20871 -10.20810 -10.20594 -10.20310
 Alpha  occ. eigenvalues --  -10.20232 -10.20135 -10.20069 -10.19953 -10.19898
 Alpha  occ. eigenvalues --  -10.19544 -10.19350 -10.19301  -1.09786  -1.06998
 Alpha  occ. eigenvalues --   -1.02390  -1.01515  -0.99590  -0.98754  -0.98622
 Alpha  occ. eigenvalues --   -0.98030  -0.94455  -0.91463  -0.83411  -0.82973
 Alpha  occ. eigenvalues --   -0.81533  -0.81031  -0.80481  -0.79979  -0.77902
 Alpha  occ. eigenvalues --   -0.77644  -0.76143  -0.75509  -0.74793  -0.72481
 Alpha  occ. eigenvalues --   -0.71815  -0.70258  -0.69640  -0.68568  -0.68349
 Alpha  occ. eigenvalues --   -0.67024  -0.66590  -0.64303  -0.61040  -0.60424
 Alpha  occ. eigenvalues --   -0.60212  -0.58899  -0.57645  -0.57059  -0.56557
 Alpha  occ. eigenvalues --   -0.56270  -0.55829  -0.54840  -0.53852  -0.53269
 Alpha  occ. eigenvalues --   -0.52178  -0.51620  -0.51085  -0.50529  -0.49757
 Alpha  occ. eigenvalues --   -0.48976  -0.48674  -0.48425  -0.48229  -0.47461
 Alpha  occ. eigenvalues --   -0.46895  -0.46779  -0.46353  -0.45885  -0.45595
 Alpha  occ. eigenvalues --   -0.45384  -0.44943  -0.44661  -0.43811  -0.43551
 Alpha  occ. eigenvalues --   -0.43294  -0.42955  -0.42727  -0.42158  -0.42139
 Alpha  occ. eigenvalues --   -0.41886  -0.41463  -0.41301  -0.41169  -0.40769
 Alpha  occ. eigenvalues --   -0.40715  -0.40485  -0.40339  -0.39750  -0.39531
 Alpha  occ. eigenvalues --   -0.39134  -0.39093  -0.38923  -0.38792  -0.38430
 Alpha  occ. eigenvalues --   -0.38250  -0.37610  -0.37230  -0.36929  -0.36918
 Alpha  occ. eigenvalues --   -0.36411  -0.35296  -0.35095  -0.34695  -0.33823
 Alpha  occ. eigenvalues --   -0.33544  -0.33179  -0.32102  -0.31950  -0.31415
 Alpha  occ. eigenvalues --   -0.31215  -0.30877  -0.28931  -0.28389  -0.27095
 Alpha  occ. eigenvalues --   -0.26725  -0.26315  -0.26064  -0.25301  -0.24946
 Alpha  occ. eigenvalues --   -0.24837  -0.24388  -0.24118  -0.21751  -0.18644
 Alpha virt. eigenvalues --   -0.11615  -0.07176  -0.06639  -0.01625  -0.00744
 Alpha virt. eigenvalues --    0.00094   0.00229   0.01100   0.01396   0.01974
 Alpha virt. eigenvalues --    0.02344   0.02577   0.02756   0.03694   0.04480

 Mulliken charges:
               1
     1  O   -0.219303
     2  O   -0.226723
     3  O   -0.223778
     4  O   -0.199278
     5  O   -0.285372
     6  O   -0.205614
     7  N   -0.157234
     8  N   -0.246616
     9  N   -0.061670
    10  N   -0.319671
    11  C    0.063709
    12  C    0.179866
    13  C   -0.025254
    14  C   -0.171560
    15  C   -0.060360
    16  C    0.159812
    17  C   -0.145752
    18  C    0.002195
    19  C   -0.028129
    20  C   -0.156095
    21  C    0.025624
    22  C    0.147529
    23  C   -0.065785
    24  C    0.216416
    25  C   -0.079315
    26  C   -0.140418
    27  C   -0.107636
    28  C    0.154440
    29  C    0.097283
    30  C    0.034095
    31  C   -0.028081
    32  C    0.051945
    33  C   -0.121742
    34  C    0.150355
    35  C    0.058726
    36  C   -0.088534
    37  C    0.167089
    38  C    0.069736
    39  C   -0.181054
    40  C    0.149788
    41  C    0.037371
    42  C    0.012583
    43  C   -0.084405
    44  H    0.044675
    45  H    0.004276
    46  H    0.002092
    47  H    0.149987
    48  H    0.185110
    49  H    0.038793
    50  H    0.039521
    51  H    0.023493
    52  H   -0.016723
    53  H    0.030148
    54  H   -0.028314
    55  H    0.047249
    56  H    0.093275
    57  H    0.062664
    58  H    0.146396
    59  H    0.038662
    60  H    0.173719
    61  H    0.016726
    62  H    0.012126
    63  H   -0.030025
    64  H    0.056296
    65  H    0.026993
    66  H   -0.002229
    67  H    0.076168
    68  H    0.036872
    69  H   -0.013190
    70  H    0.029950
    71  H    0.041939
    72  H    0.169120
    73  H   -0.041887
    74  H    0.056042
    75  H    0.050683
    76  H    0.054468
    77  H    0.228033
    78  H    0.010419
    79  H    0.037291
 Sum of Mulliken charges =  -0.00000

 Dipole moment (field-independent basis, Debye):
    X=              0.1275    Y=              2.0232    Z=              3.0084  Tot=              3.6277
 Quadrupole moment (field-independent basis, Debye-Ang):
   XX=           -220.0797   YY=           -246.5287   ZZ=           -262.7228
   XY=            -13.0175   XZ=             31.3564   YZ=              6.5056

 Normal termination of Gaussian 16 at Thu Sep 19 00:47:28 2019.
