 Gaussian 16, Revision A.03,
 Gaussian 16:  ES64L-G16RevA.03 25-Dec-2016

 --------------------------
 # td=(NStates=1) B3LYP/SVP
 --------------------------

 --
 TD
 --
 Symbolic Z-matrix:
 Charge =  0 Multiplicity = 1

                         Standard orientation:
 ---------------------------------------------------------------------
 Center     Atomic      Atomic             Coordinates (Angstroms)
 Number     Number       Type             X           Y           Z
 ---------------------------------------------------------------------
      1          8           0        5.304928   -0.272382   -3.304385
      2          8           0       -3.000699   -2.939972    3.270287
      3          8           0       -3.289771   -0.765781    3.023936
      4          8           0       -1.705653    7.154457    1.460673
      5          8           0       -0.741986    7.039937   -0.621396
      6          8           0       -1.628969   -4.011610   -0.185929
      7          7           0        2.287187    0.996780    0.619949
      8          7           0        4.291687   -0.762107   -1.209238
      9          7           0       -1.883445    0.707954   -0.239227
     10          7           0       -2.464970   -1.897282   -0.575139
     11          6           0        4.705372   -1.351831    0.102574
     12          6           0        4.334627   -0.242991    1.183614
     13          6           0        2.910429   -0.029308    1.354555
     14          6           0        1.886118   -0.585533    2.089362
     15          6           0        0.675108    0.021149    1.876998
     16          6           0        0.937589    1.046406    0.852880
     17          6           0        6.299307   -1.338376   -0.108670
     18          6           0       -0.728900   -0.130550    2.570069
     19          6           0        6.693433   -0.842196   -1.309879
     20          6           0        0.120483    1.996479    0.241623
     21          6           0       -1.133709    1.918466   -0.172760
     22          6           0        5.350785   -0.513365   -2.095989
     23          6           0       -2.000084    2.946209   -0.936155
     24          6           0        2.189865   -1.597007    3.089915
     25          6           0        7.241424   -1.721167    0.975603
     26          6           0       -3.093432    2.367911   -1.396771
     27          6           0       -1.128882   -1.676633    2.535678
     28          6           0       -3.032884    0.977213   -1.065797
     29          6           0       -1.531675    4.385221   -0.986861
     30          6           0        7.939836   -0.734750   -2.064683
     31          6           0       -1.786974    5.104656    0.393096
     32          6           0       -4.314017    3.000197   -2.107710
     33          6           0       -3.832000   -0.141018   -1.392882
     34          6           0       -2.596545   -1.690146    2.979823
     35          6           0       -3.602971   -1.510972   -1.108315
     36          6           0        9.148761   -0.570769   -1.462957
     37          6           0       -1.369495    6.546179    0.289756
     38          6           0       -4.559402   -2.732591   -1.416921
     39          6           0       -3.814067   -3.846965   -1.110847
     40          6           0       -2.560405   -3.241567   -0.506664
     41          6           0       -5.798962   -2.589914   -2.067285
     42          6           0       -4.060004   -5.305770   -1.030744
     43          6           0       -6.711053   -3.571873   -2.311036
     44          1           0        4.269446   -2.399153    0.194371
     45          1           0        4.997000    0.589004    1.102990
     46          1           0        4.609648   -0.609872    2.201596
     47          1           0        2.688590    1.445753   -0.215896
     48          1           0        3.419223   -1.017046   -1.707100
     49          1           0       -0.437319    0.265501    3.479064
     50          1           0       -1.429715    0.567617    2.096885
     51          1           0        0.472116    2.988722   -0.086914
     52          1           0        3.335855   -1.649430    3.474544
     53          1           0        1.600319   -1.394753    4.133463
     54          1           0        1.885556   -2.680513    3.002944
     55          1           0        6.797478   -2.334941    1.794776
     56          1           0        7.537559   -0.694507    1.426290
     57          1           0        8.108769   -2.318512    0.474370
     58          1           0       -1.075640   -2.219293    1.605489
     59          1           0       -0.432999   -2.308103    3.240773
     60          1           0       -1.587413   -0.191946   -0.153443
     61          1           0       -2.160855    4.886683   -1.805283
     62          1           0       -0.577833    4.504493   -1.326816
     63          1           0        7.825833   -0.932348   -3.296330
     64          1           0       -1.089925    4.443928    1.200631
     65          1           0       -2.906352    5.190953    0.780614
     66          1           0       -4.139521    3.943157   -2.506237
     67          1           0       -4.921537    3.111891   -1.097687
     68          1           0       -4.994288    2.306533   -2.874904
     69          1           0       -4.698771    0.062778   -1.793664
     70          1           0        9.290720   -0.321703   -0.212498
     71          1           0       10.025647   -0.688269   -2.056591
     72          1           0       -3.892810   -2.808376    3.461865
     73          1           0       -6.097811   -1.626871   -2.492387
     74          1           0       -5.137944   -5.512168   -0.460797
     75          1           0       -4.227908   -5.807143   -1.913024
     76          1           0       -3.225434   -5.865240   -0.574120
     77          1           0       -1.441328    8.116422    1.470489
     78          1           0       -7.723574   -3.425567   -2.939507
     79          1           0       -6.446855   -4.641055   -2.243577
 ---------------------------------------------------------------------

 SCF Done:  E(RB3LYP) =  -1947.86874444     A.U. after   16 cycles

 Excitation energies and oscillator strengths:

 Excited State   1:      Singlet-A      2.0941 eV  592.06 nm  f=0.4166  <S**2>=0.000
     155 ->156         0.70331
     155 <-156        -0.10034
 This state for optimization and/or second-order correction.
 Total Energy, E(TD-HF/TD-DFT) =  -1947.79178686
 Copying the excited state density for this state as the 1-particle RhoCI density.

 The electronic state is 1-A.
 Alpha  occ. eigenvalues --  -19.19317 -19.16161 -19.14044 -19.11676 -19.10590
 Alpha  occ. eigenvalues --  -19.09102 -14.37693 -14.35607 -14.35382 -14.29243
 Alpha  occ. eigenvalues --  -10.33161 -10.29936 -10.28870 -10.26706 -10.25584
 Alpha  occ. eigenvalues --  -10.25295 -10.23863 -10.23813 -10.23738 -10.22685
 Alpha  occ. eigenvalues --  -10.22438 -10.22376 -10.22367 -10.21964 -10.21784
 Alpha  occ. eigenvalues --  -10.21718 -10.21717 -10.21686 -10.21424 -10.21076
 Alpha  occ. eigenvalues --  -10.20865 -10.20703 -10.20438 -10.20377 -10.20271
 Alpha  occ. eigenvalues --  -10.20058 -10.19772 -10.19316 -10.19117 -10.19092
 Alpha  occ. eigenvalues --  -10.18928 -10.18557 -10.17900  -1.10660  -1.09748
 Alpha  occ. eigenvalues --   -1.01739  -1.01729  -1.01415  -0.99764  -0.97666
 Alpha  occ. eigenvalues --   -0.96177  -0.92464  -0.92293  -0.83242  -0.82216
 Alpha  occ. eigenvalues --   -0.81582  -0.81006  -0.80747  -0.79420  -0.77832
 Alpha  occ. eigenvalues --   -0.76497  -0.75754  -0.75132  -0.74582  -0.72088
 Alpha  occ. eigenvalues --   -0.70603  -0.70022  -0.69546  -0.69094  -0.68389
 Alpha  occ. eigenvalues --   -0.66751  -0.65892  -0.64123  -0.60620  -0.60111
 Alpha  occ. eigenvalues --   -0.59810  -0.59126  -0.58131  -0.57271  -0.56897
 Alpha  occ. eigenvalues --   -0.56409  -0.55318  -0.55104  -0.53218  -0.52888
 Alpha  occ. eigenvalues --   -0.51588  -0.50877  -0.50560  -0.50233  -0.49255
 Alpha  occ. eigenvalues --   -0.48897  -0.48556  -0.48086  -0.47566  -0.47341
 Alpha  occ. eigenvalues --   -0.47221  -0.46995  -0.46386  -0.46227  -0.45397
 Alpha  occ. eigenvalues --   -0.45230  -0.44970  -0.43638  -0.43573  -0.43429
 Alpha  occ. eigenvalues --   -0.42972  -0.42811  -0.42558  -0.42353  -0.42140
 Alpha  occ. eigenvalues --   -0.42096  -0.41861  -0.41472  -0.41022  -0.40830
 Alpha  occ. eigenvalues --   -0.40238  -0.40018  -0.39698  -0.39551  -0.39393
 Alpha  occ. eigenvalues --   -0.39290  -0.38985  -0.38596  -0.38496  -0.38059
 Alpha  occ. eigenvalues --   -0.37698  -0.37565  -0.37183  -0.37073  -0.36679
 Alpha  occ. eigenvalues --   -0.36359  -0.36024  -0.35012  -0.34764  -0.34551
 Alpha  occ. eigenvalues --   -0.33900  -0.33641  -0.33091  -0.32538  -0.31993
 Alpha  occ. eigenvalues --   -0.31217  -0.30914  -0.29444  -0.28958  -0.27738
 Alpha  occ. eigenvalues --   -0.27464  -0.26898  -0.26589  -0.25215  -0.24658
 Alpha  occ. eigenvalues --   -0.24310  -0.23464  -0.23178  -0.22245  -0.18688
 Alpha virt. eigenvalues --   -0.10367  -0.06022  -0.05035  -0.01791  -0.00949
 Alpha virt. eigenvalues --    0.00350   0.01334   0.02765   0.02811   0.03323
 Alpha virt. eigenvalues --    0.03689   0.04147   0.04372   0.05130   0.05295

 Mulliken charges:
               1
     1  O   -0.236594
     2  O   -0.143455
     3  O   -0.178809
     4  O   -0.210677
     5  O   -0.217730
     6  O   -0.254311
     7  N   -0.085486
     8  N   -0.238371
     9  N   -0.106229
    10  N   -0.196891
    11  C    0.097139
    12  C    0.194250
    13  C   -0.046349
    14  C   -0.045513
    15  C   -0.118643
    16  C    0.074253
    17  C   -0.211609
    18  C    0.180492
    19  C   -0.031496
    20  C   -0.083036
    21  C    0.053958
    22  C    0.148862
    23  C   -0.083258
    24  C   -0.061819
    25  C    0.023130
    26  C   -0.075673
    27  C   -0.043975
    28  C    0.097481
    29  C    0.131894
    30  C   -0.051341
    31  C   -0.114453
    32  C    0.048104
    33  C   -0.012020
    34  C    0.105761
    35  C    0.051374
    36  C   -0.071920
    37  C    0.169870
    38  C    0.091685
    39  C   -0.157163
    40  C    0.122424
    41  C   -0.047105
    42  C    0.086081
    43  C   -0.084730
    44  H    0.054788
    45  H   -0.007338
    46  H   -0.005253
    47  H    0.122561
    48  H    0.140948
    49  H   -0.007875
    50  H    0.024790
    51  H   -0.026243
    52  H    0.020766
    53  H    0.020086
    54  H    0.043205
    55  H    0.020454
    56  H    0.056305
    57  H    0.065710
    58  H    0.064350
    59  H    0.035454
    60  H    0.102842
    61  H    0.012929
    62  H    0.003728
    63  H    0.078356
    64  H    0.090383
    65  H    0.068613
    66  H    0.010173
    67  H    0.055750
    68  H    0.067406
    69  H   -0.128082
    70  H    0.061171
    71  H    0.021465
    72  H    0.134365
    73  H   -0.003247
    74  H    0.038289
    75  H    0.000225
    76  H    0.035280
    77  H    0.196726
    78  H    0.043124
    79  H    0.019694
 Sum of Mulliken charges =  -0.00000

 Dipole moment (field-independent basis, Debye):
    X=             -0.1539    Y=              3.3102    Z=              2.8676  Tot=              4.3823
 Quadrupole moment (field-independent basis, Debye-Ang):
   XX=           -222.6062   YY=           -239.9854   ZZ=           -261.6693
   XY=            -13.7281   XZ=             30.5312   YZ=              6.3730

 Normal termination of Gaussian 16 at Tue Oct  1 19:15:03 2019.
