 Gaussian 16, Revision A.03,
 Gaussian 16:  ES64L-G16RevA.03 25-Dec-2016

 --------------------------
 # td=(NStates=1) B3LYP/SVP
 --------------------------

 --
 TD
 --
 Symbolic Z-matrix:
 Charge =  0 Multiplicity = 1

                         Standard orientation:
 ---------------------------------------------------------------------
 Center     Atomic      Atomic             Coordinates (Angstroms)
 Number     Number       Type             X           Y           Z
 ---------------------------------------------------------------------
      1          8           0        5.188263   -0.232539   -3.327201
      2          8           0       -2.920306   -2.814908    3.303447
      3          8           0       -3.219861   -0.592193    3.116727
      4          8           0       -1.853119    7.187569    1.381714
      5          8           0       -0.968366    7.064243   -0.658501
      6          8           0       -1.617561   -3.952616    0.318964
      7          7           0        2.412139    0.962063    0.552197
      8          7           0        4.215939   -0.699406   -1.163630
      9          7           0       -1.892700    0.684087   -0.400324
     10          7           0       -2.469354   -1.927249   -0.451410
     11          6           0        4.795897   -1.185146    0.121931
     12          6           0        4.411711   -0.183777    1.229688
     13          6           0        3.015306    0.176622    1.356793
     14          6           0        2.013977   -0.513447    2.197138
     15          6           0        0.792373    0.156831    1.824256
     16          6           0        0.990915    1.077944    0.841694
     17          6           0        6.227089   -1.139948   -0.197823
     18          6           0       -0.473807   -0.138400    2.548493
     19          6           0        6.521938   -0.736998   -1.429140
     20          6           0        0.125640    2.015113    0.147105
     21          6           0       -1.161930    1.828164   -0.265904
     22          6           0        5.251963   -0.532191   -2.146278
     23          6           0       -1.954117    2.870166   -0.967273
     24          6           0        2.173274   -1.499624    3.191539
     25          6           0        7.095774   -1.622840    0.973776
     26          6           0       -3.182932    2.206193   -1.386397
     27          6           0       -1.050482   -1.564497    2.414166
     28          6           0       -3.028800    0.842205   -1.039284
     29          6           0       -1.634453    4.300645   -0.980187
     30          6           0        7.718460   -0.694424   -2.164538
     31          6           0       -1.824450    5.072359    0.399960
     32          6           0       -4.405767    2.868668   -1.976946
     33          6           0       -3.869135   -0.136754   -1.418167
     34          6           0       -2.521380   -1.591270    3.013676
     35          6           0       -3.554868   -1.639070   -1.046891
     36          6           0        8.993743   -0.827079   -1.577766
     37          6           0       -1.526079    6.502239    0.253563
     38          6           0       -4.399290   -2.813382   -1.449084
     39          6           0       -3.697867   -3.901804   -0.889854
     40          6           0       -2.483483   -3.393871   -0.337930
     41          6           0       -5.710606   -2.765788   -2.186919
     42          6           0       -4.033702   -5.362987   -0.999570
     43          6           0       -6.517289   -3.766130   -2.628523
     44          1           0        4.487886   -2.183267    0.342572
     45          1           0        4.850722    0.829076    0.867076
     46          1           0        4.841592   -0.563673    2.246891
     47          1           0        3.182111    1.505272    0.110225
     48          1           0        3.235652   -0.811075   -1.380275
     49          1           0       -0.481718    0.015638    3.647291
     50          1           0       -1.393462    0.396294    2.159766
     51          1           0        0.634984    2.817569   -0.424749
     52          1           0        3.299912   -1.873398    3.370227
     53          1           0        1.649388   -1.535486    4.241288
     54          1           0        1.734206   -2.591959    2.908502
     55          1           0        6.294243   -2.014097    1.822725
     56          1           0        7.574976   -0.829808    1.498173
     57          1           0        7.733910   -2.487641    0.674532
     58          1           0       -1.044597   -1.967121    1.416318
     59          1           0       -0.442620   -2.208795    3.144970
     60          1           0       -1.722659   -0.197645   -0.110197
     61          1           0       -1.977341    4.927790   -2.039467
     62          1           0       -0.572516    4.441208   -1.264295
     63          1           0        7.781830   -0.776709   -3.301359
     64          1           0       -1.278543    4.604787    1.225370
     65          1           0       -2.918316    4.937154    0.617268
     66          1           0       -3.907926    3.895105   -2.398312
     67          1           0       -5.190858    3.024046   -1.191614
     68          1           0       -4.707025    2.278367   -2.839395
     69          1           0       -4.794192    0.279301   -1.716028
     70          1           0        9.037660   -1.001661   -0.512119
     71          1           0        9.847897   -0.657731   -2.229837
     72          1           0       -3.754559   -2.933180    3.178768
     73          1           0       -6.013655   -1.821941   -2.343102
     74          1           0       -4.994104   -5.597526   -0.448983
     75          1           0       -4.161947   -5.706908   -1.902039
     76          1           0       -3.108166   -5.840421   -0.460337
     77          1           0       -1.292196    8.032338    1.336760
     78          1           0       -7.420081   -3.412060   -3.184966
     79          1           0       -6.330805   -4.831084   -2.452502
 ---------------------------------------------------------------------

 SCF Done:  E(RB3LYP) =  -1947.85246265     A.U. after   16 cycles

 Excitation energies and oscillator strengths:

 Excited State   1:      Singlet-A      1.7075 eV  726.10 nm  f=0.3498  <S**2>=0.000
     155 ->156         0.70899
     155 <-156        -0.12205
 This state for optimization and/or second-order correction.
 Total Energy, E(TD-HF/TD-DFT) =  -1947.78971164
 Copying the excited state density for this state as the 1-particle RhoCI density.

 The electronic state is 1-A.
 Alpha  occ. eigenvalues --  -19.18193 -19.16751 -19.13248 -19.12169 -19.11549
 Alpha  occ. eigenvalues --  -19.10593 -14.38632 -14.35257 -14.35229 -14.29895
 Alpha  occ. eigenvalues --  -10.32349 -10.31097 -10.28833 -10.27655 -10.24905
 Alpha  occ. eigenvalues --  -10.24503 -10.23998 -10.23237 -10.23094 -10.22854
 Alpha  occ. eigenvalues --  -10.22437 -10.22255 -10.22111 -10.21938 -10.21896
 Alpha  occ. eigenvalues --  -10.21894 -10.21389 -10.21162 -10.21146 -10.21103
 Alpha  occ. eigenvalues --  -10.21016 -10.20895 -10.20617 -10.20439 -10.20420
 Alpha  occ. eigenvalues --  -10.19965 -10.19880 -10.19152 -10.18874 -10.18762
 Alpha  occ. eigenvalues --  -10.18676 -10.18309 -10.18193  -1.10977  -1.09718
 Alpha  occ. eigenvalues --   -1.02844  -1.02238  -1.00408  -1.00250  -0.99997
 Alpha  occ. eigenvalues --   -0.99837  -0.93809  -0.93431  -0.82991  -0.82554
 Alpha  occ. eigenvalues --   -0.82031  -0.80860  -0.80565  -0.80036  -0.78020
 Alpha  occ. eigenvalues --   -0.77143  -0.76481  -0.75692  -0.74493  -0.72243
 Alpha  occ. eigenvalues --   -0.71531  -0.70829  -0.70319  -0.68676  -0.68395
 Alpha  occ. eigenvalues --   -0.67725  -0.66401  -0.64695  -0.61853  -0.61416
 Alpha  occ. eigenvalues --   -0.60418  -0.59749  -0.58853  -0.58309  -0.56327
 Alpha  occ. eigenvalues --   -0.56084  -0.55691  -0.55020  -0.54621  -0.53207
 Alpha  occ. eigenvalues --   -0.52655  -0.52192  -0.51439  -0.50622  -0.49522
 Alpha  occ. eigenvalues --   -0.48814  -0.48622  -0.48408  -0.48126  -0.47820
 Alpha  occ. eigenvalues --   -0.47678  -0.47047  -0.46586  -0.45954  -0.45654
 Alpha  occ. eigenvalues --   -0.45451  -0.45358  -0.44931  -0.44550  -0.44014
 Alpha  occ. eigenvalues --   -0.43567  -0.43451  -0.43120  -0.42844  -0.42579
 Alpha  occ. eigenvalues --   -0.42318  -0.42103  -0.41840  -0.41569  -0.41127
 Alpha  occ. eigenvalues --   -0.41057  -0.40722  -0.40588  -0.40208  -0.40058
 Alpha  occ. eigenvalues --   -0.39662  -0.39221  -0.38938  -0.38773  -0.38607
 Alpha  occ. eigenvalues --   -0.37897  -0.37625  -0.37355  -0.37049  -0.36068
 Alpha  occ. eigenvalues --   -0.35930  -0.35836  -0.35524  -0.35103  -0.34554
 Alpha  occ. eigenvalues --   -0.34404  -0.33172  -0.32368  -0.31971  -0.31727
 Alpha  occ. eigenvalues --   -0.31526  -0.30396  -0.29813  -0.28995  -0.28894
 Alpha  occ. eigenvalues --   -0.26895  -0.26727  -0.25797  -0.25502  -0.25315
 Alpha  occ. eigenvalues --   -0.24821  -0.23747  -0.23697  -0.22323  -0.18016
 Alpha virt. eigenvalues --   -0.11331  -0.07261  -0.06362  -0.00978  -0.00794
 Alpha virt. eigenvalues --    0.00070   0.00213   0.01175   0.02310   0.02975
 Alpha virt. eigenvalues --    0.03491   0.03863   0.04817   0.05437   0.05960

 Mulliken charges:
               1
     1  O   -0.212442
     2  O   -0.078838
     3  O   -0.239408
     4  O   -0.217923
     5  O   -0.221668
     6  O   -0.188480
     7  N   -0.024153
     8  N   -0.278977
     9  N    0.067857
    10  N   -0.265765
    11  C    0.153513
    12  C    0.118958
    13  C   -0.156577
    14  C   -0.026272
    15  C   -0.036940
    16  C    0.071820
    17  C   -0.190736
    18  C    0.014368
    19  C    0.044796
    20  C   -0.073827
    21  C    0.105840
    22  C    0.171666
    23  C   -0.078010
    24  C   -0.056553
    25  C    0.056686
    26  C   -0.157406
    27  C   -0.060273
    28  C    0.059128
    29  C   -0.024394
    30  C   -0.105516
    31  C    0.028966
    32  C    0.068813
    33  C   -0.090980
    34  C    0.120801
    35  C    0.042111
    36  C   -0.017113
    37  C    0.135726
    38  C    0.019516
    39  C   -0.216625
    40  C    0.160533
    41  C    0.041094
    42  C    0.117657
    43  C   -0.012039
    44  H    0.020513
    45  H   -0.008551
    46  H    0.034307
    47  H    0.128409
    48  H    0.131332
    49  H    0.005048
    50  H    0.022281
    51  H    0.001933
    52  H    0.004235
    53  H    0.036261
    54  H    0.036945
    55  H    0.021480
    56  H    0.039611
    57  H    0.059467
    58  H    0.080472
    59  H    0.018388
    60  H    0.074348
    61  H    0.054410
    62  H    0.009180
    63  H    0.039620
    64  H    0.058403
    65  H    0.051075
    66  H    0.036277
    67  H    0.055550
    68  H    0.030500
    69  H   -0.036479
    70  H    0.003867
    71  H    0.032563
    72  H    0.113693
    73  H   -0.053490
    74  H    0.027483
    75  H   -0.004921
    76  H    0.044573
    77  H    0.200590
    78  H    0.038569
    79  H    0.023127
 Sum of Mulliken charges =  -0.00000

 Dipole moment (field-independent basis, Debye):
    X=              0.2984    Y=             -0.0501    Z=              2.1830  Tot=              2.2039
 Quadrupole moment (field-independent basis, Debye-Ang):
   XX=           -214.5196   YY=           -246.5940   ZZ=           -268.0863
   XY=              3.9848   XZ=             32.5801   YZ=              7.5739

 Normal termination of Gaussian 16 at Mon Oct  7 17:07:24 2019.
