 Gaussian 16, Revision A.03,
 Gaussian 16:  ES64L-G16RevA.03 25-Dec-2016

 --------------------------
 # td=(NStates=1) B3LYP/SVP
 --------------------------

 --
 TD
 --
 Symbolic Z-matrix:
 Charge =  0 Multiplicity = 1

                         Standard orientation:
 ---------------------------------------------------------------------
 Center     Atomic      Atomic             Coordinates (Angstroms)
 Number     Number       Type             X           Y           Z
 ---------------------------------------------------------------------
      1          8           0       -3.452591   -0.583141   -3.125246
      2          8           0        3.231230    2.137823    3.767411
      3          8           0        4.099763    0.208761    4.280420
      4          8           0        7.660090   -1.191645   -1.076690
      5          8           0        6.679872   -2.327848   -2.735374
      6          8           0       -2.716799    1.366777    1.677711
      7          7           0       -0.277140   -2.556407    0.316706
      8          7           0       -2.675545   -1.029672   -0.843139
      9          7           0        1.102152    0.261484   -0.603553
     10          7           0       -1.081131    1.611404    0.099137
     11          6           0       -3.288899   -1.402050    0.330373
     12          6           0       -2.685581   -2.660422    1.044153
     13          6           0       -1.163898   -2.452789    1.229145
     14          6           0       -0.479472   -2.011097    2.503922
     15          6           0        0.819187   -1.778149    2.131698
     16          6           0        0.992220   -2.152100    0.737103
     17          6           0       -4.753045   -1.862719   -0.111036
     18          6           0        1.970038   -1.257449    2.996247
     19          6           0       -4.827527   -1.724118   -1.409829
     20          6           0        2.158833   -1.864244   -0.123681
     21          6           0        2.077423   -0.687866   -0.740650
     22          6           0       -3.600283   -1.108174   -1.931623
     23          6           0        3.002195   -0.228472   -1.918987
     24          6           0       -1.164620   -1.501682    3.754291
     25          6           0       -5.835253   -2.294844    0.940122
     26          6           0        2.613441    0.980464   -2.316680
     27          6           0        1.956546    0.257200    3.103166
     28          6           0        1.266035    1.311612   -1.519264
     29          6           0        4.163937   -1.044292   -2.309285
     30          6           0       -5.962361   -1.959459   -2.301362
     31          6           0        5.359584   -0.656564   -1.455533
     32          6           0        3.033065    1.805405   -3.340335
     33          6           0        0.595128    2.475865   -1.536064
     34          6           0        3.190077    0.799600    3.724312
     35          6           0       -0.676011    2.599224   -0.681143
     36          6           0       -7.028172   -2.890446   -2.147918
     37          6           0        6.614490   -1.445167   -1.872346
     38          6           0       -1.489718    3.768665   -0.458397
     39          6           0       -2.398986    3.416826    0.571615
     40          6           0       -2.076543    1.989769    0.883539
     41          6           0       -1.246214    5.034668   -1.175186
     42          6           0       -3.640392    4.158754    1.086036
     43          6           0       -1.785540    6.226903   -0.795332
     44          1           0       -3.180255   -0.516879    0.887837
     45          1           0       -2.750751   -3.469640    0.295125
     46          1           0       -2.993592   -3.268499    2.027032
     47          1           0       -0.459566   -2.702735   -0.630387
     48          1           0       -1.931247   -0.311043   -0.763385
     49          1           0        1.859135   -1.633273    3.986264
     50          1           0        2.909951   -1.824952    2.679359
     51          1           0        2.819870   -2.683153   -0.498599
     52          1           0       -1.841502   -2.338188    4.124683
     53          1           0       -0.460835   -1.406941    4.267304
     54          1           0       -1.388686   -0.478307    3.491275
     55          1           0       -5.451612   -1.981461    2.031197
     56          1           0       -5.651257   -3.341161    0.841328
     57          1           0       -7.024482   -2.064180    0.707946
     58          1           0        1.916676    0.723739    2.135463
     59          1           0        1.022495    0.563742    3.618870
     60          1           0        0.365368    0.220487    0.077141
     61          1           0        4.286870   -0.708705   -3.487050
     62          1           0        3.768178   -2.064708   -2.561617
     63          1           0       -5.767461   -1.631547   -3.232135
     64          1           0        5.298170   -0.764714   -0.383029
     65          1           0        5.591134    0.551744   -1.637422
     66          1           0        3.669467    1.127475   -3.845980
     67          1           0        3.534237    2.712873   -3.107684
     68          1           0        2.224370    2.081752   -4.028534
     69          1           0        1.076966    3.373381   -1.905638
     70          1           0       -7.269005   -3.413418   -1.285412
     71          1           0       -7.660068   -2.932787   -3.013288
     72          1           0        4.006121    2.292420    4.169654
     73          1           0       -0.458738    5.214213   -1.910995
     74          1           0       -4.227564    4.614586    0.368720
     75          1           0       -4.220863    3.206419    1.426560
     76          1           0       -3.243336    5.201670    1.818015
     77          1           0        8.294898   -1.884389   -1.364959
     78          1           0       -1.546503    7.172583   -1.404679
     79          1           0       -2.865559    6.413001   -0.329327
 ---------------------------------------------------------------------

 SCF Done:  E(RB3LYP) =  -1947.74969390     A.U. after   18 cycles

 Excitation energies and oscillator strengths:

 Excited State   1:      Singlet-A      0.7022 eV 1765.74 nm  f=0.0016  <S**2>=0.000
     155 ->156         0.70501
 This state for optimization and/or second-order correction.
 Total Energy, E(TD-HF/TD-DFT) =  -1947.72388973
 Copying the excited state density for this state as the 1-particle RhoCI density.

 The electronic state is 1-A.
 Alpha  occ. eigenvalues --  -19.19742 -19.17074 -19.13713 -19.13522 -19.12027
 Alpha  occ. eigenvalues --  -19.08938 -14.38036 -14.37423 -14.34263 -14.31127
 Alpha  occ. eigenvalues --  -10.33425 -10.31536 -10.28664 -10.28195 -10.27042
 Alpha  occ. eigenvalues --  -10.27008 -10.24868 -10.24357 -10.23188 -10.22265
 Alpha  occ. eigenvalues --  -10.22251 -10.22168 -10.22090 -10.22074 -10.21968
 Alpha  occ. eigenvalues --  -10.21951 -10.21939 -10.21868 -10.21696 -10.21150
 Alpha  occ. eigenvalues --  -10.20813 -10.20736 -10.20319 -10.20258 -10.19958
 Alpha  occ. eigenvalues --  -10.19772 -10.18937 -10.18807 -10.18737 -10.18560
 Alpha  occ. eigenvalues --  -10.16852 -10.16263 -10.15778  -1.11543  -1.11278
 Alpha  occ. eigenvalues --   -1.06129  -1.00530  -0.99856  -0.99048  -0.98285
 Alpha  occ. eigenvalues --   -0.97737  -0.96264  -0.92226  -0.85314  -0.82664
 Alpha  occ. eigenvalues --   -0.81350  -0.81183  -0.81057  -0.79470  -0.77779
 Alpha  occ. eigenvalues --   -0.77401  -0.75986  -0.75469  -0.74260  -0.73351
 Alpha  occ. eigenvalues --   -0.71658  -0.71083  -0.70235  -0.69407  -0.68041
 Alpha  occ. eigenvalues --   -0.67152  -0.66281  -0.63143  -0.61396  -0.60931
 Alpha  occ. eigenvalues --   -0.60554  -0.60373  -0.59851  -0.58879  -0.56994
 Alpha  occ. eigenvalues --   -0.56662  -0.55641  -0.54830  -0.54126  -0.53221
 Alpha  occ. eigenvalues --   -0.52402  -0.51587  -0.50907  -0.50039  -0.49957
 Alpha  occ. eigenvalues --   -0.49730  -0.49449  -0.49015  -0.48770  -0.48413
 Alpha  occ. eigenvalues --   -0.48098  -0.47701  -0.46815  -0.46540  -0.46365
 Alpha  occ. eigenvalues --   -0.46223  -0.45659  -0.45035  -0.44934  -0.44238
 Alpha  occ. eigenvalues --   -0.44143  -0.44122  -0.43415  -0.43234  -0.42519
 Alpha  occ. eigenvalues --   -0.42350  -0.41779  -0.41727  -0.41308  -0.41194
 Alpha  occ. eigenvalues --   -0.41039  -0.40707  -0.40324  -0.40076  -0.40012
 Alpha  occ. eigenvalues --   -0.39889  -0.39746  -0.38930  -0.38830  -0.38440
 Alpha  occ. eigenvalues --   -0.37685  -0.37514  -0.37225  -0.36406  -0.36312
 Alpha  occ. eigenvalues --   -0.35802  -0.35662  -0.35258  -0.34685  -0.34068
 Alpha  occ. eigenvalues --   -0.33806  -0.33133  -0.32989  -0.31891  -0.31736
 Alpha  occ. eigenvalues --   -0.31200  -0.29997  -0.29844  -0.29640  -0.29343
 Alpha  occ. eigenvalues --   -0.27887  -0.27654  -0.26683  -0.24529  -0.24060
 Alpha  occ. eigenvalues --   -0.23793  -0.23679  -0.22906  -0.22718  -0.17859
 Alpha virt. eigenvalues --   -0.13116  -0.06733  -0.04534  -0.03090  -0.01823
 Alpha virt. eigenvalues --   -0.00133   0.00072   0.02007   0.02471   0.02779
 Alpha virt. eigenvalues --    0.03234   0.04065   0.04253   0.05244   0.05317

 Mulliken charges:
               1
     1  O   -0.320871
     2  O   -0.114446
     3  O   -0.244346
     4  O   -0.166570
     5  O   -0.253779
     6  O   -0.170867
     7  N    0.077031
     8  N   -0.218566
     9  N   -0.076314
    10  N   -0.245696
    11  C    0.083143
    12  C    0.194257
    13  C   -0.224056
    14  C   -0.243856
    15  C   -0.119403
    16  C   -0.089951
    17  C   -0.181853
    18  C    0.111728
    19  C   -0.016305
    20  C   -0.132184
    21  C    0.124744
    22  C    0.197325
    23  C   -0.114092
    24  C    0.344197
    25  C    0.029761
    26  C   -0.125555
    27  C    0.037859
    28  C    0.157974
    29  C    0.064962
    30  C    0.026651
    31  C   -0.004966
    32  C    0.156464
    33  C   -0.101303
    34  C    0.102556
    35  C    0.071365
    36  C   -0.007819
    37  C    0.150125
    38  C    0.053163
    39  C   -0.195420
    40  C    0.136175
    41  C   -0.014207
    42  C    0.026150
    43  C   -0.097269
    44  H    0.019383
    45  H   -0.034071
    46  H    0.038740
    47  H    0.089256
    48  H    0.144281
    49  H   -0.007839
    50  H    0.017848
    51  H    0.016223
    52  H    0.019980
    53  H   -0.152380
    54  H    0.024678
    55  H    0.052660
    56  H    0.032322
    57  H    0.074822
    58  H    0.015364
    59  H    0.047267
    60  H    0.164150
    61  H    0.032495
    62  H    0.043184
    63  H   -0.032143
    64  H    0.055252
    65  H    0.070084
    66  H   -0.014986
    67  H    0.019770
    68  H    0.028776
    69  H    0.002975
    70  H   -0.002650
    71  H    0.024906
    72  H    0.120650
    73  H    0.009133
    74  H    0.020716
    75  H    0.058321
    76  H    0.065101
    77  H    0.185470
    78  H    0.033899
    79  H    0.050427
 Sum of Mulliken charges =  -0.00000

 Dipole moment (field-independent basis, Debye):
    X=              2.3137    Y=              3.1483    Z=             -0.4380  Tot=              3.9315
 Quadrupole moment (field-independent basis, Debye-Ang):
   XX=           -242.4600   YY=           -231.7384   ZZ=           -274.5905
   XY=             12.1206   XZ=            -20.9373   YZ=             -8.9845

 Normal termination of Gaussian 16 at Mon Jul 29 07:20:44 2019.
