 Gaussian 16, Revision A.03,
 Gaussian 16:  ES64L-G16RevA.03 25-Dec-2016

 --------------------------
 # td=(NStates=1) B3LYP/SVP
 --------------------------

 --
 TD
 --
 Symbolic Z-matrix:
 Charge =  0 Multiplicity = 1

                         Standard orientation:
 ---------------------------------------------------------------------
 Center     Atomic      Atomic             Coordinates (Angstroms)
 Number     Number       Type             X           Y           Z
 ---------------------------------------------------------------------
      1          8           0        5.376912   -0.214914   -3.365895
      2          8           0       -2.914565   -2.936304    3.323204
      3          8           0       -3.421178   -0.763178    2.793562
      4          8           0       -1.771392    7.197761    1.364972
      5          8           0       -0.428261    6.941633   -0.374094
      6          8           0       -1.619314   -3.859043    0.040643
      7          7           0        2.261227    0.995545    0.658385
      8          7           0        4.367950   -0.637663   -1.231804
      9          7           0       -1.821725    0.755746   -0.506105
     10          7           0       -2.597627   -1.824439   -0.424029
     11          6           0        4.777566   -1.170941   -0.015747
     12          6           0        4.360405   -0.283427    1.204790
     13          6           0        2.876026   -0.021493    1.325900
     14          6           0        1.927827   -0.568552    2.171455
     15          6           0        0.620771   -0.039370    1.919379
     16          6           0        0.950785    1.022928    0.987292
     17          6           0        6.274594   -1.227810   -0.180277
     18          6           0       -0.616295   -0.153153    2.543349
     19          6           0        6.599833   -0.814433   -1.368234
     20          6           0        0.119918    1.976485    0.257840
     21          6           0       -1.130096    1.907904   -0.320055
     22          6           0        5.395870   -0.539769   -2.199032
     23          6           0       -2.010113    2.915909   -0.916513
     24          6           0        2.070735   -1.601993    3.282362
     25          6           0        7.043469   -1.922999    0.994556
     26          6           0       -3.099104    2.250609   -1.407641
     27          6           0       -1.098510   -1.599932    2.572584
     28          6           0       -3.029113    0.919058   -1.144273
     29          6           0       -1.670667    4.349848   -0.904167
     30          6           0        7.898783   -0.791520   -1.986357
     31          6           0       -1.852903    5.145393    0.350206
     32          6           0       -4.359226    2.897649   -2.038979
     33          6           0       -3.893412   -0.121254   -1.445758
     34          6           0       -2.634195   -1.688554    2.777597
     35          6           0       -3.621530   -1.410730   -1.118754
     36          6           0        9.155533   -0.677073   -1.480489
     37          6           0       -1.249328    6.537884    0.363085
     38          6           0       -4.519856   -2.754317   -1.531452
     39          6           0       -3.775244   -3.781799   -0.921181
     40          6           0       -2.534943   -3.204782   -0.346317
     41          6           0       -5.876305   -2.640775   -2.079128
     42          6           0       -4.011290   -5.239837   -1.038274
     43          6           0       -6.646547   -3.627639   -2.509224
     44          1           0        4.189558   -2.176049    0.219962
     45          1           0        4.733251    0.503720    0.944620
     46          1           0        4.726655   -1.080636    1.920432
     47          1           0        2.853952    1.423282   -0.156018
     48          1           0        3.337429   -0.552952   -1.423433
     49          1           0       -0.349333    0.101280    3.632676
     50          1           0       -1.205889    0.691366    2.442067
     51          1           0        0.586674    3.052359    0.036261
     52          1           0        3.153207   -2.022056    3.452975
     53          1           0        1.367908   -1.263598    4.160315
     54          1           0        1.511239   -2.534237    2.986215
     55          1           0        6.448114   -2.651952    1.716120
     56          1           0        7.536556   -1.243771    1.875456
     57          1           0        7.942566   -2.495136    0.592377
     58          1           0       -0.850952   -2.091806    1.565003
     59          1           0       -0.598922   -2.263830    3.301559
     60          1           0       -1.541212   -0.167748   -0.270962
     61          1           0       -2.052307    4.977451   -1.677775
     62          1           0       -0.699008    4.325772   -1.202782
     63          1           0        8.040207   -0.703757   -3.055885
     64          1           0       -1.232477    4.663889    1.041389
     65          1           0       -2.888618    4.921868    0.794433
     66          1           0       -4.159216    3.948437   -2.471621
     67          1           0       -5.063076    2.746731   -1.255940
     68          1           0       -4.677007    2.240051   -2.894028
     69          1           0       -4.919290    0.215604   -2.136192
     70          1           0        9.270027   -0.657020   -0.556771
     71          1           0       10.259917   -0.815204   -2.079166
     72          1           0       -3.930055   -2.957183    3.452795
     73          1           0       -6.220881   -1.501431   -2.144655
     74          1           0       -4.880340   -5.626187   -0.387926
     75          1           0       -4.193548   -5.482478   -2.153556
     76          1           0       -3.063227   -5.707137   -0.593075
     77          1           0       -1.270337    8.160002    1.269637
     78          1           0       -7.783171   -3.538336   -3.046568
     79          1           0       -6.285446   -4.640363   -2.423470
 ---------------------------------------------------------------------

 SCF Done:  E(RB3LYP) =  -1947.79015253     A.U. after   17 cycles

 Excitation energies and oscillator strengths:

 Excited State   1:      Singlet-A      2.1203 eV  584.73 nm  f=0.4519  <S**2>=0.000
     154 ->156         0.10411
     155 ->156         0.69398
     155 <-156        -0.10892
 This state for optimization and/or second-order correction.
 Total Energy, E(TD-HF/TD-DFT) =  -1947.71223115
 Copying the excited state density for this state as the 1-particle RhoCI density.

 The electronic state is 1-A.
 Alpha  occ. eigenvalues --  -19.20033 -19.16955 -19.13621 -19.12074 -19.11576
 Alpha  occ. eigenvalues --  -19.10346 -14.39554 -14.36255 -14.35509 -14.28552
 Alpha  occ. eigenvalues --  -10.32528 -10.31149 -10.29827 -10.26084 -10.25079
 Alpha  occ. eigenvalues --  -10.24027 -10.23758 -10.23718 -10.23680 -10.23302
 Alpha  occ. eigenvalues --  -10.23005 -10.22966 -10.22668 -10.21100 -10.20999
 Alpha  occ. eigenvalues --  -10.20899 -10.20879 -10.20762 -10.20637 -10.20602
 Alpha  occ. eigenvalues --  -10.20569 -10.20311 -10.20091 -10.20040 -10.19898
 Alpha  occ. eigenvalues --  -10.19776 -10.19707 -10.19561 -10.19406 -10.19359
 Alpha  occ. eigenvalues --  -10.19150 -10.19002 -10.18951  -1.12060  -1.06677
 Alpha  occ. eigenvalues --   -1.03634  -1.03036  -1.02753  -0.99864  -0.99258
 Alpha  occ. eigenvalues --   -0.98628  -0.96344  -0.91759  -0.83368  -0.83334
 Alpha  occ. eigenvalues --   -0.82982  -0.82014  -0.80873  -0.79520  -0.78331
 Alpha  occ. eigenvalues --   -0.77301  -0.76240  -0.75807  -0.74667  -0.72714
 Alpha  occ. eigenvalues --   -0.71485  -0.70823  -0.69249  -0.68794  -0.67854
 Alpha  occ. eigenvalues --   -0.67309  -0.66192  -0.64288  -0.62389  -0.60384
 Alpha  occ. eigenvalues --   -0.59886  -0.59253  -0.58645  -0.57773  -0.57032
 Alpha  occ. eigenvalues --   -0.56579  -0.55935  -0.55361  -0.54824  -0.53956
 Alpha  occ. eigenvalues --   -0.53122  -0.52653  -0.51479  -0.50927  -0.50230
 Alpha  occ. eigenvalues --   -0.49556  -0.49516  -0.48393  -0.47707  -0.47451
 Alpha  occ. eigenvalues --   -0.47188  -0.47090  -0.46474  -0.45960  -0.45775
 Alpha  occ. eigenvalues --   -0.45602  -0.45057  -0.44670  -0.43763  -0.43633
 Alpha  occ. eigenvalues --   -0.43265  -0.43187  -0.43010  -0.42617  -0.42515
 Alpha  occ. eigenvalues --   -0.42182  -0.42152  -0.41619  -0.41325  -0.40968
 Alpha  occ. eigenvalues --   -0.40509  -0.40361  -0.40055  -0.39948  -0.39504
 Alpha  occ. eigenvalues --   -0.39387  -0.39322  -0.39113  -0.38938  -0.38691
 Alpha  occ. eigenvalues --   -0.38239  -0.37827  -0.37704  -0.37289  -0.37056
 Alpha  occ. eigenvalues --   -0.36633  -0.35451  -0.35020  -0.34646  -0.34599
 Alpha  occ. eigenvalues --   -0.34259  -0.33916  -0.33431  -0.32650  -0.32183
 Alpha  occ. eigenvalues --   -0.31378  -0.31075  -0.29706  -0.29131  -0.27237
 Alpha  occ. eigenvalues --   -0.27187  -0.26754  -0.26628  -0.25731  -0.25063
 Alpha  occ. eigenvalues --   -0.24506  -0.23996  -0.23611  -0.21989  -0.19135
 Alpha virt. eigenvalues --   -0.10754  -0.06486  -0.06091  -0.00184   0.00032
 Alpha virt. eigenvalues --    0.00649   0.01113   0.01568   0.01628   0.02030
 Alpha virt. eigenvalues --    0.02477   0.03380   0.03633   0.04819   0.05098

 Mulliken charges:
               1
     1  O   -0.190482
     2  O   -0.242040
     3  O   -0.223530
     4  O   -0.197996
     5  O   -0.190977
     6  O   -0.182010
     7  N   -0.065008
     8  N   -0.229122
     9  N   -0.031925
    10  N   -0.257115
    11  C   -0.051886
    12  C    0.441096
    13  C   -0.168200
    14  C   -0.123467
    15  C   -0.078617
    16  C    0.041461
    17  C   -0.068112
    18  C    0.134611
    19  C    0.002098
    20  C   -0.106107
    21  C    0.030943
    22  C    0.192294
    23  C   -0.064329
    24  C    0.042088
    25  C   -0.031250
    26  C   -0.162372
    27  C   -0.045966
    28  C    0.100831
    29  C    0.146027
    30  C   -0.052596
    31  C    0.034677
    32  C    0.107234
    33  C   -0.169906
    34  C    0.175106
    35  C    0.069886
    36  C   -0.006089
    37  C    0.101977
    38  C    0.015685
    39  C   -0.206318
    40  C    0.145302
    41  C   -0.018045
    42  C    0.024958
    43  C   -0.074926
    44  H    0.034295
    45  H   -0.155333
    46  H    0.009619
    47  H    0.155854
    48  H    0.138646
    49  H    0.006331
    50  H   -0.014947
    51  H    0.021069
    52  H    0.023326
    53  H    0.030396
    54  H    0.035606
    55  H    0.048589
    56  H    0.053546
    57  H    0.048782
    58  H    0.085277
    59  H    0.036705
    60  H    0.109916
    61  H   -0.018609
    62  H   -0.027834
    63  H    0.013000
    64  H   -0.000166
    65  H    0.043249
    66  H    0.040558
    67  H    0.029877
    68  H    0.025696
    69  H    0.035730
    70  H   -0.073199
    71  H    0.059261
    72  H    0.195979
    73  H    0.021192
    74  H    0.036448
    75  H    0.053310
    76  H    0.039643
    77  H    0.219547
    78  H    0.056737
    79  H    0.014019
 Sum of Mulliken charges =  -0.00000

 Dipole moment (field-independent basis, Debye):
    X=              0.8208    Y=              2.6964    Z=              3.1424  Tot=              4.2213
 Quadrupole moment (field-independent basis, Debye-Ang):
   XX=           -227.1967   YY=           -242.2012   ZZ=           -263.9771
   XY=            -11.0563   XZ=             28.6867   YZ=              1.4785

 Normal termination of Gaussian 16 at Sat Sep 21 23:47:51 2019.
