 Gaussian 16, Revision A.03,
 Gaussian 16:  ES64L-G16RevA.03 25-Dec-2016

 --------------------------
 # td=(NStates=1) B3LYP/SVP
 --------------------------

 --
 TD
 --
 Symbolic Z-matrix:
 Charge =  0 Multiplicity = 1

                         Standard orientation:
 ---------------------------------------------------------------------
 Center     Atomic      Atomic             Coordinates (Angstroms)
 Number     Number       Type             X           Y           Z
 ---------------------------------------------------------------------
      1          8           0       -3.242149   -1.174500   -2.831241
      2          8           0        2.862593    2.937366    3.542210
      3          8           0        3.797099    1.110892    4.450567
      4          8           0        7.762872   -1.332874   -0.846546
      5          8           0        6.811348   -2.811662   -2.259055
      6          8           0       -2.717419    1.499292    1.493540
      7          7           0       -0.193091   -2.453680    0.798502
      8          7           0       -2.623682   -1.207068   -0.649822
      9          7           0        1.147985    0.144592   -0.742509
     10          7           0       -1.053663    1.432141   -0.185562
     11          6           0       -3.419224   -1.353049    0.599479
     12          6           0       -2.627041   -2.382124    1.537288
     13          6           0       -1.175353   -2.080575    1.687845
     14          6           0       -0.603503   -1.394698    2.678273
     15          6           0        0.835108   -1.283025    2.384277
     16          6           0        0.978454   -1.911301    1.130977
     17          6           0       -4.727185   -1.905711    0.115087
     18          6           0        1.957758   -0.657295    3.084645
     19          6           0       -4.779769   -1.968884   -1.189598
     20          6           0        2.090904   -1.883224    0.151027
     21          6           0        2.079739   -0.838425   -0.694569
     22          6           0       -3.544758   -1.382699   -1.672378
     23          6           0        2.997582   -0.592921   -1.840952
     24          6           0       -1.331877   -0.670202    3.806103
     25          6           0       -5.767431   -2.196840    1.130206
     26          6           0        2.518234    0.500987   -2.494780
     27          6           0        1.824672    0.904240    2.938087
     28          6           0        1.379418    1.086250   -1.702763
     29          6           0        4.211954   -1.460984   -1.992712
     30          6           0       -5.832357   -2.360348   -2.024293
     31          6           0        5.474686   -1.027041   -1.166835
     32          6           0        3.158322    1.297211   -3.616534
     33          6           0        0.558823    2.126856   -1.892799
     34          6           0        2.982702    1.648715    3.752445
     35          6           0       -0.632261    2.343745   -1.119073
     36          6           0       -6.839829   -3.254834   -1.810496
     37          6           0        6.732237   -1.854949   -1.566078
     38          6           0       -1.439477    3.571259   -1.100283
     39          6           0       -2.384904    3.453827   -0.184244
     40          6           0       -2.112996    2.027967    0.500587
     41          6           0       -1.292910    4.620634   -2.018671
     42          6           0       -3.504387    4.254110    0.382560
     43          6           0       -1.910878    5.810526   -2.041235
     44          1           0       -3.521100   -0.387737    1.185802
     45          1           0       -2.978572   -3.460518    1.140137
     46          1           0       -3.141156   -2.192916    2.477632
     47          1           0       -0.410506   -2.777841   -0.217678
     48          1           0       -1.902952   -0.372432   -0.789736
     49          1           0        1.858503   -0.888725    4.187303
     50          1           0        2.859845   -0.932791    2.779977
     51          1           0        2.846187   -2.720057    0.354187
     52          1           0       -2.168173   -1.386212    4.148408
     53          1           0       -0.666816   -0.520521    4.725604
     54          1           0       -1.808513    0.191827    3.195767
     55          1           0       -5.678565   -1.628250    2.036198
     56          1           0       -5.875130   -3.369832    1.220622
     57          1           0       -6.803553   -1.923716    0.727712
     58          1           0        1.943445    1.385504    1.833778
     59          1           0        0.966093    1.389582    3.498116
     60          1           0        0.423632    0.281729   -0.098286
     61          1           0        4.566658   -1.294870   -3.064909
     62          1           0        3.921649   -2.551347   -2.066987
     63          1           0       -6.042021   -1.907558   -3.111990
     64          1           0        5.156416   -1.304427   -0.034230
     65          1           0        5.628675    0.147238   -1.169671
     66          1           0        3.932420    0.635403   -4.258145
     67          1           0        3.628012    2.233417   -3.285252
     68          1           0        2.353517    1.666946   -4.336460
     69          1           0        0.783566    2.988852   -2.650414
     70          1           0       -6.813942   -3.753435   -0.722220
     71          1           0       -7.466699   -3.408302   -2.603378
     72          1           0        3.637008    3.301250    3.854159
     73          1           0       -0.741848    4.497991   -2.839474
     74          1           0       -4.240251    4.511028   -0.386017
     75          1           0       -3.729298    3.592973    1.038350
     76          1           0       -3.103550    5.013406    0.911221
     77          1           0        8.616701   -1.874335   -1.063549
     78          1           0       -1.623105    6.601876   -2.706012
     79          1           0       -2.670896    5.853600   -1.354169
 ---------------------------------------------------------------------

 SCF Done:  E(RB3LYP) =  -1947.87402346     A.U. after   18 cycles

 Excitation energies and oscillator strengths:

 Excited State   1:      Singlet-A      1.0933 eV 1134.09 nm  f=0.0004  <S**2>=0.000
     155 ->156         0.70408
 This state for optimization and/or second-order correction.
 Total Energy, E(TD-HF/TD-DFT) =  -1947.83384720
 Copying the excited state density for this state as the 1-particle RhoCI density.

 The electronic state is 1-A.
 Alpha  occ. eigenvalues --  -19.19409 -19.18451 -19.14856 -19.13422 -19.12243
 Alpha  occ. eigenvalues --  -19.06813 -14.37506 -14.35823 -14.31942 -14.31863
 Alpha  occ. eigenvalues --  -10.33767 -10.31187 -10.29555 -10.27002 -10.26363
 Alpha  occ. eigenvalues --  -10.25186 -10.25078 -10.24487 -10.23142 -10.22792
 Alpha  occ. eigenvalues --  -10.22582 -10.22533 -10.22354 -10.21780 -10.21625
 Alpha  occ. eigenvalues --  -10.21303 -10.20812 -10.20796 -10.19940 -10.19810
 Alpha  occ. eigenvalues --  -10.19680 -10.19607 -10.19480 -10.19452 -10.19080
 Alpha  occ. eigenvalues --  -10.18759 -10.18411 -10.18291 -10.18077 -10.18052
 Alpha  occ. eigenvalues --  -10.17409 -10.16324 -10.16044  -1.12043  -1.10757
 Alpha  occ. eigenvalues --   -1.02423  -1.01519  -1.01384  -1.00800  -0.99925
 Alpha  occ. eigenvalues --   -0.96556  -0.93616  -0.90531  -0.84065  -0.83238
 Alpha  occ. eigenvalues --   -0.82863  -0.81229  -0.79237  -0.78923  -0.78178
 Alpha  occ. eigenvalues --   -0.77731  -0.76000  -0.75010  -0.73567  -0.73065
 Alpha  occ. eigenvalues --   -0.72209  -0.70620  -0.69566  -0.69071  -0.67667
 Alpha  occ. eigenvalues --   -0.66276  -0.65871  -0.62752  -0.61551  -0.60653
 Alpha  occ. eigenvalues --   -0.60039  -0.59377  -0.58437  -0.58070  -0.56663
 Alpha  occ. eigenvalues --   -0.56270  -0.55339  -0.54035  -0.53563  -0.52393
 Alpha  occ. eigenvalues --   -0.52335  -0.51106  -0.50306  -0.49690  -0.49425
 Alpha  occ. eigenvalues --   -0.49354  -0.48840  -0.48449  -0.48275  -0.47776
 Alpha  occ. eigenvalues --   -0.47611  -0.46948  -0.46861  -0.46489  -0.46314
 Alpha  occ. eigenvalues --   -0.46104  -0.45158  -0.44872  -0.44680  -0.43986
 Alpha  occ. eigenvalues --   -0.43693  -0.43150  -0.42540  -0.42383  -0.42176
 Alpha  occ. eigenvalues --   -0.41869  -0.41679  -0.41421  -0.41056  -0.40948
 Alpha  occ. eigenvalues --   -0.40834  -0.40547  -0.40383  -0.40192  -0.39881
 Alpha  occ. eigenvalues --   -0.39299  -0.38905  -0.38669  -0.38190  -0.37892
 Alpha  occ. eigenvalues --   -0.37685  -0.37486  -0.37198  -0.36235  -0.36182
 Alpha  occ. eigenvalues --   -0.35974  -0.35347  -0.34626  -0.34512  -0.34234
 Alpha  occ. eigenvalues --   -0.33898  -0.33773  -0.33236  -0.32861  -0.32533
 Alpha  occ. eigenvalues --   -0.32023  -0.30369  -0.29963  -0.29621  -0.29265
 Alpha  occ. eigenvalues --   -0.27807  -0.27143  -0.26490  -0.24390  -0.23921
 Alpha  occ. eigenvalues --   -0.23158  -0.22850  -0.22325  -0.21360  -0.19208
 Alpha virt. eigenvalues --   -0.12742  -0.07128  -0.03567  -0.02285  -0.01360
 Alpha virt. eigenvalues --    0.01941   0.02095   0.02562   0.02957   0.03277
 Alpha virt. eigenvalues --    0.03565   0.04255   0.04689   0.05387   0.05649

 Mulliken charges:
               1
     1  O   -0.232973
     2  O   -0.104906
     3  O   -0.219609
     4  O   -0.227203
     5  O   -0.180873
     6  O   -0.259919
     7  N   -0.050733
     8  N   -0.256747
     9  N   -0.019537
    10  N   -0.317110
    11  C    0.022721
    12  C    0.161065
    13  C   -0.050787
    14  C   -0.138337
    15  C   -0.118511
    16  C   -0.101994
    17  C   -0.174032
    18  C    0.235479
    19  C    0.085692
    20  C   -0.173411
    21  C    0.172989
    22  C    0.091276
    23  C   -0.067660
    24  C    0.034779
    25  C    0.060755
    26  C   -0.108502
    27  C   -0.111510
    28  C    0.144079
    29  C    0.081900
    30  C   -0.130466
    31  C   -0.089226
    32  C    0.021754
    33  C   -0.127374
    34  C    0.089708
    35  C    0.090117
    36  C   -0.021405
    37  C    0.165390
    38  C    0.139200
    39  C   -0.301591
    40  C    0.208588
    41  C   -0.069132
    42  C    0.314773
    43  C    0.059770
    44  H    0.061467
    45  H    0.001423
    46  H   -0.029192
    47  H    0.145884
    48  H    0.177943
    49  H    0.009694
    50  H   -0.056022
    51  H    0.051864
    52  H    0.010480
    53  H    0.020625
    54  H    0.077674
    55  H    0.022599
    56  H    0.055036
    57  H    0.032034
    58  H    0.049358
    59  H    0.052919
    60  H    0.148658
    61  H    0.006782
    62  H    0.046764
    63  H    0.029800
    64  H    0.072870
    65  H    0.070373
    66  H    0.049779
    67  H    0.039415
    68  H    0.034068
    69  H    0.017796
    70  H    0.019935
    71  H   -0.001975
    72  H    0.134944
    73  H   -0.066016
    74  H    0.047856
    75  H   -0.057574
    76  H   -0.003432
    77  H    0.208552
    78  H    0.024554
    79  H   -0.033421
 Sum of Mulliken charges =  -0.00000

 Dipole moment (field-independent basis, Debye):
    X=              3.9264    Y=              4.4501    Z=             -1.2358  Tot=              6.0620
 Quadrupole moment (field-independent basis, Debye-Ang):
   XX=           -228.9402   YY=           -234.7884   ZZ=           -270.8018
   XY=              3.4145   XZ=            -19.7002   YZ=            -11.7725

 Normal termination of Gaussian 16 at Mon Jul 29 22:01:35 2019.
