 Gaussian 16, Revision A.03,
 Gaussian 16:  ES64L-G16RevA.03 25-Dec-2016

 --------------------------
 # td=(NStates=1) B3LYP/SVP
 --------------------------

 --
 TD
 --
 Symbolic Z-matrix:
 Charge =  0 Multiplicity = 1

                         Standard orientation:
 ---------------------------------------------------------------------
 Center     Atomic      Atomic             Coordinates (Angstroms)
 Number     Number       Type             X           Y           Z
 ---------------------------------------------------------------------
      1          8           0        5.462926    0.238959   -3.154689
      2          8           0       -3.170439   -2.961991    3.058650
      3          8           0       -3.499662   -0.829882    2.848159
      4          8           0       -1.361037    7.064588    1.748827
      5          8           0       -0.739701    7.087144   -0.369811
      6          8           0       -1.789038   -4.027938    0.035004
      7          7           0        2.357441    0.957406    0.773372
      8          7           0        4.387317   -0.344163   -1.239585
      9          7           0       -1.771867    0.682971   -0.410630
     10          7           0       -2.489303   -1.766668   -0.419697
     11          6           0        4.709061   -1.191616   -0.092707
     12          6           0        4.256534   -0.569877    1.253441
     13          6           0        2.791382   -0.141608    1.404183
     14          6           0        1.815069   -0.786455    2.122891
     15          6           0        0.573556   -0.039835    1.846185
     16          6           0        0.950711    1.033418    1.001501
     17          6           0        6.191449   -1.459523   -0.273928
     18          6           0       -0.749959   -0.243766    2.505535
     19          6           0        6.664630   -0.874331   -1.374121
     20          6           0        0.217715    2.089207    0.244757
     21          6           0       -1.055571    1.937103   -0.308681
     22          6           0        5.433404   -0.199260   -2.043875
     23          6           0       -1.821066    2.990912   -0.914884
     24          6           0        1.875864   -1.950119    3.139779
     25          6           0        6.922620   -2.288543    0.711501
     26          6           0       -2.979644    2.449838   -1.499357
     27          6           0       -1.197829   -1.779703    2.686812
     28          6           0       -2.925748    0.956426   -1.081710
     29          6           0       -1.480798    4.444582   -0.851353
     30          6           0        8.013276   -0.721696   -1.910521
     31          6           0       -1.741877    5.042303    0.539254
     32          6           0       -4.113879    3.087763   -2.133401
     33          6           0       -3.779491   -0.079698   -1.492612
     34          6           0       -2.682206   -1.757831    2.907039
     35          6           0       -3.623092   -1.409765   -1.147362
     36          6           0        9.192996   -0.933320   -1.302332
     37          6           0       -1.240681    6.444653    0.526078
     38          6           0       -4.528240   -2.585239   -1.492487
     39          6           0       -3.909599   -3.680275   -1.057502
     40          6           0       -2.642172   -3.230195   -0.464797
     41          6           0       -5.790985   -2.423260   -2.119684
     42          6           0       -4.176007   -5.112453   -1.160325
     43          6           0       -6.545010   -3.416206   -2.820525
     44          1           0        4.151936   -2.136057   -0.126772
     45          1           0        4.965217    0.353570    1.320646
     46          1           0        4.759419   -1.169111    2.138737
     47          1           0        2.775984    1.275277   -0.229709
     48          1           0        3.489690   -0.202064   -1.772673
     49          1           0       -0.649217    0.101544    3.726643
     50          1           0       -1.661911    0.273659    1.974547
     51          1           0        0.706224    3.015239    0.210313
     52          1           0        2.926572   -2.153599    3.182863
     53          1           0        1.515243   -1.654831    4.181307
     54          1           0        1.393893   -2.845895    2.773275
     55          1           0        6.230431   -2.795345    1.509638
     56          1           0        7.612526   -1.562490    1.404258
     57          1           0        7.566540   -3.011569    0.241946
     58          1           0       -0.961184   -2.398996    1.666855
     59          1           0       -0.743321   -2.311507    3.616129
     60          1           0       -1.546074   -0.316329   -0.196935
     61          1           0       -2.185934    5.109893   -1.494304
     62          1           0       -0.453439    4.702319   -1.449253
     63          1           0        7.881279   -0.382666   -3.012382
     64          1           0       -0.839400    4.556325    1.255767
     65          1           0       -2.710128    4.990007    0.742197
     66          1           0       -3.978297    4.106034   -2.475475
     67          1           0       -5.019369    3.042913   -1.385309
     68          1           0       -4.424178    2.557853   -3.030856
     69          1           0       -4.789390    0.024992   -1.840131
     70          1           0        9.304510   -1.283038   -0.364478
     71          1           0       10.169451   -0.630397   -1.760426
     72          1           0       -4.197371   -2.924322    3.203745
     73          1           0       -6.089175   -1.282640   -2.088344
     74          1           0       -5.377914   -5.185083   -0.818588
     75          1           0       -4.010008   -5.536313   -2.090205
     76          1           0       -3.446313   -5.533470   -0.355112
     77          1           0       -1.129256    7.930265    1.420657
     78          1           0       -7.388780   -3.057954   -3.325554
     79          1           0       -6.204209   -4.549869   -3.087107
 ---------------------------------------------------------------------

 SCF Done:  E(RB3LYP) =  -1947.88284184     A.U. after   16 cycles

 Excitation energies and oscillator strengths:

 Excited State   1:      Singlet-A      2.1154 eV  586.11 nm  f=0.3754  <S**2>=0.000
     155 ->156         0.69206
 This state for optimization and/or second-order correction.
 Total Energy, E(TD-HF/TD-DFT) =  -1947.80510330
 Copying the excited state density for this state as the 1-particle RhoCI density.

 The electronic state is 1-A.
 Alpha  occ. eigenvalues --  -19.18012 -19.16683 -19.14011 -19.10381 -19.10117
 Alpha  occ. eigenvalues --  -19.09977 -14.38645 -14.37065 -14.36665 -14.30034
 Alpha  occ. eigenvalues --  -10.32913 -10.30017 -10.28284 -10.26624 -10.25895
 Alpha  occ. eigenvalues --  -10.25472 -10.25028 -10.23289 -10.23243 -10.23188
 Alpha  occ. eigenvalues --  -10.22938 -10.22745 -10.22732 -10.22359 -10.22358
 Alpha  occ. eigenvalues --  -10.22351 -10.22178 -10.21871 -10.21843 -10.21666
 Alpha  occ. eigenvalues --  -10.21073 -10.21061 -10.20736 -10.20624 -10.20185
 Alpha  occ. eigenvalues --  -10.19959 -10.19843 -10.19652 -10.19572 -10.19474
 Alpha  occ. eigenvalues --  -10.19404 -10.19278 -10.18625  -1.11092  -1.08345
 Alpha  occ. eigenvalues --   -1.04313  -1.00957  -0.98844  -0.97998  -0.97117
 Alpha  occ. eigenvalues --   -0.96572  -0.95364  -0.90337  -0.83839  -0.82837
 Alpha  occ. eigenvalues --   -0.81229  -0.80618  -0.79960  -0.79509  -0.78684
 Alpha  occ. eigenvalues --   -0.76920  -0.75881  -0.75003  -0.74257  -0.73193
 Alpha  occ. eigenvalues --   -0.71293  -0.71159  -0.69633  -0.68814  -0.68136
 Alpha  occ. eigenvalues --   -0.66074  -0.65601  -0.63376  -0.61615  -0.61109
 Alpha  occ. eigenvalues --   -0.59246  -0.58405  -0.58007  -0.57240  -0.56495
 Alpha  occ. eigenvalues --   -0.55937  -0.55410  -0.54540  -0.54171  -0.53150
 Alpha  occ. eigenvalues --   -0.52182  -0.51404  -0.51107  -0.50624  -0.50040
 Alpha  occ. eigenvalues --   -0.49540  -0.48998  -0.48090  -0.47656  -0.47214
 Alpha  occ. eigenvalues --   -0.46638  -0.46201  -0.45998  -0.45788  -0.45277
 Alpha  occ. eigenvalues --   -0.45208  -0.44887  -0.44753  -0.44024  -0.43667
 Alpha  occ. eigenvalues --   -0.43358  -0.43257  -0.43123  -0.42772  -0.42614
 Alpha  occ. eigenvalues --   -0.42357  -0.41777  -0.41584  -0.41454  -0.41176
 Alpha  occ. eigenvalues --   -0.41008  -0.40292  -0.40146  -0.40022  -0.39663
 Alpha  occ. eigenvalues --   -0.39268  -0.39255  -0.39012  -0.38843  -0.38616
 Alpha  occ. eigenvalues --   -0.38230  -0.37585  -0.36969  -0.36904  -0.36120
 Alpha  occ. eigenvalues --   -0.35910  -0.35589  -0.34633  -0.34526  -0.34212
 Alpha  occ. eigenvalues --   -0.33614  -0.33231  -0.32890  -0.32527  -0.31510
 Alpha  occ. eigenvalues --   -0.31275  -0.29748  -0.29489  -0.28920  -0.28131
 Alpha  occ. eigenvalues --   -0.27482  -0.26177  -0.25729  -0.25722  -0.24716
 Alpha  occ. eigenvalues --   -0.24419  -0.24242  -0.23699  -0.22492  -0.19573
 Alpha virt. eigenvalues --   -0.10932  -0.07177  -0.05301  -0.02144  -0.01124
 Alpha virt. eigenvalues --   -0.00056   0.01565   0.01696   0.02218   0.02499
 Alpha virt. eigenvalues --    0.02802   0.03646   0.04049   0.04676   0.04834

 Mulliken charges:
               1
     1  O   -0.206549
     2  O   -0.184453
     3  O   -0.278313
     4  O   -0.184619
     5  O   -0.233976
     6  O   -0.263782
     7  N   -0.123744
     8  N   -0.179876
     9  N   -0.113023
    10  N   -0.359848
    11  C    0.134235
    12  C    0.060007
    13  C   -0.046078
    14  C   -0.162181
    15  C   -0.041133
    16  C    0.034932
    17  C   -0.178297
    18  C   -0.043263
    19  C   -0.048263
    20  C   -0.075874
    21  C    0.144687
    22  C    0.088826
    23  C   -0.030617
    24  C    0.141136
    25  C    0.018588
    26  C   -0.107908
    27  C   -0.108665
    28  C    0.113358
    29  C   -0.045367
    30  C   -0.011222
    31  C    0.077475
    32  C    0.086349
    33  C   -0.064499
    34  C    0.142502
    35  C    0.051341
    36  C   -0.001333
    37  C    0.115286
    38  C    0.094914
    39  C   -0.173787
    40  C    0.189833
    41  C   -0.088481
    42  C    0.037538
    43  C   -0.045163
    44  H    0.018963
    45  H    0.001501
    46  H    0.030178
    47  H    0.169846
    48  H    0.149329
    49  H    0.036438
    50  H    0.073970
    51  H   -0.018055
    52  H   -0.025778
    53  H    0.036186
    54  H    0.039392
    55  H    0.032847
    56  H    0.055115
    57  H    0.044173
    58  H    0.122663
    59  H    0.050493
    60  H    0.169539
    61  H    0.018625
    62  H    0.064019
    63  H    0.033923
    64  H    0.087220
    65  H    0.011587
    66  H    0.013130
    67  H    0.051491
    68  H    0.024648
    69  H   -0.052352
    70  H   -0.024282
    71  H    0.036991
    72  H    0.209596
    73  H    0.030419
    74  H    0.040919
    75  H    0.030214
    76  H    0.059424
    77  H    0.157590
    78  H    0.018872
    79  H    0.070473
 Sum of Mulliken charges =  -0.00000

 Dipole moment (field-independent basis, Debye):
    X=             -0.8169    Y=              0.9766    Z=              1.4590  Tot=              1.9364
 Quadrupole moment (field-independent basis, Debye-Ang):
   XX=           -225.2957   YY=           -253.0723   ZZ=           -261.2020
   XY=            -14.1898   XZ=             33.7163   YZ=              0.5041

 Normal termination of Gaussian 16 at Wed Sep 18 03:31:17 2019.
