 Gaussian 16, Revision A.03,
 Gaussian 16:  ES64L-G16RevA.03 25-Dec-2016

 --------------------------
 # td=(NStates=1) B3LYP/SVP
 --------------------------

 --
 TD
 --
 Symbolic Z-matrix:
 Charge =  0 Multiplicity = 1

                         Standard orientation:
 ---------------------------------------------------------------------
 Center     Atomic      Atomic             Coordinates (Angstroms)
 Number     Number       Type             X           Y           Z
 ---------------------------------------------------------------------
      1          8           0       -3.282232   -2.066712   -2.543560
      2          8           0        2.881889    3.996678    2.376250
      3          8           0        3.708959    2.622822    3.904545
      4          8           0        7.858276   -1.737219   -0.604037
      5          8           0        6.605938   -3.496462   -1.204193
      6          8           0       -2.603929    1.846876    1.101423
      7          7           0       -0.232668   -2.042729    1.527633
      8          7           0       -2.636647   -1.532456   -0.284016
      9          7           0        1.161958   -0.045722   -0.662662
     10          7           0       -1.099172    1.236199   -0.568245
     11          6           0       -3.304303   -1.207164    0.923261
     12          6           0       -2.650286   -1.870472    2.152453
     13          6           0       -1.199775   -1.419159    2.345529
     14          6           0       -0.513836   -0.377083    3.053318
     15          6           0        0.818845   -0.503781    2.735829
     16          6           0        1.023857   -1.464242    1.693385
     17          6           0       -4.680917   -1.787363    0.633456
     18          6           0        1.915602    0.516519    3.113020
     19          6           0       -4.775375   -2.259329   -0.654546
     20          6           0        2.101370   -1.652786    0.772300
     21          6           0        2.085437   -1.044835   -0.441910
     22          6           0       -3.458224   -2.035435   -1.389291
     23          6           0        2.985569   -1.160621   -1.585667
     24          6           0       -1.230139    0.618046    3.835524
     25          6           0       -5.747606   -1.767222    1.649598
     26          6           0        2.547142   -0.144442   -2.496230
     27          6           0        1.856873    1.803987    2.495982
     28          6           0        1.365613    0.486479   -2.008668
     29          6           0        4.284734   -1.965729   -1.602821
     30          6           0       -5.849257   -2.926897   -1.307434
     31          6           0        5.541150   -1.353506   -0.893088
     32          6           0        3.187443    0.194782   -3.820442
     33          6           0        0.449434    1.434055   -2.506058
     34          6           0        2.904514    2.815995    2.938845
     35          6           0       -0.702255    1.850725   -1.729694
     36          6           0       -6.822201   -3.675055   -0.773572
     37          6           0        6.668307   -2.307349   -0.921493
     38          6           0       -1.510496    3.033349   -2.042979
     39          6           0       -2.295985    3.261630   -0.884221
     40          6           0       -2.030916    2.119856    0.004740
     41          6           0       -1.281552    3.951223   -3.130962
     42          6           0       -3.379316    4.226376   -0.577949
     43          6           0       -2.285193    4.795383   -3.646302
     44          1           0       -3.418841   -0.045261    1.027822
     45          1           0       -2.436458   -3.076943    1.930978
     46          1           0       -3.004937   -1.742686    2.990820
     47          1           0       -0.424465   -2.591166    0.703943
     48          1           0       -2.171663   -0.739320   -0.664498
     49          1           0        1.701609    0.363130    4.180368
     50          1           0        2.887280    0.195052    2.854689
     51          1           0        2.834872   -2.406353    0.995713
     52          1           0       -1.973967    0.252069    4.486381
     53          1           0       -0.610103    1.168031    4.512098
     54          1           0       -1.760506    1.114953    2.953682
     55          1           0       -5.705675   -0.809057    2.239242
     56          1           0       -5.517365   -2.694630    2.491722
     57          1           0       -6.879683   -1.842470    0.998976
     58          1           0        2.194354    1.772342    1.228339
     59          1           0        0.888516    2.276260    2.483450
     60          1           0        0.293296    0.184011   -0.240446
     61          1           0        4.566979   -1.948795   -2.579982
     62          1           0        4.028744   -2.949615   -1.290008
     63          1           0       -5.723202   -2.723256   -2.547635
     64          1           0        5.310901   -1.087634    0.053600
     65          1           0        5.921079   -0.342972   -1.139665
     66          1           0        4.048194   -0.291800   -4.145306
     67          1           0        3.457847    1.187005   -3.777037
     68          1           0        2.464305    0.098641   -4.567209
     69          1           0        0.570200    1.854042   -3.424474
     70          1           0       -6.958015   -3.851128    0.305328
     71          1           0       -7.703346   -4.174006   -1.292865
     72          1           0        3.831657    4.413592    2.511521
     73          1           0       -0.248679    3.697066   -3.641497
     74          1           0       -4.533498    3.927312   -0.980915
     75          1           0       -3.490119    4.054994    0.649809
     76          1           0       -2.919307    5.158296   -0.929953
     77          1           0        8.443007   -2.596904   -0.455482
     78          1           0       -2.242311    5.396914   -4.572096
     79          1           0       -3.535744    5.049770   -3.285289
 ---------------------------------------------------------------------

 SCF Done:  E(RB3LYP) =  -1947.76784599     A.U. after   19 cycles

 Excitation energies and oscillator strengths:

 Excited State   1:      Singlet-A      0.7085 eV 1749.95 nm  f=0.0061  <S**2>=0.000
     155 ->156         0.70487
 This state for optimization and/or second-order correction.
 Total Energy, E(TD-HF/TD-DFT) =  -1947.74180906
 Copying the excited state density for this state as the 1-particle RhoCI density.

 The electronic state is 1-A.
 Alpha  occ. eigenvalues --  -19.19798 -19.18629 -19.13907 -19.12721 -19.11313
 Alpha  occ. eigenvalues --  -19.10547 -14.36558 -14.35832 -14.31730 -14.31305
 Alpha  occ. eigenvalues --  -10.33378 -10.31248 -10.28571 -10.27854 -10.27163
 Alpha  occ. eigenvalues --  -10.25977 -10.25148 -10.24036 -10.23905 -10.23797
 Alpha  occ. eigenvalues --  -10.23535 -10.22227 -10.22225 -10.22223 -10.22009
 Alpha  occ. eigenvalues --  -10.21997 -10.21996 -10.21869 -10.21700 -10.21517
 Alpha  occ. eigenvalues --  -10.21196 -10.20177 -10.20096 -10.20093 -10.20060
 Alpha  occ. eigenvalues --  -10.19907 -10.19284 -10.18734 -10.17990 -10.17611
 Alpha  occ. eigenvalues --  -10.16992 -10.16653 -10.16314  -1.10304  -1.09212
 Alpha  occ. eigenvalues --   -1.04812  -1.01635  -1.00690  -0.98089  -0.96295
 Alpha  occ. eigenvalues --   -0.94896  -0.93081  -0.92458  -0.83869  -0.82793
 Alpha  occ. eigenvalues --   -0.81513  -0.80948  -0.80148  -0.79892  -0.78525
 Alpha  occ. eigenvalues --   -0.76981  -0.76432  -0.75383  -0.74642  -0.73600
 Alpha  occ. eigenvalues --   -0.70997  -0.70693  -0.70102  -0.68745  -0.67305
 Alpha  occ. eigenvalues --   -0.66533  -0.65332  -0.63640  -0.61392  -0.60192
 Alpha  occ. eigenvalues --   -0.59881  -0.59036  -0.58840  -0.58326  -0.57334
 Alpha  occ. eigenvalues --   -0.55660  -0.54885  -0.54344  -0.53229  -0.52611
 Alpha  occ. eigenvalues --   -0.52279  -0.52094  -0.50689  -0.49987  -0.49691
 Alpha  occ. eigenvalues --   -0.49449  -0.49044  -0.48693  -0.48302  -0.47733
 Alpha  occ. eigenvalues --   -0.47321  -0.46840  -0.46625  -0.46188  -0.45756
 Alpha  occ. eigenvalues --   -0.45332  -0.44982  -0.44463  -0.44454  -0.43930
 Alpha  occ. eigenvalues --   -0.43570  -0.43449  -0.43349  -0.43289  -0.43013
 Alpha  occ. eigenvalues --   -0.42812  -0.41928  -0.41625  -0.41556  -0.41123
 Alpha  occ. eigenvalues --   -0.40963  -0.40594  -0.40245  -0.39765  -0.39664
 Alpha  occ. eigenvalues --   -0.39499  -0.39149  -0.38849  -0.38810  -0.38375
 Alpha  occ. eigenvalues --   -0.37891  -0.37546  -0.37058  -0.36807  -0.36368
 Alpha  occ. eigenvalues --   -0.35839  -0.35790  -0.35141  -0.34226  -0.34069
 Alpha  occ. eigenvalues --   -0.33328  -0.32765  -0.31978  -0.31442  -0.30904
 Alpha  occ. eigenvalues --   -0.30071  -0.29866  -0.29715  -0.29642  -0.29167
 Alpha  occ. eigenvalues --   -0.27355  -0.26732  -0.26319  -0.25831  -0.24417
 Alpha  occ. eigenvalues --   -0.23445  -0.22564  -0.22522  -0.22388  -0.18498
 Alpha virt. eigenvalues --   -0.13546  -0.08833  -0.04123  -0.03418  -0.01510
 Alpha virt. eigenvalues --   -0.00395   0.01372   0.01938   0.02237   0.02378
 Alpha virt. eigenvalues --    0.02676   0.03477   0.03812   0.04365   0.04510

 Mulliken charges:
               1
     1  O   -0.154791
     2  O   -0.182844
     3  O   -0.297271
     4  O   -0.223248
     5  O   -0.242025
     6  O   -0.258465
     7  N   -0.087711
     8  N   -0.244187
     9  N   -0.112263
    10  N   -0.317890
    11  C    0.063475
    12  C    0.292573
    13  C   -0.130088
    14  C   -0.131857
    15  C   -0.134635
    16  C    0.007526
    17  C   -0.152978
    18  C    0.167784
    19  C   -0.076146
    20  C   -0.106676
    21  C    0.128208
    22  C    0.158153
    23  C   -0.105064
    24  C    0.113590
    25  C   -0.043973
    26  C   -0.156194
    27  C   -0.029613
    28  C    0.143225
    29  C    0.202469
    30  C   -0.028604
    31  C    0.070737
    32  C    0.200838
    33  C   -0.051901
    34  C    0.120905
    35  C    0.106715
    36  C   -0.085431
    37  C    0.134072
    38  C    0.011080
    39  C   -0.156823
    40  C    0.208516
    41  C   -0.023014
    42  C   -0.023384
    43  C   -0.108958
    44  H    0.086491
    45  H    0.017998
    46  H   -0.107183
    47  H    0.109040
    48  H    0.122101
    49  H    0.027631
    50  H   -0.030413
    51  H   -0.000416
    52  H   -0.017735
    53  H   -0.009401
    54  H    0.068889
    55  H    0.034226
    56  H    0.063865
    57  H    0.066582
    58  H    0.046237
    59  H    0.037207
    60  H    0.155231
    61  H   -0.020749
    62  H    0.027684
    63  H    0.043929
    64  H    0.000659
    65  H    0.026145
    66  H   -0.004031
    67  H   -0.004737
    68  H    0.016181
    69  H   -0.068327
    70  H    0.023068
    71  H    0.031834
    72  H    0.223038
    73  H    0.042308
    74  H    0.078433
    75  H    0.064645
    76  H    0.047292
    77  H    0.217933
    78  H    0.041703
    79  H    0.078811
 Sum of Mulliken charges =  -0.00000

 Dipole moment (field-independent basis, Debye):
    X=              3.0664    Y=              3.0695    Z=             -3.7250  Tot=              5.7184
 Quadrupole moment (field-independent basis, Debye-Ang):
   XX=           -234.4214   YY=           -249.7185   ZZ=           -262.2409
   XY=             -3.9668   XZ=            -21.9341   YZ=            -24.7277

 Normal termination of Gaussian 16 at Mon Jul 29 12:08:51 2019.
