 Gaussian 16, Revision A.03,
 Gaussian 16:  ES64L-G16RevA.03 25-Dec-2016

 --------------------------
 # td=(NStates=1) B3LYP/SVP
 --------------------------

 --
 TD
 --
 Symbolic Z-matrix:
 Charge =  0 Multiplicity = 1

                         Standard orientation:
 ---------------------------------------------------------------------
 Center     Atomic      Atomic             Coordinates (Angstroms)
 Number     Number       Type             X           Y           Z
 ---------------------------------------------------------------------
      1          8           0       -3.308201   -1.581855   -2.855260
      2          8           0        3.254266    3.248524    2.915282
      3          8           0        3.623049    1.613239    4.446273
      4          8           0        7.814158   -1.728799   -0.719226
      5          8           0        6.588332   -3.273210   -1.845993
      6          8           0       -2.674138    1.710317    1.315526
      7          7           0       -0.326866   -2.328369    1.053854
      8          7           0       -2.768927   -1.253958   -0.580576
      9          7           0        1.146612   -0.022035   -0.724776
     10          7           0       -1.011339    1.498731   -0.231735
     11          6           0       -3.475630   -1.183775    0.688904
     12          6           0       -2.787269   -2.193100    1.719791
     13          6           0       -1.317897   -1.816255    1.905461
     14          6           0       -0.691164   -1.037114    2.852643
     15          6           0        0.688117   -1.020956    2.521772
     16          6           0        0.937611   -1.855705    1.394826
     17          6           0       -4.818165   -1.881848    0.289559
     18          6           0        1.681988   -0.192538    3.190543
     19          6           0       -4.860228   -2.108140   -0.997993
     20          6           0        2.009764   -1.918840    0.401953
     21          6           0        2.152744   -0.959285   -0.529552
     22          6           0       -3.540744   -1.626413   -1.693067
     23          6           0        3.083449   -0.816156   -1.595774
     24          6           0       -1.452110   -0.274222    3.920141
     25          6           0       -5.892796   -1.966400    1.191065
     26          6           0        2.646653    0.272370   -2.426148
     27          6           0        1.888028    1.273458    2.759438
     28          6           0        1.407290    0.800959   -1.841913
     29          6           0        4.210014   -1.698571   -1.872138
     30          6           0       -5.964185   -2.502711   -1.897583
     31          6           0        5.585105   -1.233363   -1.090931
     32          6           0        3.262479    0.942724   -3.623230
     33          6           0        0.621370    1.903542   -2.094394
     34          6           0        3.018914    1.982161    3.449745
     35          6           0       -0.572459    2.270680   -1.311561
     36          6           0       -6.939222   -3.186194   -1.533311
     37          6           0        6.635311   -2.205341   -1.310741
     38          6           0       -1.327045    3.489720   -1.426899
     39          6           0       -2.230650    3.383036   -0.356802
     40          6           0       -2.035942    2.042925    0.301817
     41          6           0       -1.019535    4.457456   -2.497332
     42          6           0       -3.342684    4.312499   -0.031717
     43          6           0       -1.569722    5.748342   -2.507260
     44          1           0       -3.504270   -0.038782    1.010411
     45          1           0       -2.803668   -3.227005    1.488620
     46          1           0       -3.300149   -1.988825    2.691326
     47          1           0       -0.450866   -2.817804    0.031692
     48          1           0       -2.009869   -0.499129   -0.630231
     49          1           0        1.403404    0.025631    4.334116
     50          1           0        2.849965   -0.765633    3.329964
     51          1           0        2.917652   -2.562291    0.526422
     52          1           0       -1.957716   -0.895049    4.812844
     53          1           0       -0.817661    0.363801    4.523495
     54          1           0       -2.347343    0.292214    3.263136
     55          1           0       -5.987729   -1.230397    2.024452
     56          1           0       -6.058114   -2.859446    1.806022
     57          1           0       -6.801742   -1.973283    0.602434
     58          1           0        2.011615    1.258459    1.599702
     59          1           0        0.982105    1.783069    2.637210
     60          1           0        0.236651    0.099908   -0.178241
     61          1           0        4.436593   -1.530508   -2.889587
     62          1           0        3.993340   -2.792975   -1.591565
     63          1           0       -5.721495   -2.253244   -2.955159
     64          1           0        5.372494   -0.848985    0.195161
     65          1           0        5.776270   -0.164236   -1.361486
     66          1           0        3.760169    0.081324   -4.321200
     67          1           0        3.994758    1.921176   -3.474713
     68          1           0        2.596524    0.974010   -4.335478
     69          1           0        0.847398    2.718410   -2.900221
     70          1           0       -7.015401   -3.681503   -0.523585
     71          1           0       -7.783596   -3.307047   -2.175015
     72          1           0        3.965786    3.591448    3.438072
     73          1           0       -0.203240    4.078138   -3.270470
     74          1           0       -3.980530    4.583419   -0.880357
     75          1           0       -4.093011    3.932281    0.620171
     76          1           0       -2.894110    5.289450    0.455514
     77          1           0        8.613754   -2.342555   -0.870796
     78          1           0       -1.462236    6.333686   -3.541229
     79          1           0       -2.170171    6.068306   -1.857471
 ---------------------------------------------------------------------

 SCF Done:  E(RB3LYP) =  -1947.80469605     A.U. after   20 cycles

 Excitation energies and oscillator strengths:

 Excited State   1:      Singlet-A      0.9284 eV 1335.52 nm  f=0.0009  <S**2>=0.000
     155 ->156         0.70370
 This state for optimization and/or second-order correction.
 Total Energy, E(TD-HF/TD-DFT) =  -1947.77057937
 Copying the excited state density for this state as the 1-particle RhoCI density.

 The electronic state is 1-A.
 Alpha  occ. eigenvalues --  -19.18057 -19.17167 -19.14768 -19.12882 -19.11649
 Alpha  occ. eigenvalues --  -19.09551 -14.37436 -14.37381 -14.32655 -14.30704
 Alpha  occ. eigenvalues --  -10.33710 -10.32253 -10.27502 -10.27435 -10.27018
 Alpha  occ. eigenvalues --  -10.26584 -10.25326 -10.25056 -10.24047 -10.23843
 Alpha  occ. eigenvalues --  -10.23375 -10.23054 -10.22956 -10.22908 -10.22818
 Alpha  occ. eigenvalues --  -10.22318 -10.21907 -10.21553 -10.21294 -10.20888
 Alpha  occ. eigenvalues --  -10.20666 -10.20376 -10.20083 -10.19971 -10.19444
 Alpha  occ. eigenvalues --  -10.19154 -10.18769 -10.17852 -10.17719 -10.17444
 Alpha  occ. eigenvalues --  -10.17175 -10.16955 -10.16841  -1.09424  -1.08330
 Alpha  occ. eigenvalues --   -1.02663  -1.02465  -1.00936  -0.99660  -0.98873
 Alpha  occ. eigenvalues --   -0.95282  -0.94578  -0.91346  -0.84094  -0.83049
 Alpha  occ. eigenvalues --   -0.81559  -0.81300  -0.79754  -0.78760  -0.78254
 Alpha  occ. eigenvalues --   -0.76794  -0.76220  -0.75546  -0.74890  -0.73992
 Alpha  occ. eigenvalues --   -0.71754  -0.70107  -0.70036  -0.69364  -0.67158
 Alpha  occ. eigenvalues --   -0.65742  -0.65121  -0.63001  -0.62011  -0.60359
 Alpha  occ. eigenvalues --   -0.59794  -0.58668  -0.58535  -0.57688  -0.56551
 Alpha  occ. eigenvalues --   -0.55647  -0.55141  -0.54224  -0.53369  -0.53114
 Alpha  occ. eigenvalues --   -0.52610  -0.51926  -0.51104  -0.50273  -0.49419
 Alpha  occ. eigenvalues --   -0.48995  -0.48520  -0.48343  -0.47794  -0.47471
 Alpha  occ. eigenvalues --   -0.47350  -0.47009  -0.46729  -0.46368  -0.45652
 Alpha  occ. eigenvalues --   -0.45566  -0.45045  -0.44683  -0.43977  -0.43829
 Alpha  occ. eigenvalues --   -0.43465  -0.43272  -0.42907  -0.42834  -0.42355
 Alpha  occ. eigenvalues --   -0.42194  -0.41638  -0.41044  -0.40796  -0.40601
 Alpha  occ. eigenvalues --   -0.40534  -0.40284  -0.39827  -0.39580  -0.39524
 Alpha  occ. eigenvalues --   -0.39079  -0.39025  -0.38489  -0.38201  -0.38108
 Alpha  occ. eigenvalues --   -0.38038  -0.37215  -0.36942  -0.36577  -0.36162
 Alpha  occ. eigenvalues --   -0.35908  -0.35831  -0.35344  -0.35189  -0.34806
 Alpha  occ. eigenvalues --   -0.34163  -0.33305  -0.32268  -0.32044  -0.31909
 Alpha  occ. eigenvalues --   -0.30307  -0.30170  -0.29827  -0.29047  -0.28928
 Alpha  occ. eigenvalues --   -0.28279  -0.27102  -0.25866  -0.25116  -0.23973
 Alpha  occ. eigenvalues --   -0.23532  -0.23141  -0.23073  -0.22535  -0.19798
 Alpha virt. eigenvalues --   -0.13824  -0.08729  -0.03833  -0.03633  -0.02285
 Alpha virt. eigenvalues --   -0.00592   0.01197   0.01742   0.02722   0.02986
 Alpha virt. eigenvalues --    0.03630   0.03788   0.04054   0.04331   0.04787

 Mulliken charges:
               1
     1  O   -0.189126
     2  O   -0.200106
     3  O   -0.228960
     4  O   -0.265793
     5  O   -0.189522
     6  O   -0.249115
     7  N   -0.162632
     8  N   -0.271403
     9  N   -0.171064
    10  N   -0.258695
    11  C   -0.008542
    12  C    0.248747
    13  C   -0.107144
    14  C   -0.045889
    15  C   -0.055319
    16  C    0.028303
    17  C   -0.140058
    18  C   -0.068397
    19  C   -0.091607
    20  C   -0.109822
    21  C    0.140979
    22  C    0.159161
    23  C   -0.075323
    24  C   -0.004206
    25  C    0.076872
    26  C   -0.133395
    27  C    0.019566
    28  C    0.168984
    29  C    0.134051
    30  C    0.014816
    31  C   -0.143613
    32  C    0.104962
    33  C   -0.114158
    34  C    0.174640
    35  C    0.055831
    36  C   -0.014807
    37  C    0.213112
    38  C    0.067075
    39  C   -0.200951
    40  C    0.150013
    41  C   -0.070793
    42  C    0.068295
    43  C    0.051267
    44  H    0.106196
    45  H   -0.017078
    46  H   -0.000742
    47  H    0.169037
    48  H    0.146838
    49  H    0.025936
    50  H    0.030585
    51  H    0.017229
    52  H    0.022292
    53  H   -0.003566
    54  H    0.080912
    55  H    0.010907
    56  H    0.012391
    57  H    0.007428
    58  H    0.020734
    59  H    0.019580
    60  H    0.208659
    61  H    0.000742
    62  H    0.059608
    63  H    0.013260
    64  H    0.090331
    65  H    0.055080
    66  H    0.014045
    67  H    0.090994
    68  H   -0.023625
    69  H    0.014433
    70  H    0.023788
    71  H    0.002403
    72  H    0.161492
    73  H    0.037395
    74  H    0.030425
    75  H    0.010523
    76  H    0.051162
    77  H    0.206797
    78  H    0.050891
    79  H   -0.053312
 Sum of Mulliken charges =  -0.00000

 Dipole moment (field-independent basis, Debye):
    X=              3.5430    Y=              3.0444    Z=             -2.9515  Tot=              5.5256
 Quadrupole moment (field-independent basis, Debye-Ang):
   XX=           -230.9249   YY=           -242.6788   ZZ=           -267.8362
   XY=              1.1225   XZ=            -24.3263   YZ=            -15.0611

 Normal termination of Gaussian 16 at Tue Jul 30 09:22:31 2019.
