 Gaussian 16, Revision A.03,
 Gaussian 16:  ES64L-G16RevA.03 25-Dec-2016

 --------------------------
 # td=(NStates=1) B3LYP/SVP
 --------------------------

 --
 TD
 --
 Symbolic Z-matrix:
 Charge =  0 Multiplicity = 1

                         Standard orientation:
 ---------------------------------------------------------------------
 Center     Atomic      Atomic             Coordinates (Angstroms)
 Number     Number       Type             X           Y           Z
 ---------------------------------------------------------------------
      1          8           0       -3.191317   -1.405966   -2.779362
      2          8           0        3.177008    3.188535    2.969676
      3          8           0        3.489890    1.525744    4.565631
      4          8           0        7.648595   -1.881728   -0.460698
      5          8           0        6.645467   -2.927656   -2.275439
      6          8           0       -2.637015    1.644755    1.466288
      7          7           0       -0.305167   -2.513549    1.015136
      8          7           0       -2.651352   -1.098076   -0.552880
      9          7           0        1.150297    0.096860   -0.696438
     10          7           0       -0.992313    1.451468   -0.213755
     11          6           0       -3.310840   -1.296752    0.613521
     12          6           0       -2.612360   -2.353643    1.660433
     13          6           0       -1.169433   -2.070775    1.850806
     14          6           0       -0.610090   -1.112215    2.799120
     15          6           0        0.857406   -1.086557    2.451481
     16          6           0        0.923186   -1.921939    1.288182
     17          6           0       -4.721541   -1.711571    0.314498
     18          6           0        1.888386   -0.299308    3.085371
     19          6           0       -4.871979   -2.041651   -1.017443
     20          6           0        2.053058   -1.883975    0.349784
     21          6           0        2.043876   -0.960592   -0.667820
     22          6           0       -3.532481   -1.456599   -1.654643
     23          6           0        2.904407   -0.686158   -1.819665
     24          6           0       -1.189372   -0.453993    3.930265
     25          6           0       -5.826119   -2.167772    1.352549
     26          6           0        2.637957    0.476320   -2.472126
     27          6           0        1.885759    1.158627    2.620092
     28          6           0        1.390204    0.920086   -1.784436
     29          6           0        4.191428   -1.486092   -2.007440
     30          6           0       -5.795413   -2.565669   -1.990491
     31          6           0        5.428550   -1.134634   -1.097084
     32          6           0        3.167709    1.193028   -3.718812
     33          6           0        0.530986    1.959935   -2.040798
     34          6           0        3.004484    1.948416    3.481410
     35          6           0       -0.623637    2.280420   -1.263643
     36          6           0       -6.931936   -3.320363   -1.753427
     37          6           0        6.496157   -2.057496   -1.405370
     38          6           0       -1.416334    3.488633   -1.289102
     39          6           0       -2.366052    3.384158   -0.211033
     40          6           0       -1.943087    2.117057    0.484068
     41          6           0       -1.287078    4.533234   -2.318673
     42          6           0       -3.357074    4.370679    0.297106
     43          6           0       -1.927519    5.733425   -2.433791
     44          1           0       -3.327215   -0.298330    1.273134
     45          1           0       -2.630128   -3.325129    1.072416
     46          1           0       -3.289002   -2.483090    2.627349
     47          1           0       -0.612931   -3.089574    0.177390
     48          1           0       -1.832766   -0.380811   -0.908386
     49          1           0        1.957847   -0.468070    4.227668
     50          1           0        2.690670   -0.881247    2.738078
     51          1           0        2.910511   -2.712834    0.160392
     52          1           0       -2.170507   -0.912315    4.411423
     53          1           0       -0.635398   -0.257101    4.883914
     54          1           0       -1.568459    0.643358    3.683849
     55          1           0       -5.651208   -1.607485    2.244742
     56          1           0       -5.593776   -3.373823    1.659545
     57          1           0       -6.764500   -2.278392    0.837563
     58          1           0        2.134400    1.265002    1.620181
     59          1           0        0.895748    1.646560    2.912901
     60          1           0        0.258524   -0.056219   -0.215604
     61          1           0        4.516790   -1.617908   -3.029851
     62          1           0        3.722725   -2.422619   -1.706970
     63          1           0       -5.507897   -2.423910   -3.106987
     64          1           0        5.134871   -1.415174   -0.162000
     65          1           0        5.756733    0.010978   -1.246738
     66          1           0        4.043705    0.624353   -3.975841
     67          1           0        3.458057    2.313657   -3.875941
     68          1           0        2.294703    1.002324   -4.403246
     69          1           0        0.890238    2.502384   -2.827650
     70          1           0       -7.173822   -3.455279   -0.673500
     71          1           0       -7.432318   -3.804285   -2.645013
     72          1           0        3.807486    3.854224    3.364154
     73          1           0       -0.536859    4.208824   -3.030541
     74          1           0       -3.895244    4.391827   -0.565290
     75          1           0       -3.822053    3.972154    1.039028
     76          1           0       -2.928588    5.364405    0.547452
     77          1           0        8.271187   -2.634202   -0.691012
     78          1           0       -1.648434    6.280490   -3.350920
     79          1           0       -2.661622    6.133267   -1.616248
 ---------------------------------------------------------------------

 SCF Done:  E(RB3LYP) =  -1947.81454518     A.U. after   21 cycles

 Excitation energies and oscillator strengths:

 Excited State   1:      Singlet-A      0.8863 eV 1398.94 nm  f=0.0090  <S**2>=0.000
     155 ->156         0.70371
 This state for optimization and/or second-order correction.
 Total Energy, E(TD-HF/TD-DFT) =  -1947.78197522
 Copying the excited state density for this state as the 1-particle RhoCI density.

 The electronic state is 1-A.
 Alpha  occ. eigenvalues --  -19.18591 -19.16804 -19.15370 -19.12138 -19.11768
 Alpha  occ. eigenvalues --  -19.09521 -14.38350 -14.37322 -14.32865 -14.30865
 Alpha  occ. eigenvalues --  -10.34131 -10.32469 -10.27867 -10.26822 -10.26753
 Alpha  occ. eigenvalues --  -10.25918 -10.25382 -10.24118 -10.23771 -10.23599
 Alpha  occ. eigenvalues --  -10.23497 -10.23395 -10.22341 -10.21941 -10.21910
 Alpha  occ. eigenvalues --  -10.21620 -10.21509 -10.21490 -10.21423 -10.20884
 Alpha  occ. eigenvalues --  -10.20719 -10.20670 -10.20625 -10.20532 -10.20431
 Alpha  occ. eigenvalues --  -10.19853 -10.19344 -10.18989 -10.18307 -10.18247
 Alpha  occ. eigenvalues --  -10.18194 -10.18155 -10.17213  -1.07366  -1.06712
 Alpha  occ. eigenvalues --   -1.03122  -1.00108  -0.99573  -0.98809  -0.98169
 Alpha  occ. eigenvalues --   -0.98115  -0.92764  -0.91960  -0.84519  -0.83241
 Alpha  occ. eigenvalues --   -0.81260  -0.80808  -0.80295  -0.79341  -0.78133
 Alpha  occ. eigenvalues --   -0.76956  -0.75526  -0.74943  -0.74303  -0.73227
 Alpha  occ. eigenvalues --   -0.71649  -0.70368  -0.69756  -0.68482  -0.67547
 Alpha  occ. eigenvalues --   -0.66806  -0.65994  -0.63180  -0.61573  -0.60898
 Alpha  occ. eigenvalues --   -0.59792  -0.59112  -0.58389  -0.57894  -0.56063
 Alpha  occ. eigenvalues --   -0.55332  -0.54905  -0.53833  -0.53719  -0.52837
 Alpha  occ. eigenvalues --   -0.52617  -0.51667  -0.50746  -0.50492  -0.49533
 Alpha  occ. eigenvalues --   -0.48383  -0.48222  -0.47893  -0.47748  -0.47436
 Alpha  occ. eigenvalues --   -0.47091  -0.46456  -0.46364  -0.46026  -0.45651
 Alpha  occ. eigenvalues --   -0.45637  -0.45054  -0.44393  -0.44087  -0.43686
 Alpha  occ. eigenvalues --   -0.43519  -0.43319  -0.42947  -0.42789  -0.42180
 Alpha  occ. eigenvalues --   -0.41898  -0.41609  -0.41436  -0.41168  -0.40901
 Alpha  occ. eigenvalues --   -0.40787  -0.40514  -0.40163  -0.39777  -0.39527
 Alpha  occ. eigenvalues --   -0.39403  -0.38985  -0.38943  -0.38720  -0.38425
 Alpha  occ. eigenvalues --   -0.38105  -0.37711  -0.37077  -0.36497  -0.36071
 Alpha  occ. eigenvalues --   -0.36010  -0.35596  -0.35337  -0.35145  -0.34776
 Alpha  occ. eigenvalues --   -0.34440  -0.33320  -0.32001  -0.31904  -0.31459
 Alpha  occ. eigenvalues --   -0.30266  -0.29989  -0.29646  -0.28815  -0.28713
 Alpha  occ. eigenvalues --   -0.28130  -0.27064  -0.25406  -0.24268  -0.23751
 Alpha  occ. eigenvalues --   -0.23211  -0.22759  -0.22385  -0.21827  -0.18774
 Alpha virt. eigenvalues --   -0.13265  -0.08065  -0.04789  -0.03666  -0.02461
 Alpha virt. eigenvalues --   -0.00287   0.01381   0.02388   0.02738   0.03203
 Alpha virt. eigenvalues --    0.03578   0.03734   0.04221   0.04580   0.04935

 Mulliken charges:
               1
     1  O   -0.187335
     2  O   -0.213269
     3  O   -0.265390
     4  O   -0.306621
     5  O   -0.225137
     6  O   -0.274452
     7  N    0.005971
     8  N   -0.266919
     9  N   -0.094402
    10  N   -0.302051
    11  C    0.057720
    12  C    0.111058
    13  C   -0.110776
    14  C   -0.043022
    15  C   -0.106586
    16  C   -0.032455
    17  C   -0.167055
    18  C    0.119521
    19  C   -0.041716
    20  C   -0.126239
    21  C    0.062351
    22  C    0.100864
    23  C   -0.095352
    24  C   -0.027341
    25  C    0.048329
    26  C   -0.061639
    27  C    0.028217
    28  C    0.059007
    29  C    0.025172
    30  C   -0.057077
    31  C    0.109420
    32  C    0.051684
    33  C   -0.039565
    34  C    0.166823
    35  C    0.153734
    36  C   -0.043740
    37  C    0.157779
    38  C    0.006943
    39  C   -0.228071
    40  C    0.193108
    41  C   -0.011760
    42  C    0.235035
    43  C   -0.034784
    44  H    0.073334
    45  H   -0.032017
    46  H    0.026459
    47  H    0.145515
    48  H    0.198199
    49  H    0.039987
    50  H   -0.025962
    51  H    0.025144
    52  H    0.003109
    53  H    0.011560
    54  H    0.037573
    55  H    0.028989
    56  H    0.040100
    57  H    0.036557
    58  H    0.011654
    59  H    0.069851
    60  H    0.194661
    61  H    0.023096
    62  H    0.014052
    63  H    0.033447
    64  H    0.015078
    65  H    0.092128
    66  H    0.020156
    67  H    0.068150
    68  H    0.059092
    69  H   -0.082575
    70  H    0.016549
    71  H    0.040962
    72  H    0.203570
    73  H   -0.016928
    74  H    0.012131
    75  H   -0.037219
    76  H    0.046245
    77  H    0.195842
    78  H    0.033566
    79  H    0.047958
 Sum of Mulliken charges =  -0.00000

 Dipole moment (field-independent basis, Debye):
    X=              2.7494    Y=              3.5321    Z=             -2.8009  Tot=              5.2801
 Quadrupole moment (field-independent basis, Debye-Ang):
   XX=           -251.4780   YY=           -229.6499   ZZ=           -269.8382
   XY=              9.3630   XZ=            -19.7171   YZ=            -11.6010

 Normal termination of Gaussian 16 at Sat Jul 27 07:29:21 2019.
