 Gaussian 16, Revision A.03,
 Gaussian 16:  ES64L-G16RevA.03 25-Dec-2016

 --------------------------
 # td=(NStates=1) B3LYP/SVP
 --------------------------

 --
 TD
 --
 Symbolic Z-matrix:
 Charge =  0 Multiplicity = 1

                         Standard orientation:
 ---------------------------------------------------------------------
 Center     Atomic      Atomic             Coordinates (Angstroms)
 Number     Number       Type             X           Y           Z
 ---------------------------------------------------------------------
      1          8           0       -3.448758   -1.299030   -2.947480
      2          8           0        3.304204    3.005631    3.099110
      3          8           0        3.539600    1.280506    4.476594
      4          8           0        7.657001   -1.646054   -0.757999
      5          8           0        6.469467   -3.261205   -1.894760
      6          8           0       -2.688628    1.715957    1.317124
      7          7           0       -0.384099   -2.452939    0.794169
      8          7           0       -2.835584   -1.110795   -0.658148
      9          7           0        1.238074    0.065985   -0.657440
     10          7           0       -0.983699    1.444399   -0.268121
     11          6           0       -3.550236   -1.198544    0.646687
     12          6           0       -2.776883   -2.331912    1.539066
     13          6           0       -1.354806   -2.058638    1.772190
     14          6           0       -0.597228   -1.365565    2.815089
     15          6           0        0.755826   -1.249450    2.407007
     16          6           0        0.824783   -1.922586    1.186420
     17          6           0       -4.897537   -1.552078    0.265917
     18          6           0        1.875848   -0.421835    3.149223
     19          6           0       -4.987067   -1.918155   -1.117203
     20          6           0        1.969702   -2.031107    0.269918
     21          6           0        2.099428   -1.030526   -0.716623
     22          6           0       -3.587985   -1.408123   -1.693959
     23          6           0        3.059010   -0.729344   -1.730404
     24          6           0       -1.311567   -0.627526    3.884264
     25          6           0       -5.819716   -1.892852    1.332948
     26          6           0        2.587042    0.388687   -2.418266
     27          6           0        2.026315    1.075958    2.692473
     28          6           0        1.394812    0.908673   -1.743108
     29          6           0        4.203028   -1.538992   -2.106167
     30          6           0       -6.005655   -2.416228   -2.008050
     31          6           0        5.339084   -1.160826   -1.258782
     32          6           0        3.197578    1.056847   -3.567450
     33          6           0        0.586667    1.933938   -2.009442
     34          6           0        2.971481    1.781174    3.479272
     35          6           0       -0.462331    2.347638   -1.165070
     36          6           0       -7.045131   -3.173839   -1.662637
     37          6           0        6.520178   -2.165127   -1.258891
     38          6           0       -1.135792    3.671059   -1.219938
     39          6           0       -2.181669    3.571979   -0.149264
     40          6           0       -2.004478    2.138090    0.375017
     41          6           0       -0.847921    4.706036   -2.160711
     42          6           0       -3.324954    4.420346    0.221781
     43          6           0       -1.230318    5.917633   -2.099154
     44          1           0       -3.272143   -0.173706    1.217284
     45          1           0       -2.702857   -3.252955    0.963613
     46          1           0       -3.397951   -2.373354    2.513095
     47          1           0       -0.612678   -2.826653   -0.141064
     48          1           0       -2.110290   -0.426828   -0.643928
     49          1           0        1.689205   -0.338660    4.189440
     50          1           0        2.853574   -1.010922    3.041925
     51          1           0        2.743693   -2.882564    0.389750
     52          1           0       -2.074136   -1.290880    4.395152
     53          1           0       -0.607942   -0.116422    4.524633
     54          1           0       -1.759211    0.156458    3.345232
     55          1           0       -5.549365   -1.297235    2.291789
     56          1           0       -5.784226   -2.720769    1.852081
     57          1           0       -6.840491   -1.753080    0.932751
     58          1           0        2.013212    1.176962    1.681922
     59          1           0        1.057525    1.692079    2.867115
     60          1           0        0.556008    0.068076    0.176107
     61          1           0        4.485315   -1.452350   -3.138696
     62          1           0        3.939872   -2.693503   -1.727974
     63          1           0       -5.592075   -2.341709   -3.044212
     64          1           0        4.973500   -1.338822   -0.180342
     65          1           0        5.629007   -0.214000   -1.441120
     66          1           0        4.079205    0.468711   -3.855148
     67          1           0        3.928431    1.845152   -3.014068
     68          1           0        2.554004    1.233531   -4.447396
     69          1           0        0.877398    2.652230   -2.777262
     70          1           0       -7.447175   -3.389748   -0.693047
     71          1           0       -7.779903   -3.562720   -2.425041
     72          1           0        4.111805    3.092209    3.714689
     73          1           0       -0.135724    4.106609   -2.874339
     74          1           0       -3.630531    5.074874   -0.755739
     75          1           0       -4.299028    3.666477    0.769988
     76          1           0       -2.791081    5.201154    1.160075
     77          1           0        8.371496   -2.367221   -0.961302
     78          1           0       -1.214092    6.650247   -3.225763
     79          1           0       -1.905342    6.397494   -1.207057
 ---------------------------------------------------------------------

 SCF Done:  E(RB3LYP) =  -1947.77644511     A.U. after   19 cycles

 Excitation energies and oscillator strengths:

 Excited State   1:      Singlet-A      0.9710 eV 1276.82 nm  f=0.0006  <S**2>=0.000
     155 ->156         0.70091
 This state for optimization and/or second-order correction.
 Total Energy, E(TD-HF/TD-DFT) =  -1947.74076006
 Copying the excited state density for this state as the 1-particle RhoCI density.

 The electronic state is 1-A.
 Alpha  occ. eigenvalues --  -19.21191 -19.19168 -19.14022 -19.12904 -19.11980
 Alpha  occ. eigenvalues --  -19.07260 -14.37645 -14.37626 -14.33314 -14.31386
 Alpha  occ. eigenvalues --  -10.34120 -10.31962 -10.28837 -10.26645 -10.26371
 Alpha  occ. eigenvalues --  -10.26045 -10.25665 -10.25106 -10.23429 -10.23314
 Alpha  occ. eigenvalues --  -10.22976 -10.22942 -10.22757 -10.22616 -10.22514
 Alpha  occ. eigenvalues --  -10.22459 -10.22287 -10.22202 -10.21942 -10.21651
 Alpha  occ. eigenvalues --  -10.21066 -10.20769 -10.20614 -10.20612 -10.20593
 Alpha  occ. eigenvalues --  -10.19607 -10.18722 -10.18666 -10.18477 -10.18152
 Alpha  occ. eigenvalues --  -10.17964 -10.17840 -10.17374  -1.10818  -1.10248
 Alpha  occ. eigenvalues --   -1.02929  -0.99729  -0.99458  -0.98702  -0.98162
 Alpha  occ. eigenvalues --   -0.95895  -0.92949  -0.91667  -0.85541  -0.83208
 Alpha  occ. eigenvalues --   -0.82304  -0.80908  -0.80299  -0.80008  -0.78556
 Alpha  occ. eigenvalues --   -0.77858  -0.76626  -0.76119  -0.74943  -0.73538
 Alpha  occ. eigenvalues --   -0.71290  -0.70660  -0.69412  -0.69227  -0.67521
 Alpha  occ. eigenvalues --   -0.67259  -0.65871  -0.63159  -0.61093  -0.60539
 Alpha  occ. eigenvalues --   -0.60218  -0.59421  -0.58910  -0.57688  -0.56226
 Alpha  occ. eigenvalues --   -0.56125  -0.55453  -0.54897  -0.53487  -0.52965
 Alpha  occ. eigenvalues --   -0.52397  -0.52024  -0.51523  -0.51301  -0.50444
 Alpha  occ. eigenvalues --   -0.49671  -0.49342  -0.48750  -0.48389  -0.48201
 Alpha  occ. eigenvalues --   -0.48052  -0.47574  -0.47172  -0.46178  -0.45569
 Alpha  occ. eigenvalues --   -0.45273  -0.45150  -0.44778  -0.44521  -0.44064
 Alpha  occ. eigenvalues --   -0.43886  -0.43605  -0.43237  -0.43063  -0.42654
 Alpha  occ. eigenvalues --   -0.42180  -0.41857  -0.41493  -0.41434  -0.41079
 Alpha  occ. eigenvalues --   -0.40897  -0.40267  -0.39938  -0.39616  -0.39365
 Alpha  occ. eigenvalues --   -0.38912  -0.38555  -0.38400  -0.38240  -0.37791
 Alpha  occ. eigenvalues --   -0.37669  -0.37335  -0.37139  -0.36986  -0.36507
 Alpha  occ. eigenvalues --   -0.36244  -0.36042  -0.35442  -0.34838  -0.34400
 Alpha  occ. eigenvalues --   -0.33987  -0.33214  -0.33133  -0.32475  -0.32315
 Alpha  occ. eigenvalues --   -0.31658  -0.30022  -0.29959  -0.29581  -0.29035
 Alpha  occ. eigenvalues --   -0.28013  -0.26825  -0.26086  -0.24473  -0.24043
 Alpha  occ. eigenvalues --   -0.23219  -0.22637  -0.22206  -0.21447  -0.19179
 Alpha virt. eigenvalues --   -0.13296  -0.08342  -0.04621  -0.02608  -0.02355
 Alpha virt. eigenvalues --   -0.00694   0.00499   0.01134   0.02125   0.02516
 Alpha virt. eigenvalues --    0.02847   0.03234   0.03494   0.03912   0.04483

 Mulliken charges:
               1
     1  O   -0.302235
     2  O   -0.176277
     3  O   -0.293482
     4  O   -0.197702
     5  O   -0.277745
     6  O   -0.228068
     7  N   -0.098469
     8  N   -0.146148
     9  N   -0.154030
    10  N   -0.302976
    11  C   -0.033497
    12  C    0.190521
    13  C   -0.087361
    14  C   -0.151966
    15  C   -0.103623
    16  C   -0.059513
    17  C   -0.093529
    18  C    0.148086
    19  C   -0.107529
    20  C   -0.130113
    21  C    0.095481
    22  C    0.142868
    23  C   -0.033214
    24  C    0.136478
    25  C    0.104554
    26  C   -0.171307
    27  C    0.029958
    28  C    0.197258
    29  C    0.071212
    30  C    0.024907
    31  C    0.029419
    32  C    0.106191
    33  C   -0.107581
    34  C    0.143008
    35  C    0.079583
    36  C   -0.049154
    37  C    0.161765
    38  C   -0.008969
    39  C   -0.131001
    40  C    0.187091
    41  C    0.065844
    42  C   -0.114333
    43  C   -0.152460
    44  H    0.108772
    45  H   -0.015287
    46  H    0.007548
    47  H    0.134928
    48  H    0.122798
    49  H    0.001775
    50  H    0.022364
    51  H    0.041866
    52  H    0.025071
    53  H   -0.014720
    54  H    0.016859
    55  H   -0.001696
    56  H   -0.015035
    57  H    0.035406
    58  H   -0.019332
    59  H    0.050459
    60  H    0.224544
    61  H    0.018683
    62  H    0.052989
    63  H    0.025876
    64  H    0.050365
    65  H   -0.003638
    66  H   -0.014665
    67  H    0.048073
    68  H    0.067838
    69  H   -0.023021
    70  H    0.007869
    71  H    0.023265
    72  H    0.196577
    73  H    0.019487
    74  H    0.077800
    75  H    0.100163
    76  H    0.077541
    77  H    0.218085
    78  H    0.059275
    79  H    0.069176
 Sum of Mulliken charges =  -0.00000

 Dipole moment (field-independent basis, Debye):
    X=              5.1960    Y=              3.3913    Z=             -0.3726  Tot=              6.2160
 Quadrupole moment (field-independent basis, Debye-Ang):
   XX=           -233.8747   YY=           -244.5991   ZZ=           -272.1185
   XY=              2.4309   XZ=            -26.5084   YZ=            -13.6558

 Normal termination of Gaussian 16 at Fri Jul 26 15:40:31 2019.
