 Gaussian 16, Revision A.03,
 Gaussian 16:  ES64L-G16RevA.03 25-Dec-2016

 --------------------------
 # td=(NStates=1) B3LYP/SVP
 --------------------------

 --
 TD
 --
 Symbolic Z-matrix:
 Charge =  0 Multiplicity = 1

                         Standard orientation:
 ---------------------------------------------------------------------
 Center     Atomic      Atomic             Coordinates (Angstroms)
 Number     Number       Type             X           Y           Z
 ---------------------------------------------------------------------
      1          8           0        5.349071   -0.052041   -3.319546
      2          8           0       -2.881343   -3.018300    3.282182
      3          8           0       -3.307541   -0.858335    2.908452
      4          8           0       -1.993863    7.166046    1.509907
      5          8           0       -0.848668    7.031104   -0.441069
      6          8           0       -1.546779   -4.053625    0.006351
      7          7           0        2.354802    1.033498    0.607110
      8          7           0        4.296170   -0.528395   -1.201987
      9          7           0       -1.772163    0.652650   -0.465760
     10          7           0       -2.476496   -2.042033   -0.546151
     11          6           0        4.757441   -1.014171    0.042000
     12          6           0        4.352299   -0.120193    1.304325
     13          6           0        3.036000    0.126434    1.355709
     14          6           0        2.021866   -0.593827    2.135190
     15          6           0        0.719407    0.037515    1.800062
     16          6           0        0.961620    1.035297    0.858213
     17          6           0        6.255343   -1.307712   -0.190708
     18          6           0       -0.630386   -0.216402    2.544813
     19          6           0        6.633000   -0.785296   -1.307935
     20          6           0        0.164039    2.005948    0.208914
     21          6           0       -1.102550    1.830888   -0.294357
     22          6           0        5.397601   -0.371163   -2.094310
     23          6           0       -1.993011    2.862806   -0.927210
     24          6           0        2.205548   -1.647130    3.223462
     25          6           0        7.121759   -1.762021    0.901376
     26          6           0       -3.111603    2.215368   -1.301058
     27          6           0       -1.014257   -1.659152    2.555490
     28          6           0       -3.007167    0.869683   -1.112334
     29          6           0       -1.699572    4.325512   -0.927397
     30          6           0        7.904099   -0.547178   -2.033858
     31          6           0       -1.947586    4.979104    0.384862
     32          6           0       -4.293393    2.914884   -2.009048
     33          6           0       -3.974657   -0.203359   -1.379324
     34          6           0       -2.500167   -1.785511    2.940907
     35          6           0       -3.636398   -1.498159   -1.126867
     36          6           0        9.169723   -0.728627   -1.578083
     37          6           0       -1.551723    6.487620    0.419592
     38          6           0       -4.487495   -2.731606   -1.529075
     39          6           0       -3.793555   -3.810701   -1.155225
     40          6           0       -2.391940   -3.352658   -0.423057
     41          6           0       -5.790412   -2.516577   -2.057884
     42          6           0       -4.170609   -5.278845   -0.972333
     43          6           0       -6.644217   -3.414684   -2.521000
     44          1           0        4.304342   -2.041130    0.330447
     45          1           0        4.928837    0.826828    1.353542
     46          1           0        4.671135   -0.795542    2.176311
     47          1           0        2.642884    1.632798   -0.241387
     48          1           0        3.354710   -0.584724   -1.597352
     49          1           0       -0.242684    0.245688    3.443080
     50          1           0       -1.412448    0.356334    2.155952
     51          1           0        0.674880    3.010587    0.086870
     52          1           0        3.227300   -2.185464    3.094855
     53          1           0        1.936742   -1.269824    4.206025
     54          1           0        1.784326   -2.648765    3.133747
     55          1           0        6.387604   -2.150480    1.735403
     56          1           0        7.833131   -0.876430    1.366879
     57          1           0        7.684838   -2.819180    0.446850
     58          1           0       -0.913045   -2.155680    1.469576
     59          1           0       -0.637457   -2.469851    3.175012
     60          1           0       -1.360634   -0.316969   -0.337898
     61          1           0       -2.545590    4.955039   -1.593392
     62          1           0       -0.630343    4.456245   -1.137610
     63          1           0        7.645435   -0.361004   -3.199424
     64          1           0       -1.557583    4.644542    1.408580
     65          1           0       -2.933153    5.000742    0.687488
     66          1           0       -4.056645    3.912858   -2.140433
     67          1           0       -5.106941    2.888387   -1.387283
     68          1           0       -4.508188    2.318163   -2.916837
     69          1           0       -5.033114   -0.030545   -1.916260
     70          1           0        9.424798   -0.993655   -0.527086
     71          1           0        9.992930   -0.865404   -2.442648
     72          1           0       -3.882861   -3.090080    3.208484
     73          1           0       -6.238454   -1.445289   -2.110629
     74          1           0       -5.112156   -5.243458   -0.381026
     75          1           0       -4.316034   -5.876415   -1.947633
     76          1           0       -3.220780   -5.838426   -0.297892
     77          1           0       -1.315718    7.955629    1.390417
     78          1           0       -7.720635   -3.221726   -3.002801
     79          1           0       -6.486915   -4.529163   -2.417747
 ---------------------------------------------------------------------

 SCF Done:  E(RB3LYP) =  -1947.84096155     A.U. after   17 cycles

 Excitation energies and oscillator strengths:

 Excited State   1:      Singlet-A      1.8514 eV  669.69 nm  f=0.0091  <S**2>=0.000
     153 ->156         0.64359
     154 ->156         0.21270
     155 ->156         0.17282
 This state for optimization and/or second-order correction.
 Total Energy, E(TD-HF/TD-DFT) =  -1947.77292459
 Copying the excited state density for this state as the 1-particle RhoCI density.

 The electronic state is 1-A.
 Alpha  occ. eigenvalues --  -19.20331 -19.17173 -19.14106 -19.11312 -19.10404
 Alpha  occ. eigenvalues --  -19.09855 -14.39484 -14.37695 -14.36690 -14.27670
 Alpha  occ. eigenvalues --  -10.33568 -10.30223 -10.29731 -10.26323 -10.26041
 Alpha  occ. eigenvalues --  -10.25463 -10.25244 -10.24288 -10.24222 -10.23525
 Alpha  occ. eigenvalues --  -10.23523 -10.23376 -10.23345 -10.22288 -10.22213
 Alpha  occ. eigenvalues --  -10.22108 -10.21767 -10.21307 -10.21166 -10.20995
 Alpha  occ. eigenvalues --  -10.20884 -10.20705 -10.20616 -10.20592 -10.20346
 Alpha  occ. eigenvalues --  -10.19658 -10.19638 -10.19595 -10.19484 -10.19279
 Alpha  occ. eigenvalues --  -10.19222 -10.18471 -10.18352  -1.10399  -1.07894
 Alpha  occ. eigenvalues --   -1.02584  -1.01027  -1.00516  -0.99071  -0.98492
 Alpha  occ. eigenvalues --   -0.97729  -0.94618  -0.90001  -0.84148  -0.83637
 Alpha  occ. eigenvalues --   -0.83290  -0.81442  -0.80819  -0.79353  -0.78906
 Alpha  occ. eigenvalues --   -0.76961  -0.76294  -0.75764  -0.73355  -0.72858
 Alpha  occ. eigenvalues --   -0.71869  -0.71411  -0.70530  -0.69048  -0.67922
 Alpha  occ. eigenvalues --   -0.67155  -0.66150  -0.63734  -0.60706  -0.59790
 Alpha  occ. eigenvalues --   -0.58897  -0.58821  -0.58260  -0.58015  -0.57785
 Alpha  occ. eigenvalues --   -0.56796  -0.56012  -0.55603  -0.54334  -0.52626
 Alpha  occ. eigenvalues --   -0.51903  -0.51204  -0.50820  -0.50584  -0.50182
 Alpha  occ. eigenvalues --   -0.50117  -0.49055  -0.48383  -0.48066  -0.47187
 Alpha  occ. eigenvalues --   -0.46844  -0.46581  -0.46449  -0.46300  -0.45808
 Alpha  occ. eigenvalues --   -0.45613  -0.44972  -0.44657  -0.44436  -0.44284
 Alpha  occ. eigenvalues --   -0.43718  -0.43300  -0.43068  -0.42742  -0.42628
 Alpha  occ. eigenvalues --   -0.42479  -0.42370  -0.41953  -0.41576  -0.41507
 Alpha  occ. eigenvalues --   -0.41421  -0.41333  -0.40941  -0.40506  -0.40146
 Alpha  occ. eigenvalues --   -0.39843  -0.39122  -0.38657  -0.38526  -0.38326
 Alpha  occ. eigenvalues --   -0.38200  -0.37922  -0.37538  -0.36960  -0.35730
 Alpha  occ. eigenvalues --   -0.35534  -0.35327  -0.34753  -0.34523  -0.34127
 Alpha  occ. eigenvalues --   -0.33418  -0.33284  -0.32986  -0.32642  -0.31882
 Alpha  occ. eigenvalues --   -0.31485  -0.30332  -0.29502  -0.28903  -0.27255
 Alpha  occ. eigenvalues --   -0.26879  -0.26347  -0.25959  -0.25634  -0.25170
 Alpha  occ. eigenvalues --   -0.24897  -0.23771  -0.21601  -0.21344  -0.19929
 Alpha virt. eigenvalues --   -0.11709  -0.06371  -0.05004  -0.01547  -0.00764
 Alpha virt. eigenvalues --   -0.00244   0.00569   0.01567   0.01678   0.01868
 Alpha virt. eigenvalues --    0.02210   0.03260   0.03600   0.03706   0.04641

 Mulliken charges:
               1
     1  O   -0.266162
     2  O   -0.190962
     3  O   -0.261864
     4  O   -0.212539
     5  O   -0.260337
     6  O   -0.183017
     7  N   -0.118931
     8  N   -0.202436
     9  N   -0.102529
    10  N   -0.296013
    11  C    0.052042
    12  C    0.174912
    13  C   -0.017737
    14  C   -0.140884
    15  C   -0.139223
    16  C    0.050661
    17  C   -0.164160
    18  C    0.207499
    19  C   -0.029222
    20  C   -0.121136
    21  C    0.095241
    22  C    0.179873
    23  C   -0.064642
    24  C    0.068452
    25  C   -0.051214
    26  C   -0.184110
    27  C   -0.049083
    28  C    0.131888
    29  C    0.101535
    30  C   -0.023576
    31  C    0.014122
    32  C    0.231982
    33  C   -0.139496
    34  C    0.122649
    35  C    0.109872
    36  C   -0.072863
    37  C    0.129984
    38  C    0.119669
    39  C   -0.250579
    40  C    0.128831
    41  C   -0.042201
    42  C   -0.023659
    43  C   -0.113864
    44  H    0.021644
    45  H    0.000475
    46  H    0.005119
    47  H    0.144769
    48  H    0.142950
    49  H    0.014310
    50  H   -0.002512
    51  H    0.015046
    52  H   -0.002924
    53  H    0.035800
    54  H    0.026691
    55  H    0.030968
    56  H    0.082322
    57  H    0.075974
    58  H    0.100085
    59  H    0.017780
    60  H    0.163391
    61  H    0.060397
    62  H    0.025844
    63  H    0.064532
    64  H    0.045255
    65  H   -0.003505
    66  H   -0.030423
    67  H   -0.003890
    68  H    0.035614
    69  H    0.031381
    70  H    0.032828
    71  H    0.056659
    72  H    0.202647
    73  H    0.006314
    74  H    0.035476
    75  H    0.044192
    76  H    0.060237
    77  H    0.211360
    78  H    0.036746
    79  H    0.019680
 Sum of Mulliken charges =  -0.00000

 Dipole moment (field-independent basis, Debye):
    X=              1.6996    Y=              3.5780    Z=              3.7137  Tot=              5.4298
 Quadrupole moment (field-independent basis, Debye-Ang):
   XX=           -229.8284   YY=           -255.2355   ZZ=           -266.9080
   XY=            -14.3564   XZ=             30.4539   YZ=              2.1919

 Normal termination of Gaussian 16 at Wed Sep 25 06:20:21 2019.
