 Gaussian 16, Revision A.03,
 Gaussian 16:  ES64L-G16RevA.03 25-Dec-2016

 --------------------------
 # td=(NStates=1) B3LYP/SVP
 --------------------------

 --
 TD
 --
 Symbolic Z-matrix:
 Charge =  0 Multiplicity = 1

                         Standard orientation:
 ---------------------------------------------------------------------
 Center     Atomic      Atomic             Coordinates (Angstroms)
 Number     Number       Type             X           Y           Z
 ---------------------------------------------------------------------
      1          8           0        5.378643   -0.303071   -3.329086
      2          8           0       -2.988704   -2.861401    3.128575
      3          8           0       -3.368099   -0.572373    3.204426
      4          8           0       -1.596418    7.150128    1.436028
      5          8           0       -0.886914    6.986429   -0.734556
      6          8           0       -1.668473   -3.989888    0.099308
      7          7           0        2.396099    1.012646    0.542723
      8          7           0        4.415593   -0.621134   -1.287685
      9          7           0       -1.849893    0.642783   -0.410342
     10          7           0       -2.533280   -1.996104   -0.480322
     11          6           0        4.911745   -1.177465   -0.030107
     12          6           0        4.470090   -0.335216    1.252729
     13          6           0        2.962816    0.075787    1.366312
     14          6           0        2.027706   -0.496176    2.181296
     15          6           0        0.761732    0.095026    1.867482
     16          6           0        1.024107    1.093927    0.849098
     17          6           0        6.242117   -1.217334   -0.135590
     18          6           0       -0.538746   -0.005989    2.566865
     19          6           0        6.755928   -0.849504   -1.406658
     20          6           0        0.150341    1.968681    0.168132
     21          6           0       -1.216172    1.809311   -0.207212
     22          6           0        5.503424   -0.481075   -2.189366
     23          6           0       -2.046673    2.944398   -0.933590
     24          6           0        2.221228   -1.563592    3.228317
     25          6           0        7.216592   -1.765758    0.925726
     26          6           0       -3.139079    2.270324   -1.378261
     27          6           0       -1.164993   -1.425046    2.579599
     28          6           0       -3.068519    0.808619   -1.123698
     29          6           0       -1.652904    4.332060   -1.028060
     30          6           0        7.935036   -0.807298   -1.974914
     31          6           0       -1.788909    5.053879    0.338488
     32          6           0       -4.312922    2.873943   -2.073799
     33          6           0       -3.885448   -0.217565   -1.440911
     34          6           0       -2.601061   -1.479930    2.960479
     35          6           0       -3.719885   -1.541459   -1.054359
     36          6           0        9.198765   -0.887935   -1.424078
     37          6           0       -1.445619    6.514477    0.278823
     38          6           0       -4.549670   -2.774983   -1.399846
     39          6           0       -3.874715   -3.877958   -1.033725
     40          6           0       -2.583044   -3.374084   -0.410234
     41          6           0       -5.951443   -2.585114   -2.034272
     42          6           0       -4.187679   -5.348766   -1.061153
     43          6           0       -6.915400   -3.523940   -2.301269
     44          1           0        4.393121   -2.218434    0.067533
     45          1           0        5.036906    0.560678    1.167124
     46          1           0        4.868319   -0.609965    2.253723
     47          1           0        2.799701    1.455537   -0.106037
     48          1           0        3.467203   -0.951551   -1.623438
     49          1           0       -0.310651    0.163538    3.814947
     50          1           0       -1.326660    0.815048    2.286267
     51          1           0        0.709055    2.792925   -0.487243
     52          1           0        3.215379   -1.852393    3.438237
     53          1           0        1.732775   -1.273154    4.161904
     54          1           0        1.639792   -2.503809    3.000370
     55          1           0        6.624461   -2.292489    1.601119
     56          1           0        7.562382   -1.028556    1.563548
     57          1           0        8.216036   -2.455600    0.806917
     58          1           0       -1.134307   -1.760529    1.492958
     59          1           0       -0.556703   -2.180792    3.342080
     60          1           0       -1.721844   -0.283869   -0.109590
     61          1           0       -2.332100    4.824290   -1.793115
     62          1           0       -0.582213    4.523191   -1.280311
     63          1           0        7.825043   -0.873933   -3.063619
     64          1           0       -1.356658    4.533400    1.109843
     65          1           0       -2.741529    5.300006    0.688978
     66          1           0       -3.934959    3.853761   -2.413786
     67          1           0       -5.099904    2.799604   -1.442508
     68          1           0       -4.595675    2.307597   -2.997387
     69          1           0       -4.887187    0.210300   -1.773840
     70          1           0        9.499065   -0.803527   -0.439474
     71          1           0       10.075015   -1.019523   -2.059843
     72          1           0       -4.102761   -2.939016    3.216848
     73          1           0       -6.361770   -1.498258   -2.189228
     74          1           0       -5.159636   -5.584837   -0.294881
     75          1           0       -4.551599   -5.672434   -2.122951
     76          1           0       -3.473737   -5.905343   -0.833335
     77          1           0       -1.060560    8.004108    1.325908
     78          1           0       -7.842594   -3.189791   -2.667819
     79          1           0       -6.923582   -4.417593   -2.161548
 ---------------------------------------------------------------------

 SCF Done:  E(RB3LYP) =  -1947.78411429     A.U. after   24 cycles

 Excitation energies and oscillator strengths:

 Excited State   1:      Singlet-A      1.9579 eV  633.24 nm  f=0.4774  <S**2>=0.000
     155 ->156         0.70982
     155 <-156        -0.14681
 This state for optimization and/or second-order correction.
 Total Energy, E(TD-HF/TD-DFT) =  -1947.71216187
 Copying the excited state density for this state as the 1-particle RhoCI density.

 The electronic state is 1-A.
 Alpha  occ. eigenvalues --  -19.20600 -19.15749 -19.12929 -19.12175 -19.10969
 Alpha  occ. eigenvalues --  -19.09550 -14.37731 -14.36793 -14.35175 -14.28682
 Alpha  occ. eigenvalues --  -10.32930 -10.30916 -10.28393 -10.25675 -10.25352
 Alpha  occ. eigenvalues --  -10.25247 -10.24606 -10.23764 -10.23725 -10.23599
 Alpha  occ. eigenvalues --  -10.22687 -10.22318 -10.22203 -10.21734 -10.21722
 Alpha  occ. eigenvalues --  -10.21615 -10.21529 -10.20960 -10.20829 -10.20724
 Alpha  occ. eigenvalues --  -10.20531 -10.20329 -10.20077 -10.19834 -10.19778
 Alpha  occ. eigenvalues --  -10.19770 -10.19629 -10.19594 -10.19486 -10.19449
 Alpha  occ. eigenvalues --  -10.19433 -10.19430 -10.17695  -1.10863  -1.05915
 Alpha  occ. eigenvalues --   -1.04785  -1.00962  -0.99987  -0.99219  -0.97884
 Alpha  occ. eigenvalues --   -0.96096  -0.94881  -0.90361  -0.83545  -0.83065
 Alpha  occ. eigenvalues --   -0.82297  -0.81522  -0.80115  -0.79290  -0.78699
 Alpha  occ. eigenvalues --   -0.77983  -0.76333  -0.75301  -0.74532  -0.73064
 Alpha  occ. eigenvalues --   -0.71803  -0.71619  -0.70175  -0.69572  -0.69456
 Alpha  occ. eigenvalues --   -0.67363  -0.66947  -0.64494  -0.62994  -0.61249
 Alpha  occ. eigenvalues --   -0.60747  -0.59417  -0.58970  -0.57165  -0.57012
 Alpha  occ. eigenvalues --   -0.56074  -0.55561  -0.54409  -0.53946  -0.52987
 Alpha  occ. eigenvalues --   -0.51853  -0.51597  -0.51295  -0.51021  -0.50058
 Alpha  occ. eigenvalues --   -0.49541  -0.49107  -0.48770  -0.48327  -0.47828
 Alpha  occ. eigenvalues --   -0.47564  -0.46885  -0.46295  -0.46248  -0.45828
 Alpha  occ. eigenvalues --   -0.45238  -0.44901  -0.43924  -0.43899  -0.43647
 Alpha  occ. eigenvalues --   -0.43481  -0.43305  -0.43012  -0.42615  -0.42448
 Alpha  occ. eigenvalues --   -0.42281  -0.42030  -0.41638  -0.41379  -0.41028
 Alpha  occ. eigenvalues --   -0.40912  -0.40837  -0.40594  -0.40462  -0.39910
 Alpha  occ. eigenvalues --   -0.39793  -0.39437  -0.39282  -0.38826  -0.38403
 Alpha  occ. eigenvalues --   -0.38231  -0.38007  -0.37662  -0.37243  -0.37040
 Alpha  occ. eigenvalues --   -0.36464  -0.35979  -0.35531  -0.35338  -0.35247
 Alpha  occ. eigenvalues --   -0.34702  -0.33802  -0.32921  -0.32828  -0.32366
 Alpha  occ. eigenvalues --   -0.30567  -0.29954  -0.28299  -0.28144  -0.27195
 Alpha  occ. eigenvalues --   -0.26933  -0.26477  -0.26191  -0.25961  -0.24861
 Alpha  occ. eigenvalues --   -0.24790  -0.23758  -0.22987  -0.22409  -0.18327
 Alpha virt. eigenvalues --   -0.11018  -0.07585  -0.06197  -0.01316  -0.00983
 Alpha virt. eigenvalues --    0.00609   0.00731   0.01092   0.02325   0.03036
 Alpha virt. eigenvalues --    0.03296   0.03809   0.04127   0.04380   0.04633

 Mulliken charges:
               1
     1  O   -0.147712
     2  O   -0.326139
     3  O   -0.216523
     4  O   -0.180781
     5  O   -0.273355
     6  O   -0.193353
     7  N    0.031909
     8  N   -0.246554
     9  N   -0.028559
    10  N   -0.321161
    11  C    0.089126
    12  C    0.194209
    13  C   -0.111192
    14  C   -0.109134
    15  C   -0.040972
    16  C    0.048728
    17  C   -0.156758
    18  C   -0.046393
    19  C    0.008964
    20  C   -0.086227
    21  C    0.046208
    22  C    0.127071
    23  C   -0.081253
    24  C    0.122173
    25  C    0.117264
    26  C   -0.146568
    27  C   -0.073184
    28  C    0.066831
    29  C    0.105222
    30  C   -0.069236
    31  C    0.046584
    32  C    0.158374
    33  C   -0.075877
    34  C    0.179332
    35  C    0.084438
    36  C   -0.010597
    37  C    0.136121
    38  C    0.068839
    39  C   -0.217182
    40  C    0.134047
    41  C   -0.052315
    42  C    0.142912
    43  C    0.098390
    44  H    0.044835
    45  H   -0.037656
    46  H    0.009693
    47  H    0.029744
    48  H    0.149578
    49  H    0.026478
    50  H    0.055462
    51  H    0.024281
    52  H   -0.013689
    53  H    0.006087
    54  H    0.039132
    55  H   -0.025319
    56  H   -0.002082
    57  H    0.062138
    58  H    0.106670
    59  H    0.073058
    60  H    0.106229
    61  H    0.021481
    62  H    0.031871
    63  H    0.011536
    64  H    0.020885
    65  H    0.002693
    66  H    0.011681
    67  H    0.008618
    68  H    0.022034
    69  H   -0.003618
    70  H   -0.002206
    71  H    0.023397
    72  H    0.233102
    73  H    0.020863
    74  H    0.043934
    75  H    0.035039
    76  H   -0.049392
    77  H    0.208567
    78  H    0.006882
    79  H   -0.097727
 Sum of Mulliken charges =  -0.00000

 Dipole moment (field-independent basis, Debye):
    X=              1.2012    Y=              2.4490    Z=              2.9499  Tot=              4.0178
 Quadrupole moment (field-independent basis, Debye-Ang):
   XX=           -212.7479   YY=           -245.2989   ZZ=           -266.5527
   XY=             -6.4925   XZ=             32.7703   YZ=              7.1851

 Normal termination of Gaussian 16 at Sun Sep 29 18:06:39 2019.
