 Gaussian 16, Revision A.03,
 Gaussian 16:  ES64L-G16RevA.03 25-Dec-2016

 --------------------------
 # td=(NStates=1) B3LYP/SVP
 --------------------------

 --
 TD
 --
 Symbolic Z-matrix:
 Charge =  0 Multiplicity = 1

                         Standard orientation:
 ---------------------------------------------------------------------
 Center     Atomic      Atomic             Coordinates (Angstroms)
 Number     Number       Type             X           Y           Z
 ---------------------------------------------------------------------
      1          8           0       -3.386072   -0.957955   -3.027142
      2          8           0        3.012362    2.495629    3.550123
      3          8           0        3.681763    0.594904    4.633205
      4          8           0        7.708593   -1.269303   -0.858322
      5          8           0        6.701160   -2.623285   -2.385434
      6          8           0       -2.610348    1.340546    1.651832
      7          7           0       -0.235937   -2.560829    0.432739
      8          7           0       -2.648080   -1.052422   -0.841142
      9          7           0        1.051066    0.135227   -0.816585
     10          7           0       -0.975568    1.549068    0.072114
     11          6           0       -3.347956   -1.338956    0.453389
     12          6           0       -2.691606   -2.499301    1.178657
     13          6           0       -1.177734   -2.256859    1.356362
     14          6           0       -0.556169   -1.623240    2.513284
     15          6           0        0.755211   -1.609656    2.258484
     16          6           0        1.000157   -2.160910    0.889857
     17          6           0       -4.766583   -1.818345    0.002097
     18          6           0        1.911523   -1.011462    3.045746
     19          6           0       -4.867792   -1.793049   -1.309135
     20          6           0        2.068696   -1.967406   -0.035298
     21          6           0        2.178041   -0.815074   -0.817187
     22          6           0       -3.601547   -1.159805   -1.888358
     23          6           0        3.112280   -0.357676   -1.893230
     24          6           0       -1.279813   -1.127521    3.805277
     25          6           0       -5.734421   -2.312936    1.065044
     26          6           0        2.634676    0.843861   -2.365716
     27          6           0        1.950829    0.513884    2.894314
     28          6           0        1.340963    1.208098   -1.662496
     29          6           0        4.325338   -1.163838   -2.355803
     30          6           0       -6.011514   -2.032712   -2.236922
     31          6           0        5.404746   -0.802819   -1.348021
     32          6           0        3.191833    1.686642   -3.380643
     33          6           0        0.510015    2.276120   -1.737030
     34          6           0        2.955235    1.189449    3.825586
     35          6           0       -0.531973    2.446163   -0.874582
     36          6           0       -6.988145   -2.934963   -1.997952
     37          6           0        6.642959   -1.628111   -1.610316
     38          6           0       -1.382666    3.686191   -0.678036
     39          6           0       -2.293636    3.403715    0.209703
     40          6           0       -2.011176    1.933206    0.768436
     41          6           0       -1.204100    4.853587   -1.511381
     42          6           0       -3.404307    4.216632    0.914031
     43          6           0       -1.990468    5.972965   -1.411997
     44          1           0       -3.297888   -0.645523    1.162587
     45          1           0       -3.032620   -3.454025    0.590538
     46          1           0       -3.140283   -2.590964    2.144723
     47          1           0       -0.442599   -2.860064   -0.494020
     48          1           0       -1.876904   -0.403408   -0.772555
     49          1           0        1.675994   -1.359131    4.028201
     50          1           0        2.929176   -1.323481    2.564334
     51          1           0        2.893453   -2.592068   -0.246112
     52          1           0       -1.956166   -1.839576    4.301273
     53          1           0       -0.625356   -0.919593    4.458186
     54          1           0       -1.783758   -0.316891    3.429129
     55          1           0       -5.286284   -1.895256    1.922485
     56          1           0       -5.891839   -3.294688    1.041415
     57          1           0       -6.824420   -1.819621    0.799697
     58          1           0        2.225229    0.799437    1.904512
     59          1           0        0.912989    0.884384    3.144131
     60          1           0        0.400773    0.205209   -0.216841
     61          1           0        4.883378   -0.766348   -3.379987
     62          1           0        3.954361   -2.178789   -2.525047
     63          1           0       -5.927298   -1.378204   -3.271206
     64          1           0        5.138136   -1.311337   -0.399358
     65          1           0        5.319449    0.340078   -1.203809
     66          1           0        3.962146    1.148630   -3.949137
     67          1           0        3.655032    2.768311   -3.007530
     68          1           0        2.305150    2.083154   -3.959497
     69          1           0        0.801198    3.179012   -2.242595
     70          1           0       -6.945224   -3.470411   -1.007071
     71          1           0       -7.799152   -2.982184   -2.732975
     72          1           0        3.603446    3.012417    4.310240
     73          1           0       -0.366124    4.967566   -2.296600
     74          1           0       -4.316712    4.282719    0.322219
     75          1           0       -3.683581    3.531577    1.721378
     76          1           0       -3.027305    5.377665    1.159793
     77          1           0        8.510291   -1.847723   -0.964504
     78          1           0       -2.062534    6.576667   -2.331754
     79          1           0       -2.929558    6.055626   -0.845223
 ---------------------------------------------------------------------

 SCF Done:  E(RB3LYP) =  -1947.83677078     A.U. after   16 cycles

 Excitation energies and oscillator strengths:

 Excited State   1:      Singlet-A      0.9247 eV 1340.87 nm  f=0.0008  <S**2>=0.000
     155 ->156         0.70382
 This state for optimization and/or second-order correction.
 Total Energy, E(TD-HF/TD-DFT) =  -1947.80279038
 Copying the excited state density for this state as the 1-particle RhoCI density.

 The electronic state is 1-A.
 Alpha  occ. eigenvalues --  -19.19820 -19.19180 -19.13756 -19.11988 -19.11964
 Alpha  occ. eigenvalues --  -19.08740 -14.37833 -14.37298 -14.32310 -14.29865
 Alpha  occ. eigenvalues --  -10.34342 -10.31620 -10.27782 -10.27693 -10.26762
 Alpha  occ. eigenvalues --  -10.26667 -10.25622 -10.24125 -10.23961 -10.23849
 Alpha  occ. eigenvalues --  -10.23583 -10.22845 -10.22752 -10.21742 -10.20982
 Alpha  occ. eigenvalues --  -10.20765 -10.20708 -10.20500 -10.20309 -10.20125
 Alpha  occ. eigenvalues --  -10.20023 -10.20022 -10.19844 -10.19779 -10.19633
 Alpha  occ. eigenvalues --  -10.19403 -10.19209 -10.19122 -10.18684 -10.17941
 Alpha  occ. eigenvalues --  -10.17695 -10.17346 -10.16210  -1.09601  -1.08075
 Alpha  occ. eigenvalues --   -1.02938  -1.02683  -0.99627  -0.98772  -0.98717
 Alpha  occ. eigenvalues --   -0.97256  -0.93652  -0.90471  -0.85430  -0.83128
 Alpha  occ. eigenvalues --   -0.81203  -0.80832  -0.80611  -0.80276  -0.78985
 Alpha  occ. eigenvalues --   -0.77080  -0.76183  -0.74635  -0.74410  -0.73459
 Alpha  occ. eigenvalues --   -0.71005  -0.70678  -0.70239  -0.70012  -0.68216
 Alpha  occ. eigenvalues --   -0.66919  -0.65855  -0.62396  -0.62081  -0.60201
 Alpha  occ. eigenvalues --   -0.60002  -0.59174  -0.58921  -0.58501  -0.56877
 Alpha  occ. eigenvalues --   -0.56665  -0.55839  -0.55141  -0.53301  -0.52945
 Alpha  occ. eigenvalues --   -0.52660  -0.52423  -0.51529  -0.50376  -0.49538
 Alpha  occ. eigenvalues --   -0.49075  -0.48697  -0.48598  -0.48414  -0.47992
 Alpha  occ. eigenvalues --   -0.47524  -0.47300  -0.47116  -0.45950  -0.45708
 Alpha  occ. eigenvalues --   -0.45233  -0.44758  -0.44394  -0.44264  -0.43762
 Alpha  occ. eigenvalues --   -0.43428  -0.43204  -0.42932  -0.42733  -0.42545
 Alpha  occ. eigenvalues --   -0.42222  -0.41504  -0.41390  -0.41362  -0.40792
 Alpha  occ. eigenvalues --   -0.40626  -0.40463  -0.40389  -0.40289  -0.40019
 Alpha  occ. eigenvalues --   -0.39432  -0.39183  -0.38961  -0.38772  -0.38252
 Alpha  occ. eigenvalues --   -0.38180  -0.37491  -0.37162  -0.36762  -0.36567
 Alpha  occ. eigenvalues --   -0.36312  -0.35909  -0.35643  -0.35463  -0.34737
 Alpha  occ. eigenvalues --   -0.33788  -0.33462  -0.32828  -0.32207  -0.32059
 Alpha  occ. eigenvalues --   -0.31625  -0.29937  -0.29365  -0.28775  -0.27869
 Alpha  occ. eigenvalues --   -0.27601  -0.27234  -0.25192  -0.24797  -0.24385
 Alpha  occ. eigenvalues --   -0.23890  -0.23759  -0.23180  -0.22925  -0.18647
 Alpha virt. eigenvalues --   -0.12546  -0.07193  -0.03004  -0.02819  -0.02242
 Alpha virt. eigenvalues --    0.00284   0.00913   0.01443   0.01772   0.02686
 Alpha virt. eigenvalues --    0.02813   0.03270   0.03924   0.04334   0.04959

 Mulliken charges:
               1
     1  O   -0.180374
     2  O   -0.233368
     3  O   -0.252115
     4  O   -0.199623
     5  O   -0.269044
     6  O   -0.216125
     7  N   -0.003963
     8  N   -0.248091
     9  N   -0.046758
    10  N   -0.266826
    11  C    0.130546
    12  C    0.164890
    13  C   -0.128699
    14  C   -0.156890
    15  C   -0.125546
    16  C    0.009767
    17  C   -0.187545
    18  C    0.132757
    19  C   -0.070282
    20  C   -0.056964
    21  C    0.069259
    22  C    0.142957
    23  C   -0.079144
    24  C    0.249596
    25  C    0.125687
    26  C   -0.081357
    27  C   -0.011977
    28  C    0.157332
    29  C    0.040191
    30  C   -0.050425
    31  C   -0.008650
    32  C    0.024878
    33  C   -0.076225
    34  C    0.150315
    35  C    0.085393
    36  C   -0.032210
    37  C    0.168476
    38  C    0.103644
    39  C   -0.242356
    40  C    0.152546
    41  C   -0.078700
    42  C    0.060668
    43  C   -0.041210
    44  H   -0.024311
    45  H   -0.009604
    46  H   -0.026611
    47  H    0.109761
    48  H    0.124497
    49  H    0.011802
    50  H    0.007455
    51  H   -0.026641
    52  H    0.008546
    53  H   -0.074272
    54  H    0.014037
    55  H    0.014173
    56  H    0.012157
    57  H    0.047493
    58  H    0.020309
    59  H    0.051895
    60  H    0.067880
    61  H    0.051221
    62  H    0.050809
    63  H    0.051577
    64  H    0.052099
    65  H    0.074634
    66  H    0.029609
    67  H    0.052995
    68  H    0.042902
    69  H   -0.028312
    70  H    0.023080
    71  H    0.027412
    72  H    0.233893
    73  H    0.021576
    74  H    0.027781
    75  H    0.026721
    76  H    0.060560
    77  H    0.207307
    78  H    0.022046
    79  H    0.019091
 Sum of Mulliken charges =  -0.00000

 Dipole moment (field-independent basis, Debye):
    X=              3.9847    Y=              3.1674    Z=             -0.6525  Tot=              5.1319
 Quadrupole moment (field-independent basis, Debye-Ang):
   XX=           -231.5261   YY=           -242.2173   ZZ=           -268.7080
   XY=             11.9672   XZ=            -18.8579   YZ=             -8.0769

 Normal termination of Gaussian 16 at Wed Jul 24 22:47:08 2019.
