 Gaussian 16, Revision A.03,
 Gaussian 16:  ES64L-G16RevA.03 25-Dec-2016

 --------------------------
 # td=(NStates=1) B3LYP/SVP
 --------------------------

 --
 TD
 --
 Symbolic Z-matrix:
 Charge =  0 Multiplicity = 1

                         Standard orientation:
 ---------------------------------------------------------------------
 Center     Atomic      Atomic             Coordinates (Angstroms)
 Number     Number       Type             X           Y           Z
 ---------------------------------------------------------------------
      1          8           0        5.404220    0.152874   -3.285081
      2          8           0       -2.959710   -3.275593    3.235452
      3          8           0       -3.417296   -1.038086    2.901879
      4          8           0       -1.188267    7.217570    1.791205
      5          8           0       -0.548534    7.084576   -0.415317
      6          8           0       -1.842164   -3.942605   -0.239753
      7          7           0        2.405926    0.715366    0.651358
      8          7           0        4.320506   -0.525712   -1.325559
      9          7           0       -1.831889    0.851217   -0.404282
     10          7           0       -2.663949   -1.749225   -0.694209
     11          6           0        4.657896   -1.351311   -0.086416
     12          6           0        4.361996   -0.569184    1.298626
     13          6           0        2.896669   -0.242349    1.395772
     14          6           0        1.859722   -0.843226    2.142878
     15          6           0        0.604972   -0.121177    1.754056
     16          6           0        0.976883    0.926720    0.819715
     17          6           0        6.154440   -1.469679   -0.228837
     18          6           0       -0.710024   -0.332829    2.466194
     19          6           0        6.624538   -0.817857   -1.350720
     20          6           0        0.228394    1.968619    0.182761
     21          6           0       -1.034459    1.934486   -0.265177
     22          6           0        5.479398   -0.358543   -2.132339
     23          6           0       -1.854630    2.957419   -0.837302
     24          6           0        2.117601   -2.050593    3.026468
     25          6           0        6.981188   -2.170934    0.913268
     26          6           0       -3.096602    2.514225   -1.272343
     27          6           0       -1.171219   -1.824368    2.485215
     28          6           0       -2.942944    1.076052   -1.056490
     29          6           0       -1.427407    4.430984   -0.773184
     30          6           0        7.970246   -0.722779   -1.990007
     31          6           0       -1.386072    5.016856    0.707545
     32          6           0       -4.247142    3.276979   -1.834430
     33          6           0       -4.009856    0.076504   -1.318378
     34          6           0       -2.622108   -1.967862    2.839303
     35          6           0       -3.810599   -1.336070   -1.097422
     36          6           0        9.175672   -0.981636   -1.505545
     37          6           0       -0.985291    6.532682    0.578321
     38          6           0       -4.714225   -2.341644   -1.491756
     39          6           0       -3.921187   -3.590266   -1.250963
     40          6           0       -2.617539   -3.249650   -0.681644
     41          6           0       -6.036831   -2.157000   -1.980185
     42          6           0       -4.490720   -4.976407   -1.405174
     43          6           0       -6.954445   -3.065789   -2.387412
     44          1           0        4.287657   -2.288563   -0.109942
     45          1           0        5.046263    0.455686    1.432689
     46          1           0        4.523785   -1.169216    2.227093
     47          1           0        3.182697    1.439561    0.331941
     48          1           0        3.377412   -0.568751   -1.644769
     49          1           0       -0.504433    0.042081    3.513908
     50          1           0       -1.497444    0.347262    2.173610
     51          1           0        0.847708    2.761601    0.122788
     52          1           0        3.327970   -2.254703    2.883140
     53          1           0        1.733049   -2.172254    4.082553
     54          1           0        1.768352   -2.997995    2.627226
     55          1           0        6.338617   -2.710524    1.652578
     56          1           0        7.659696   -1.367360    1.559867
     57          1           0        7.600440   -2.866937    0.217741
     58          1           0       -1.120339   -2.233061    1.513128
     59          1           0       -0.611056   -2.509204    3.165560
     60          1           0       -1.417589   -0.142221   -0.171079
     61          1           0       -2.057260    5.152375   -1.322665
     62          1           0       -0.338623    4.672477   -1.139253
     63          1           0        7.914795   -0.316720   -2.914536
     64          1           0       -0.601959    4.521907    1.376003
     65          1           0       -2.465407    5.006764    1.134367
     66          1           0       -3.768738    4.303976   -2.072485
     67          1           0       -5.000910    3.191407   -1.134797
     68          1           0       -4.752712    2.735831   -2.852240
     69          1           0       -4.832058    0.448871   -1.699239
     70          1           0        9.460631   -1.361404   -0.423819
     71          1           0       10.159054   -0.543357   -2.048712
     72          1           0       -3.858071   -3.076113    3.659597
     73          1           0       -6.627671   -1.229218   -2.068339
     74          1           0       -5.147772   -5.257655   -0.339318
     75          1           0       -5.038356   -5.110072   -2.470531
     76          1           0       -3.531175   -5.685401   -1.298110
     77          1           0       -0.835195    8.022818    1.483116
     78          1           0       -8.003372   -2.752681   -2.654782
     79          1           0       -6.756007   -4.142867   -2.276939
 ---------------------------------------------------------------------

 SCF Done:  E(RB3LYP) =  -1947.82308102     A.U. after   17 cycles

 Excitation energies and oscillator strengths:

 Excited State   1:      Singlet-A      1.7711 eV  700.03 nm  f=0.2759  <S**2>=0.000
     154 ->156         0.23954
     155 ->156         0.66373
     155 <-156        -0.10829
 This state for optimization and/or second-order correction.
 Total Energy, E(TD-HF/TD-DFT) =  -1947.75799291
 Copying the excited state density for this state as the 1-particle RhoCI density.

 The electronic state is 1-A.
 Alpha  occ. eigenvalues --  -19.18675 -19.17225 -19.15011 -19.12278 -19.12229
 Alpha  occ. eigenvalues --  -19.10199 -14.38967 -14.36832 -14.35546 -14.27115
 Alpha  occ. eigenvalues --  -10.33657 -10.31265 -10.29234 -10.26689 -10.25683
 Alpha  occ. eigenvalues --  -10.24592 -10.24338 -10.24075 -10.23889 -10.23689
 Alpha  occ. eigenvalues --  -10.23630 -10.23171 -10.23149 -10.21867 -10.21687
 Alpha  occ. eigenvalues --  -10.21626 -10.21489 -10.21444 -10.21362 -10.21325
 Alpha  occ. eigenvalues --  -10.21279 -10.21074 -10.21058 -10.20996 -10.20122
 Alpha  occ. eigenvalues --  -10.20059 -10.20022 -10.20007 -10.19979 -10.19881
 Alpha  occ. eigenvalues --  -10.19456 -10.19324 -10.18067  -1.10266  -1.07381
 Alpha  occ. eigenvalues --   -1.06844  -1.01884  -1.00381  -1.00306  -0.98615
 Alpha  occ. eigenvalues --   -0.98331  -0.92387  -0.91581  -0.82647  -0.81904
 Alpha  occ. eigenvalues --   -0.81883  -0.80303  -0.79415  -0.79242  -0.77449
 Alpha  occ. eigenvalues --   -0.76699  -0.76109  -0.75296  -0.73765  -0.72258
 Alpha  occ. eigenvalues --   -0.71577  -0.70867  -0.69619  -0.68362  -0.67249
 Alpha  occ. eigenvalues --   -0.66900  -0.66283  -0.63471  -0.61235  -0.60785
 Alpha  occ. eigenvalues --   -0.58508  -0.58269  -0.57489  -0.57343  -0.56793
 Alpha  occ. eigenvalues --   -0.55402  -0.55089  -0.54765  -0.53801  -0.52929
 Alpha  occ. eigenvalues --   -0.52334  -0.51351  -0.50908  -0.49991  -0.49849
 Alpha  occ. eigenvalues --   -0.49305  -0.48870  -0.48294  -0.48028  -0.47871
 Alpha  occ. eigenvalues --   -0.47334  -0.47189  -0.47142  -0.46591  -0.45863
 Alpha  occ. eigenvalues --   -0.45150  -0.44552  -0.44369  -0.44136  -0.44037
 Alpha  occ. eigenvalues --   -0.43739  -0.42842  -0.42580  -0.42548  -0.42396
 Alpha  occ. eigenvalues --   -0.42106  -0.41965  -0.41609  -0.41350  -0.41131
 Alpha  occ. eigenvalues --   -0.40922  -0.40703  -0.40315  -0.40242  -0.39686
 Alpha  occ. eigenvalues --   -0.39579  -0.39360  -0.38946  -0.38640  -0.38260
 Alpha  occ. eigenvalues --   -0.38085  -0.37686  -0.37457  -0.37360  -0.37022
 Alpha  occ. eigenvalues --   -0.36786  -0.36182  -0.35914  -0.35294  -0.34874
 Alpha  occ. eigenvalues --   -0.34332  -0.33606  -0.33258  -0.32514  -0.31973
 Alpha  occ. eigenvalues --   -0.31293  -0.31091  -0.29921  -0.29188  -0.28710
 Alpha  occ. eigenvalues --   -0.27393  -0.26715  -0.25752  -0.25587  -0.24934
 Alpha  occ. eigenvalues --   -0.24316  -0.23190  -0.22543  -0.20724  -0.18497
 Alpha virt. eigenvalues --   -0.11042  -0.07249  -0.06690  -0.01654  -0.00388
 Alpha virt. eigenvalues --    0.00292   0.00557   0.00661   0.01801   0.02928
 Alpha virt. eigenvalues --    0.03308   0.04036   0.04420   0.04706   0.05238

 Mulliken charges:
               1
     1  O   -0.263862
     2  O   -0.242060
     3  O   -0.241274
     4  O   -0.182821
     5  O   -0.228037
     6  O   -0.095321
     7  N   -0.101859
     8  N   -0.230351
     9  N   -0.023734
    10  N   -0.333965
    11  C    0.212868
    12  C    0.074853
    13  C   -0.114929
    14  C   -0.086352
    15  C   -0.123526
    16  C    0.024322
    17  C   -0.220949
    18  C    0.079849
    19  C   -0.024974
    20  C   -0.027784
    21  C    0.131805
    22  C    0.182475
    23  C   -0.048055
    24  C    0.024156
    25  C   -0.004278
    26  C   -0.130579
    27  C    0.054560
    28  C    0.049501
    29  C    0.015667
    30  C    0.084899
    31  C   -0.053386
    32  C    0.077255
    33  C   -0.022362
    34  C    0.139759
    35  C    0.106538
    36  C   -0.112452
    37  C    0.151771
    38  C    0.122471
    39  C   -0.211991
    40  C    0.174563
    41  C   -0.067634
    42  C   -0.053131
    43  C   -0.077333
    44  H   -0.008141
    45  H    0.039817
    46  H    0.021098
    47  H    0.160008
    48  H    0.124722
    49  H    0.022202
    50  H    0.014747
    51  H   -0.061269
    52  H   -0.001149
    53  H    0.036235
    54  H    0.023818
    55  H    0.032857
    56  H    0.074687
    57  H    0.075119
    58  H    0.038614
    59  H    0.030055
    60  H    0.187415
    61  H    0.014452
    62  H    0.038208
    63  H   -0.025498
    64  H    0.066434
    65  H    0.060953
    66  H    0.050949
    67  H    0.023084
    68  H    0.052630
    69  H   -0.121243
    70  H    0.037259
    71  H    0.051375
    72  H    0.190822
    73  H   -0.005438
    74  H    0.065555
    75  H    0.072726
    76  H    0.041798
    77  H    0.146290
    78  H    0.031370
    79  H    0.013124
 Sum of Mulliken charges =  -0.00000

 Dipole moment (field-independent basis, Debye):
    X=              1.4404    Y=              1.2316    Z=              4.6160  Tot=              4.9899
 Quadrupole moment (field-independent basis, Debye-Ang):
   XX=           -224.0597   YY=           -251.3626   ZZ=           -266.8330
   XY=            -11.9976   XZ=             31.5038   YZ=              1.2010

 Normal termination of Gaussian 16 at Fri Sep 13 06:34:13 2019.
