 Gaussian 16, Revision A.03,
 Gaussian 16:  ES64L-G16RevA.03 25-Dec-2016

 --------------------------
 # td=(NStates=1) B3LYP/SVP
 --------------------------

 --
 TD
 --
 Symbolic Z-matrix:
 Charge =  0 Multiplicity = 1

                         Standard orientation:
 ---------------------------------------------------------------------
 Center     Atomic      Atomic             Coordinates (Angstroms)
 Number     Number       Type             X           Y           Z
 ---------------------------------------------------------------------
      1          8           0        5.311977   -0.009481   -3.242184
      2          8           0       -3.025061   -2.829969    3.263262
      3          8           0       -3.264150   -0.634096    3.055531
      4          8           0       -1.402209    7.085948    1.456600
      5          8           0       -0.404012    7.059465   -0.485276
      6          8           0       -1.863250   -4.032883   -0.063603
      7          7           0        2.464917    0.979406    0.663446
      8          7           0        4.422890   -0.589467   -1.193672
      9          7           0       -1.784958    0.619784   -0.445270
     10          7           0       -2.667585   -1.911035   -0.632504
     11          6           0        4.769560   -1.337580    0.018476
     12          6           0        4.437037   -0.507863    1.225662
     13          6           0        3.002899   -0.039622    1.389861
     14          6           0        1.992526   -0.677817    2.163728
     15          6           0        0.717279    0.072656    1.790953
     16          6           0        1.094406    1.075149    0.811613
     17          6           0        6.256680   -1.394632   -0.207289
     18          6           0       -0.516428   -0.131757    2.497109
     19          6           0        6.608137   -0.898802   -1.391735
     20          6           0        0.248275    1.964046    0.145495
     21          6           0       -1.030160    1.789317   -0.374913
     22          6           0        5.400539   -0.457110   -2.135242
     23          6           0       -1.954476    2.944954   -0.901866
     24          6           0        2.108288   -1.778872    3.064005
     25          6           0        7.154903   -2.134169    0.819816
     26          6           0       -3.082815    2.318112   -1.358359
     27          6           0       -1.200101   -1.560737    2.461677
     28          6           0       -3.064872    0.862577   -0.984404
     29          6           0       -1.528387    4.389308   -0.968380
     30          6           0        7.929915   -0.842105   -2.029795
     31          6           0       -1.528654    5.052893    0.498767
     32          6           0       -4.311448    3.077797   -1.875100
     33          6           0       -4.027706   -0.058314   -1.240890
     34          6           0       -2.574513   -1.600048    2.950357
     35          6           0       -3.787458   -1.511594   -1.083325
     36          6           0        9.099488   -0.996012   -1.418188
     37          6           0       -1.104599    6.537641    0.351936
     38          6           0       -4.642063   -2.527445   -1.454089
     39          6           0       -4.007734   -3.727654   -1.069351
     40          6           0       -2.743039   -3.360974   -0.393087
     41          6           0       -5.898392   -2.307582   -2.068615
     42          6           0       -4.541153   -5.127268   -1.072496
     43          6           0       -6.838790   -3.230209   -2.406113
     44          1           0        3.886491   -2.227066    0.029211
     45          1           0        5.155819    0.270651    1.085421
     46          1           0        4.591901   -1.016829    2.172834
     47          1           0        2.811036    1.643836   -0.035647
     48          1           0        3.375033   -0.844042   -1.638184
     49          1           0       -0.444545    0.230041    3.544124
     50          1           0       -1.373957    0.520978    2.322922
     51          1           0        0.684422    2.926207   -0.146449
     52          1           0        3.006701   -1.995681    3.427793
     53          1           0        1.450576   -1.509894    3.959089
     54          1           0        1.698425   -2.810320    2.758328
     55          1           0        6.548836   -2.952711    1.591871
     56          1           0        7.414872   -1.292684    1.387952
     57          1           0        7.968784   -2.674069    0.467980
     58          1           0       -0.976519   -1.891275    1.350792
     59          1           0       -0.685704   -2.403865    2.965243
     60          1           0       -1.480059   -0.309404   -0.487022
     61          1           0       -2.382959    5.043042   -1.438153
     62          1           0       -0.441193    4.345996   -1.393374
     63          1           0        7.830650   -0.922615   -3.126552
     64          1           0       -0.809330    4.653543    1.249622
     65          1           0       -2.599856    4.793880    0.777534
     66          1           0       -4.248428    4.080837   -2.101766
     67          1           0       -5.257941    3.253675   -1.232698
     68          1           0       -4.581735    2.639030   -2.725228
     69          1           0       -4.958664    0.260851   -1.715325
     70          1           0        9.094080   -1.231524   -0.436486
     71          1           0       10.073818   -0.950126   -1.947868
     72          1           0       -3.902901   -2.624649    3.388549
     73          1           0       -6.164623   -1.253397   -2.366733
     74          1           0       -5.857221   -5.148353   -0.686419
     75          1           0       -4.649046   -5.636341   -2.041448
     76          1           0       -4.002326   -5.982426   -0.468684
     77          1           0       -1.094810    8.088325    1.542534
     78          1           0       -7.563090   -2.896208   -3.062622
     79          1           0       -6.612624   -4.237805   -2.127096
 ---------------------------------------------------------------------

 SCF Done:  E(RB3LYP) =  -1947.81733627     A.U. after   16 cycles

 Excitation energies and oscillator strengths:

 Excited State   1:      Singlet-A      1.7429 eV  711.37 nm  f=0.3041  <S**2>=0.000
     154 ->156         0.12999
     155 ->156         0.69566
     155 <-156        -0.10727
 This state for optimization and/or second-order correction.
 Total Energy, E(TD-HF/TD-DFT) =  -1947.75328590
 Copying the excited state density for this state as the 1-particle RhoCI density.

 The electronic state is 1-A.
 Alpha  occ. eigenvalues --  -19.19748 -19.16845 -19.12600 -19.12394 -19.11396
 Alpha  occ. eigenvalues --  -19.10368 -14.38047 -14.35887 -14.35435 -14.28087
 Alpha  occ. eigenvalues --  -10.32175 -10.30340 -10.28107 -10.27293 -10.25649
 Alpha  occ. eigenvalues --  -10.24607 -10.24541 -10.23002 -10.22498 -10.22370
 Alpha  occ. eigenvalues --  -10.22365 -10.22317 -10.22164 -10.21952 -10.21564
 Alpha  occ. eigenvalues --  -10.21551 -10.21099 -10.20697 -10.20678 -10.20599
 Alpha  occ. eigenvalues --  -10.20346 -10.20021 -10.19988 -10.19983 -10.19121
 Alpha  occ. eigenvalues --  -10.19078 -10.19005 -10.18989 -10.18913 -10.18873
 Alpha  occ. eigenvalues --  -10.18848 -10.18703 -10.18205  -1.12202  -1.10684
 Alpha  occ. eigenvalues --   -1.06299  -1.03593  -1.00762  -1.00695  -0.97683
 Alpha  occ. eigenvalues --   -0.96339  -0.94660  -0.93838  -0.82050  -0.81713
 Alpha  occ. eigenvalues --   -0.81252  -0.80810  -0.80610  -0.79318  -0.77331
 Alpha  occ. eigenvalues --   -0.76831  -0.76125  -0.75465  -0.74387  -0.72328
 Alpha  occ. eigenvalues --   -0.71540  -0.71442  -0.70600  -0.69257  -0.68321
 Alpha  occ. eigenvalues --   -0.66989  -0.65663  -0.64136  -0.61113  -0.61079
 Alpha  occ. eigenvalues --   -0.60319  -0.58603  -0.58119  -0.57120  -0.56696
 Alpha  occ. eigenvalues --   -0.56397  -0.55257  -0.54748  -0.54136  -0.53894
 Alpha  occ. eigenvalues --   -0.52770  -0.51854  -0.50816  -0.50308  -0.49916
 Alpha  occ. eigenvalues --   -0.49142  -0.48819  -0.48411  -0.48103  -0.48048
 Alpha  occ. eigenvalues --   -0.47323  -0.47065  -0.46856  -0.46339  -0.45707
 Alpha  occ. eigenvalues --   -0.45540  -0.45113  -0.44587  -0.44368  -0.43884
 Alpha  occ. eigenvalues --   -0.43750  -0.43397  -0.43078  -0.42930  -0.42719
 Alpha  occ. eigenvalues --   -0.42501  -0.42227  -0.41862  -0.41432  -0.41060
 Alpha  occ. eigenvalues --   -0.40608  -0.40259  -0.40035  -0.39722  -0.39540
 Alpha  occ. eigenvalues --   -0.39292  -0.38999  -0.38817  -0.38475  -0.38306
 Alpha  occ. eigenvalues --   -0.37767  -0.37674  -0.37061  -0.36989  -0.36772
 Alpha  occ. eigenvalues --   -0.36224  -0.36044  -0.35538  -0.35133  -0.35107
 Alpha  occ. eigenvalues --   -0.34336  -0.33532  -0.32669  -0.31701  -0.31468
 Alpha  occ. eigenvalues --   -0.30854  -0.30662  -0.29258  -0.28500  -0.28441
 Alpha  occ. eigenvalues --   -0.27349  -0.26512  -0.25803  -0.25711  -0.24828
 Alpha  occ. eigenvalues --   -0.24084  -0.23743  -0.22764  -0.21743  -0.18267
 Alpha virt. eigenvalues --   -0.11267  -0.06339  -0.05885  -0.00535   0.00405
 Alpha virt. eigenvalues --    0.00647   0.01109   0.01229   0.01751   0.02440
 Alpha virt. eigenvalues --    0.02808   0.03360   0.03754   0.03967   0.04906

 Mulliken charges:
               1
     1  O   -0.189062
     2  O   -0.130675
     3  O   -0.220635
     4  O   -0.155048
     5  O   -0.232352
     6  O   -0.110095
     7  N   -0.030145
     8  N   -0.262276
     9  N   -0.060761
    10  N   -0.287734
    11  C    0.027643
    12  C    0.254749
    13  C   -0.103283
    14  C   -0.121484
    15  C   -0.064270
    16  C    0.056646
    17  C   -0.179327
    18  C    0.045507
    19  C   -0.048220
    20  C   -0.092092
    21  C    0.077051
    22  C    0.141431
    23  C   -0.080409
    24  C    0.116557
    25  C    0.082401
    26  C   -0.109617
    27  C   -0.061358
    28  C    0.131275
    29  C    0.048218
    30  C   -0.016517
    31  C   -0.079152
    32  C    0.141280
    33  C   -0.091507
    34  C    0.126959
    35  C    0.043221
    36  C    0.023482
    37  C    0.120395
    38  C    0.104692
    39  C   -0.151784
    40  C    0.153618
    41  C   -0.113566
    42  C   -0.048738
    43  C    0.059693
    44  H    0.047331
    45  H   -0.036418
    46  H   -0.002001
    47  H    0.123309
    48  H    0.168000
    49  H    0.001383
    50  H    0.004985
    51  H   -0.027234
    52  H   -0.046585
    53  H    0.021547
    54  H    0.037665
    55  H    0.042194
    56  H    0.028114
    57  H    0.033545
    58  H    0.093070
    59  H    0.012913
    60  H    0.120453
    61  H    0.038857
    62  H    0.057887
    63  H    0.019473
    64  H    0.062323
    65  H    0.054654
    66  H   -0.034404
    67  H    0.030456
    68  H   -0.014698
    69  H   -0.029666
    70  H   -0.034244
    71  H    0.034180
    72  H    0.132137
    73  H   -0.002052
    74  H    0.040617
    75  H    0.039385
    76  H    0.051417
    77  H    0.217858
    78  H    0.005081
    79  H   -0.006241
 Sum of Mulliken charges =  -0.00000

 Dipole moment (field-independent basis, Debye):
    X=             -0.3372    Y=              1.2289    Z=              2.6802  Tot=              2.9677
 Quadrupole moment (field-independent basis, Debye-Ang):
   XX=           -220.2602   YY=           -235.5571   ZZ=           -263.5834
   XY=            -16.4817   XZ=             31.0157   YZ=             11.2584

 Normal termination of Gaussian 16 at Sat Oct  5 02:35:14 2019.
