 Gaussian 16, Revision A.03,
 Gaussian 16:  ES64L-G16RevA.03 25-Dec-2016

 --------------------------
 # td=(NStates=1) B3LYP/SVP
 --------------------------

 --
 TD
 --
 Symbolic Z-matrix:
 Charge =  0 Multiplicity = 1

                         Standard orientation:
 ---------------------------------------------------------------------
 Center     Atomic      Atomic             Coordinates (Angstroms)
 Number     Number       Type             X           Y           Z
 ---------------------------------------------------------------------
      1          8           0       -3.371346   -0.811840   -2.872979
      2          8           0        3.669332    2.443168    3.221754
      3          8           0        4.005747    0.645508    4.652024
      4          8           0        7.662154   -1.568392   -1.012321
      5          8           0        6.566173   -2.676667   -2.650955
      6          8           0       -2.597124    1.454920    1.784205
      7          7           0       -0.277387   -2.381060    0.447449
      8          7           0       -2.771900   -0.984727   -0.596201
      9          7           0        1.192086    0.321804   -0.727202
     10          7           0       -1.171455    1.426416   -0.048886
     11          6           0       -3.461131   -1.427675    0.657950
     12          6           0       -2.613003   -2.541118    1.328377
     13          6           0       -1.226058   -2.161405    1.454501
     14          6           0       -0.516174   -1.436524    2.615887
     15          6           0        0.869022   -1.395915    2.170138
     16          6           0        0.958458   -1.996251    0.843642
     17          6           0       -4.794898   -1.986006    0.117732
     18          6           0        2.071405   -0.937767    3.007836
     19          6           0       -4.851451   -1.873375   -1.222896
     20          6           0        2.057036   -1.816736   -0.091864
     21          6           0        2.056794   -0.668149   -0.849147
     22          6           0       -3.634786   -1.205322   -1.729410
     23          6           0        2.945637   -0.266505   -1.908734
     24          6           0       -1.144595   -1.100025    3.822717
     25          6           0       -5.802169   -2.432860    1.118030
     26          6           0        2.477291    0.978599   -2.327453
     27          6           0        2.268744    0.568489    2.885434
     28          6           0        1.255305    1.237689   -1.596861
     29          6           0        4.115603   -1.083952   -2.386506
     30          6           0       -5.842523   -2.292958   -2.193169
     31          6           0        5.254688   -0.972816   -1.375150
     32          6           0        3.207008    1.829600   -3.376696
     33          6           0        0.354394    2.275997   -1.760077
     34          6           0        3.436574    1.169748    3.662148
     35          6           0       -0.773553    2.416157   -0.913597
     36          6           0       -6.858531   -3.193884   -2.056621
     37          6           0        6.555760   -1.850925   -1.673884
     38          6           0       -1.596903    3.599452   -0.786876
     39          6           0       -2.448244    3.383732    0.280868
     40          6           0       -2.092968    1.992612    0.825979
     41          6           0       -1.456423    4.780544   -1.647223
     42          6           0       -3.448799    4.278033    0.970962
     43          6           0       -2.276447    5.861117   -1.575666
     44          1           0       -3.711172   -0.374127    1.235559
     45          1           0       -2.597553   -3.425416    0.789751
     46          1           0       -2.929046   -2.608338    2.426120
     47          1           0       -0.513159   -2.632639   -0.512355
     48          1           0       -2.016579   -0.114881   -0.559039
     49          1           0        2.082414   -1.321307    4.006746
     50          1           0        2.829976   -1.383710    2.720321
     51          1           0        2.888637   -2.543035   -0.403969
     52          1           0       -1.850715   -1.790529    4.123475
     53          1           0       -0.352095   -0.934135    4.622604
     54          1           0       -1.771336   -0.210615    3.542101
     55          1           0       -5.629942   -1.898062    2.096934
     56          1           0       -5.586041   -3.555022    1.473198
     57          1           0       -6.833445   -2.314487    0.811655
     58          1           0        2.461225    0.725846    1.826102
     59          1           0        1.454611    1.263839    3.116109
     60          1           0        0.411975    0.235294    0.026115
     61          1           0        4.624663   -0.550934   -3.417313
     62          1           0        4.037780   -2.254910   -2.634475
     63          1           0       -5.451748   -2.051969   -3.327706
     64          1           0        4.905357   -1.403885   -0.377412
     65          1           0        5.610242    0.229163   -1.030764
     66          1           0        4.003998    1.455044   -3.979024
     67          1           0        3.444636    2.766440   -2.813520
     68          1           0        2.379113    1.989010   -4.298690
     69          1           0        0.653408    3.167409   -2.392809
     70          1           0       -7.310611   -3.512425   -0.973791
     71          1           0       -7.432221   -3.542352   -2.993858
     72          1           0        4.168020    2.830574    3.836074
     73          1           0       -0.547824    4.829390   -2.403190
     74          1           0       -4.481369    4.484332    0.633526
     75          1           0       -3.654741    3.804481    2.052880
     76          1           0       -2.853725    5.349669    1.140876
     77          1           0        8.350306   -2.109821   -1.359249
     78          1           0       -2.089143    6.535001   -2.381464
     79          1           0       -3.243164    5.906892   -0.863703
 ---------------------------------------------------------------------

 SCF Done:  E(RB3LYP) =  -1947.83074165     A.U. after   19 cycles

 Excitation energies and oscillator strengths:

 Excited State   1:      Singlet-A      0.8561 eV 1448.30 nm  f=0.0002  <S**2>=0.000
     155 ->156         0.70379
 This state for optimization and/or second-order correction.
 Total Energy, E(TD-HF/TD-DFT) =  -1947.79928175
 Copying the excited state density for this state as the 1-particle RhoCI density.

 The electronic state is 1-A.
 Alpha  occ. eigenvalues --  -19.20841 -19.18345 -19.13337 -19.13011 -19.12542
 Alpha  occ. eigenvalues --  -19.07929 -14.38263 -14.37717 -14.31394 -14.30851
 Alpha  occ. eigenvalues --  -10.34341 -10.32632 -10.28406 -10.26675 -10.26140
 Alpha  occ. eigenvalues --  -10.25449 -10.24995 -10.24871 -10.24454 -10.23283
 Alpha  occ. eigenvalues --  -10.23079 -10.22880 -10.22760 -10.22749 -10.22146
 Alpha  occ. eigenvalues --  -10.22051 -10.21780 -10.21417 -10.21383 -10.21254
 Alpha  occ. eigenvalues --  -10.20996 -10.20767 -10.20320 -10.20266 -10.20209
 Alpha  occ. eigenvalues --  -10.19819 -10.19507 -10.19471 -10.18533 -10.18312
 Alpha  occ. eigenvalues --  -10.18113 -10.17513 -10.17187  -1.12242  -1.10324
 Alpha  occ. eigenvalues --   -1.04504  -1.03875  -0.99583  -0.99025  -0.98606
 Alpha  occ. eigenvalues --   -0.96319  -0.93543  -0.88956  -0.84188  -0.83171
 Alpha  occ. eigenvalues --   -0.81152  -0.80858  -0.79503  -0.78750  -0.78265
 Alpha  occ. eigenvalues --   -0.77213  -0.76265  -0.75224  -0.74007  -0.72690
 Alpha  occ. eigenvalues --   -0.71594  -0.70889  -0.69481  -0.69113  -0.68312
 Alpha  occ. eigenvalues --   -0.67720  -0.65375  -0.62862  -0.62456  -0.61029
 Alpha  occ. eigenvalues --   -0.60714  -0.59725  -0.57947  -0.57478  -0.56675
 Alpha  occ. eigenvalues --   -0.56512  -0.55310  -0.54650  -0.53249  -0.52752
 Alpha  occ. eigenvalues --   -0.52086  -0.50672  -0.49823  -0.49620  -0.49537
 Alpha  occ. eigenvalues --   -0.49167  -0.48693  -0.48424  -0.48200  -0.47836
 Alpha  occ. eigenvalues --   -0.47575  -0.47248  -0.46434  -0.45928  -0.45635
 Alpha  occ. eigenvalues --   -0.45226  -0.44840  -0.44447  -0.44277  -0.43824
 Alpha  occ. eigenvalues --   -0.43535  -0.43359  -0.42935  -0.42601  -0.42173
 Alpha  occ. eigenvalues --   -0.41797  -0.41558  -0.41379  -0.41366  -0.40920
 Alpha  occ. eigenvalues --   -0.40551  -0.40445  -0.40104  -0.40083  -0.39790
 Alpha  occ. eigenvalues --   -0.39493  -0.39123  -0.38590  -0.38232  -0.37848
 Alpha  occ. eigenvalues --   -0.37700  -0.37438  -0.37244  -0.36871  -0.36643
 Alpha  occ. eigenvalues --   -0.35987  -0.35843  -0.35234  -0.34839  -0.34638
 Alpha  occ. eigenvalues --   -0.34150  -0.32594  -0.32538  -0.32423  -0.32072
 Alpha  occ. eigenvalues --   -0.31335  -0.30028  -0.29520  -0.29338  -0.28614
 Alpha  occ. eigenvalues --   -0.28008  -0.27250  -0.25984  -0.23806  -0.23616
 Alpha  occ. eigenvalues --   -0.23126  -0.22689  -0.22318  -0.21874  -0.18464
 Alpha virt. eigenvalues --   -0.12717  -0.07691  -0.04342  -0.02585  -0.01844
 Alpha virt. eigenvalues --   -0.00964   0.00863   0.01831   0.02470   0.03044
 Alpha virt. eigenvalues --    0.03995   0.04597   0.04784   0.05076   0.05202

 Mulliken charges:
               1
     1  O   -0.257045
     2  O   -0.134296
     3  O   -0.263450
     4  O   -0.117105
     5  O   -0.299104
     6  O   -0.193001
     7  N   -0.043112
     8  N   -0.354752
     9  N    0.044196
    10  N   -0.360167
    11  C    0.012297
    12  C    0.303780
    13  C   -0.161611
    14  C   -0.083112
    15  C   -0.195182
    16  C   -0.004687
    17  C   -0.176934
    18  C    0.303084
    19  C   -0.022756
    20  C   -0.086462
    21  C   -0.000140
    22  C    0.170997
    23  C   -0.001183
    24  C    0.111324
    25  C    0.062638
    26  C   -0.136903
    27  C   -0.004881
    28  C    0.087460
    29  C   -0.003488
    30  C   -0.037915
    31  C   -0.109675
    32  C    0.050275
    33  C   -0.122956
    34  C    0.140002
    35  C    0.109366
    36  C   -0.103530
    37  C    0.164212
    38  C    0.067347
    39  C   -0.163067
    40  C    0.182034
    41  C   -0.072107
    42  C   -0.042125
    43  C   -0.029210
    44  H    0.086612
    45  H   -0.039350
    46  H   -0.001566
    47  H    0.123140
    48  H    0.208963
    49  H   -0.004462
    50  H   -0.113954
    51  H    0.020066
    52  H   -0.015768
    53  H    0.019395
    54  H    0.041566
    55  H    0.019364
    56  H    0.041128
    57  H    0.035806
    58  H    0.015074
    59  H    0.046224
    60  H    0.212210
    61  H    0.046682
    62  H    0.081841
    63  H    0.046941
    64  H    0.051508
    65  H    0.069850
    66  H    0.022270
    67  H    0.049844
    68  H    0.049330
    69  H   -0.000312
    70  H    0.038773
    71  H    0.042375
    72  H    0.127755
    73  H    0.028820
    74  H    0.060359
    75  H    0.048514
    76  H    0.055349
    77  H    0.176126
    78  H    0.018836
    79  H    0.061637
 Sum of Mulliken charges =  -0.00000

 Dipole moment (field-independent basis, Debye):
    X=              3.6195    Y=              3.2788    Z=              0.1215  Tot=              4.8853
 Quadrupole moment (field-independent basis, Debye-Ang):
   XX=           -236.0635   YY=           -234.5596   ZZ=           -275.4643
   XY=              7.0582   XZ=            -23.3193   YZ=             -9.7157

 Normal termination of Gaussian 16 at Tue Jul 30 20:49:37 2019.
