 Gaussian 16, Revision A.03,
 Gaussian 16:  ES64L-G16RevA.03 25-Dec-2016

 --------------------------
 # td=(NStates=1) B3LYP/SVP
 --------------------------

 --
 TD
 --
 Symbolic Z-matrix:
 Charge =  0 Multiplicity = 1

                         Standard orientation:
 ---------------------------------------------------------------------
 Center     Atomic      Atomic             Coordinates (Angstroms)
 Number     Number       Type             X           Y           Z
 ---------------------------------------------------------------------
      1          8           0       -3.229706   -1.062578   -2.968716
      2          8           0        3.149340    2.670584    3.299045
      3          8           0        3.821307    0.810477    4.323824
      4          8           0        7.629379   -1.588175   -0.760613
      5          8           0        6.675008   -2.663057   -2.515818
      6          8           0       -2.685388    1.567595    1.547346
      7          7           0       -0.332050   -2.491280    0.656192
      8          7           0       -2.706524   -1.115192   -0.703120
      9          7           0        1.174986    0.207409   -0.574984
     10          7           0       -0.996451    1.531701   -0.131399
     11          6           0       -3.351047   -1.311531    0.574363
     12          6           0       -2.662063   -2.541274    1.377113
     13          6           0       -1.201044   -2.215253    1.641170
     14          6           0       -0.625760   -1.441437    2.695443
     15          6           0        0.739470   -1.484109    2.367210
     16          6           0        0.970234   -2.103335    1.103086
     17          6           0       -4.720082   -1.888810    0.028098
     18          6           0        1.801736   -0.773022    3.179099
     19          6           0       -4.765071   -1.948257   -1.306034
     20          6           0        2.067263   -1.998999    0.109897
     21          6           0        2.052243   -0.832442   -0.700583
     22          6           0       -3.569621   -1.289812   -1.847311
     23          6           0        3.013666   -0.439439   -1.751894
     24          6           0       -1.418623   -0.870695    3.761390
     25          6           0       -5.816724   -2.417227    1.049083
     26          6           0        2.590560    0.775138   -2.307577
     27          6           0        1.958709    0.776004    2.761744
     28          6           0        1.307976    1.135467   -1.660981
     29          6           0        4.234941   -1.330480   -2.089907
     30          6           0       -5.738568   -2.409881   -2.186250
     31          6           0        5.436541   -0.925792   -1.261839
     32          6           0        3.264475    1.505335   -3.387081
     33          6           0        0.508366    2.264459   -1.919753
     34          6           0        3.050293    1.382165    3.582993
     35          6           0       -0.587044    2.520675   -0.923770
     36          6           0       -6.775081   -3.192963   -2.017325
     37          6           0        6.596931   -1.803894   -1.601344
     38          6           0       -1.433878    3.695274   -0.813180
     39          6           0       -2.426737    3.457424    0.144775
     40          6           0       -2.161431    2.056154    0.617627
     41          6           0       -1.318577    4.792971   -1.741518
     42          6           0       -3.485308    4.388115    0.745160
     43          6           0       -1.896212    5.999595   -1.816870
     44          1           0       -3.483587   -0.417790    1.134993
     45          1           0       -2.809130   -3.415944    0.810846
     46          1           0       -3.085798   -2.451983    2.298433
     47          1           0       -0.509215   -2.913929   -0.132918
     48          1           0       -1.840574   -0.481492   -0.809150
     49          1           0        1.724408   -0.835913    4.319195
     50          1           0        2.739531   -1.500942    2.894597
     51          1           0        2.879773   -2.876531   -0.101002
     52          1           0       -1.788106   -1.813056    4.515901
     53          1           0       -0.546773   -0.229355    4.409054
     54          1           0       -2.099638   -0.104531    3.450507
     55          1           0       -5.709018   -1.822930    2.055345
     56          1           0       -5.602559   -3.568114    1.053652
     57          1           0       -6.647511   -2.315115    0.596218
     58          1           0        2.037391    1.056809    1.645432
     59          1           0        1.047694    1.243524    3.008372
     60          1           0        0.359943    0.438138   -0.286994
     61          1           0        4.361704   -1.175996   -3.102446
     62          1           0        3.914135   -2.279433   -1.925867
     63          1           0       -5.684302   -2.145941   -3.259356
     64          1           0        5.161300   -1.284491   -0.112613
     65          1           0        5.768456    0.114486   -1.196168
     66          1           0        3.991032    0.999106   -3.897835
     67          1           0        3.863021    2.487350   -2.990970
     68          1           0        2.445851    1.895865   -4.322147
     69          1           0        0.574781    2.871219   -2.727345
     70          1           0       -6.993522   -3.507295   -1.003244
     71          1           0       -7.557448   -3.396901   -2.776185
     72          1           0        4.128218    3.055941    3.787669
     73          1           0       -0.441283    4.836673   -2.426409
     74          1           0       -4.318151    4.750929    0.023821
     75          1           0       -4.002445    3.989154    1.755128
     76          1           0       -2.891823    5.455915    1.195920
     77          1           0        8.555422   -2.025717   -0.896866
     78          1           0       -1.499820    6.852764   -2.546989
     79          1           0       -2.744398    6.527557   -0.998149
 ---------------------------------------------------------------------

 SCF Done:  E(RB3LYP) =  -1947.75425016     A.U. after   17 cycles

 Excitation energies and oscillator strengths:

 Excited State   1:      Singlet-A      0.9493 eV 1306.04 nm  f=0.0002  <S**2>=0.000
     155 ->156         0.70253
 This state for optimization and/or second-order correction.
 Total Energy, E(TD-HF/TD-DFT) =  -1947.71936344
 Copying the excited state density for this state as the 1-particle RhoCI density.

 The electronic state is 1-A.
 Alpha  occ. eigenvalues --  -19.18671 -19.18342 -19.14543 -19.12638 -19.11269
 Alpha  occ. eigenvalues --  -19.08984 -14.35975 -14.35698 -14.32154 -14.31685
 Alpha  occ. eigenvalues --  -10.33032 -10.30566 -10.29795 -10.26634 -10.26532
 Alpha  occ. eigenvalues --  -10.25939 -10.25739 -10.23823 -10.23388 -10.23191
 Alpha  occ. eigenvalues --  -10.23108 -10.22775 -10.22595 -10.22540 -10.22433
 Alpha  occ. eigenvalues --  -10.22310 -10.22292 -10.21881 -10.21313 -10.20938
 Alpha  occ. eigenvalues --  -10.20478 -10.20466 -10.20042 -10.20015 -10.19933
 Alpha  occ. eigenvalues --  -10.19863 -10.19649 -10.18604 -10.17953 -10.17916
 Alpha  occ. eigenvalues --  -10.17683 -10.17444 -10.16310  -1.08147  -1.08071
 Alpha  occ. eigenvalues --   -1.07277  -1.01900  -0.99112  -0.98572  -0.98490
 Alpha  occ. eigenvalues --   -0.96524  -0.93848  -0.90696  -0.83806  -0.81770
 Alpha  occ. eigenvalues --   -0.81126  -0.81022  -0.79923  -0.79139  -0.77672
 Alpha  occ. eigenvalues --   -0.76300  -0.75423  -0.75093  -0.74127  -0.72436
 Alpha  occ. eigenvalues --   -0.70826  -0.70379  -0.70029  -0.69735  -0.67062
 Alpha  occ. eigenvalues --   -0.66151  -0.65067  -0.63406  -0.61670  -0.60428
 Alpha  occ. eigenvalues --   -0.59522  -0.59025  -0.57755  -0.57464  -0.56017
 Alpha  occ. eigenvalues --   -0.55581  -0.55379  -0.54630  -0.53210  -0.52701
 Alpha  occ. eigenvalues --   -0.51839  -0.51127  -0.50921  -0.50117  -0.49548
 Alpha  occ. eigenvalues --   -0.48873  -0.48479  -0.48116  -0.47311  -0.47038
 Alpha  occ. eigenvalues --   -0.46789  -0.46599  -0.46269  -0.45837  -0.45503
 Alpha  occ. eigenvalues --   -0.45000  -0.44800  -0.44591  -0.44403  -0.44111
 Alpha  occ. eigenvalues --   -0.43547  -0.42965  -0.42376  -0.42099  -0.41789
 Alpha  occ. eigenvalues --   -0.41775  -0.41473  -0.41118  -0.40963  -0.40824
 Alpha  occ. eigenvalues --   -0.40519  -0.40363  -0.39986  -0.39875  -0.39296
 Alpha  occ. eigenvalues --   -0.38929  -0.38718  -0.38253  -0.38118  -0.37894
 Alpha  occ. eigenvalues --   -0.37620  -0.37281  -0.37199  -0.37053  -0.36202
 Alpha  occ. eigenvalues --   -0.35841  -0.35802  -0.35441  -0.34705  -0.34049
 Alpha  occ. eigenvalues --   -0.33147  -0.32736  -0.32217  -0.31890  -0.31491
 Alpha  occ. eigenvalues --   -0.31208  -0.30971  -0.29953  -0.29120  -0.28048
 Alpha  occ. eigenvalues --   -0.27231  -0.26801  -0.26321  -0.24846  -0.24270
 Alpha  occ. eigenvalues --   -0.23868  -0.23094  -0.22656  -0.21713  -0.18587
 Alpha virt. eigenvalues --   -0.12775  -0.08117  -0.04119  -0.02154  -0.01450
 Alpha virt. eigenvalues --   -0.00226   0.01627   0.01786   0.02193   0.02368
 Alpha virt. eigenvalues --    0.02878   0.03336   0.03379   0.04041   0.04816

 Mulliken charges:
               1
     1  O   -0.195031
     2  O   -0.253824
     3  O   -0.237992
     4  O   -0.235613
     5  O   -0.264739
     6  O   -0.138008
     7  N    0.000148
     8  N   -0.299018
     9  N    0.015963
    10  N   -0.347718
    11  C    0.099255
    12  C    0.318735
    13  C   -0.145542
    14  C   -0.076018
    15  C   -0.104640
    16  C    0.023288
    17  C   -0.271982
    18  C    0.012333
    19  C    0.065812
    20  C   -0.155562
    21  C    0.143127
    22  C    0.145280
    23  C   -0.154875
    24  C    0.000291
    25  C    0.132563
    26  C   -0.077572
    27  C    0.005869
    28  C    0.087216
    29  C    0.268259
    30  C   -0.049416
    31  C   -0.058075
    32  C    0.015392
    33  C   -0.014184
    34  C    0.141757
    35  C    0.065057
    36  C   -0.045248
    37  C    0.171259
    38  C    0.078249
    39  C   -0.138356
    40  C    0.191944
    41  C   -0.009651
    42  C   -0.060748
    43  C   -0.146690
    44  H    0.026031
    45  H   -0.032638
    46  H   -0.045053
    47  H    0.053313
    48  H    0.155228
    49  H    0.032221
    50  H    0.026205
    51  H    0.051565
    52  H    0.051442
    53  H    0.010174
    54  H    0.040698
    55  H    0.048391
    56  H    0.051058
    57  H   -0.020767
    58  H    0.059889
    59  H    0.012614
    60  H    0.043131
    61  H   -0.007621
    62  H   -0.018718
    63  H   -0.000563
    64  H    0.076674
    65  H    0.050652
    66  H   -0.005527
    67  H    0.049441
    68  H    0.052826
    69  H   -0.050926
    70  H   -0.019836
    71  H    0.026183
    72  H    0.242950
    73  H    0.013276
    74  H    0.068206
    75  H    0.061427
    76  H    0.057478
    77  H    0.227267
    78  H    0.055818
    79  H    0.056196
 Sum of Mulliken charges =  -0.00000

 Dipole moment (field-independent basis, Debye):
    X=              2.1520    Y=              4.5362    Z=             -0.3318  Tot=              5.0318
 Quadrupole moment (field-independent basis, Debye-Ang):
   XX=           -226.2007   YY=           -231.3260   ZZ=           -275.1967
   XY=              8.6864   XZ=            -17.0039   YZ=            -10.0213

 Normal termination of Gaussian 16 at Tue Jul 30 17:32:52 2019.
