 Gaussian 16, Revision A.03,
 Gaussian 16:  ES64L-G16RevA.03 25-Dec-2016

 --------------------------
 # td=(NStates=1) B3LYP/SVP
 --------------------------

 --
 TD
 --
 Symbolic Z-matrix:
 Charge =  0 Multiplicity = 1

                         Standard orientation:
 ---------------------------------------------------------------------
 Center     Atomic      Atomic             Coordinates (Angstroms)
 Number     Number       Type             X           Y           Z
 ---------------------------------------------------------------------
      1          8           0       -3.344636   -1.619777   -2.825582
      2          8           0        2.875271    3.312696    2.956552
      3          8           0        3.750309    1.717745    4.240240
      4          8           0        7.739818   -1.690375   -0.676937
      5          8           0        6.585065   -3.297240   -1.716538
      6          8           0       -2.752631    1.699184    1.326433
      7          7           0       -0.337289   -2.303925    1.003839
      8          7           0       -2.631164   -1.350870   -0.585068
      9          7           0        1.163254    0.052709   -0.747576
     10          7           0       -1.010381    1.575500   -0.252819
     11          6           0       -3.332591   -1.231095    0.744022
     12          6           0       -2.678904   -2.132532    1.831897
     13          6           0       -1.257788   -1.862146    1.922920
     14          6           0       -0.597569   -1.065014    2.848053
     15          6           0        0.881474   -1.044757    2.524745
     16          6           0        1.027120   -1.835818    1.319008
     17          6           0       -4.707188   -1.962476    0.332532
     18          6           0        1.924327   -0.261520    3.078653
     19          6           0       -4.796568   -2.237982   -0.972442
     20          6           0        2.066273   -1.969086    0.307933
     21          6           0        2.053392   -0.975411   -0.627289
     22          6           0       -3.553478   -1.718952   -1.627493
     23          6           0        3.034091   -0.730048   -1.725113
     24          6           0       -1.241237   -0.161549    3.954242
     25          6           0       -5.727558   -2.095260    1.436057
     26          6           0        2.596342    0.433301   -2.411299
     27          6           0        1.824700    1.214079    2.731020
     28          6           0        1.383950    0.875259   -1.793314
     29          6           0        4.213746   -1.680407   -1.928493
     30          6           0       -5.869874   -2.678243   -1.784348
     31          6           0        5.538755   -1.181780   -1.187660
     32          6           0        3.261284    1.009340   -3.566994
     33          6           0        0.579169    1.941697   -2.074729
     34          6           0        2.969878    2.070960    3.411216
     35          6           0       -0.587664    2.237311   -1.318720
     36          6           0       -7.066132   -3.344093   -1.609061
     37          6           0        6.667563   -2.180755   -1.196016
     38          6           0       -1.362450    3.500947   -1.373052
     39          6           0       -2.322737    3.440498   -0.440251
     40          6           0       -2.112613    2.078948    0.351884
     41          6           0       -1.224726    4.517866   -2.541680
     42          6           0       -3.432631    4.324073    0.115487
     43          6           0       -1.855322    5.673608   -2.625881
     44          1           0       -3.306808   -0.021481    0.941319
     45          1           0       -2.919277   -2.985015    1.572794
     46          1           0       -2.993556   -1.780290    2.734815
     47          1           0       -0.562693   -2.917281    0.168632
     48          1           0       -1.814731   -0.527825   -0.590859
     49          1           0        2.018967   -0.498695    4.163166
     50          1           0        2.733152   -0.734017    2.715562
     51          1           0        2.900902   -2.762628    0.305028
     52          1           0       -1.761731   -0.764700    4.720001
     53          1           0       -0.591786    0.470358    4.516469
     54          1           0       -2.007611    0.591744    3.681871
     55          1           0       -5.518366   -1.462427    2.210758
     56          1           0       -5.748849   -3.170681    1.796245
     57          1           0       -6.733762   -1.904499    1.036029
     58          1           0        1.982439    1.237208    1.536589
     59          1           0        0.846517    1.644250    2.835907
     60          1           0        0.191071    0.373829   -0.226481
     61          1           0        4.323756   -1.787412   -3.146842
     62          1           0        3.944063   -2.631286   -1.738011
     63          1           0       -5.705652   -2.666126   -2.924179
     64          1           0        5.294271   -0.756207   -0.143622
     65          1           0        6.044043   -0.283058   -1.684385
     66          1           0        4.215972    0.464400   -3.903200
     67          1           0        3.688222    1.997997   -3.183918
     68          1           0        2.771340    1.035035   -4.503841
     69          1           0        0.892233    2.585804   -2.998752
     70          1           0       -7.536741   -3.571429   -0.688721
     71          1           0       -7.842057   -3.621115   -2.523961
     72          1           0        3.541692    3.831543    3.309463
     73          1           0       -0.548443    4.168202   -3.340239
     74          1           0       -3.792967    4.719930   -0.869119
     75          1           0       -4.190944    3.792021    0.825140
     76          1           0       -2.970285    5.266413    0.498528
     77          1           0        8.418870   -2.326540   -0.957386
     78          1           0       -1.706512    6.535371   -3.360617
     79          1           0       -2.441447    5.853066   -1.781179
 ---------------------------------------------------------------------

 SCF Done:  E(RB3LYP) =  -1947.85493701     A.U. after   16 cycles

 Excitation energies and oscillator strengths:

 Excited State   1:      Singlet-A      1.0878 eV 1139.77 nm  f=0.0014  <S**2>=0.000
     155 ->156         0.70274
 This state for optimization and/or second-order correction.
 Total Energy, E(TD-HF/TD-DFT) =  -1947.81496121
 Copying the excited state density for this state as the 1-particle RhoCI density.

 The electronic state is 1-A.
 Alpha  occ. eigenvalues --  -19.21014 -19.17914 -19.13785 -19.13368 -19.12644
 Alpha  occ. eigenvalues --  -19.08590 -14.36943 -14.36077 -14.32850 -14.31892
 Alpha  occ. eigenvalues --  -10.33396 -10.31853 -10.29470 -10.27058 -10.26351
 Alpha  occ. eigenvalues --  -10.26169 -10.25379 -10.23672 -10.23244 -10.23174
 Alpha  occ. eigenvalues --  -10.22816 -10.22482 -10.22292 -10.21895 -10.21501
 Alpha  occ. eigenvalues --  -10.21459 -10.21392 -10.21344 -10.21257 -10.21035
 Alpha  occ. eigenvalues --  -10.20648 -10.20463 -10.20152 -10.19781 -10.19452
 Alpha  occ. eigenvalues --  -10.19374 -10.18830 -10.18690 -10.17956 -10.17439
 Alpha  occ. eigenvalues --  -10.17310 -10.17119 -10.16777  -1.13925  -1.11219
 Alpha  occ. eigenvalues --   -1.04174  -1.01743  -1.01252  -1.00032  -0.99961
 Alpha  occ. eigenvalues --   -0.95513  -0.93594  -0.89145  -0.83383  -0.82759
 Alpha  occ. eigenvalues --   -0.81029  -0.80672  -0.79858  -0.78833  -0.78795
 Alpha  occ. eigenvalues --   -0.77043  -0.75800  -0.74407  -0.73854  -0.73307
 Alpha  occ. eigenvalues --   -0.71327  -0.70489  -0.69768  -0.69655  -0.67933
 Alpha  occ. eigenvalues --   -0.66570  -0.65518  -0.62584  -0.62030  -0.61367
 Alpha  occ. eigenvalues --   -0.60205  -0.59764  -0.59145  -0.57508  -0.56369
 Alpha  occ. eigenvalues --   -0.55620  -0.54610  -0.54193  -0.53733  -0.53395
 Alpha  occ. eigenvalues --   -0.51601  -0.51479  -0.50830  -0.50180  -0.49860
 Alpha  occ. eigenvalues --   -0.49591  -0.48693  -0.48314  -0.48130  -0.47819
 Alpha  occ. eigenvalues --   -0.47435  -0.47275  -0.46963  -0.46146  -0.45758
 Alpha  occ. eigenvalues --   -0.45477  -0.44823  -0.44589  -0.44526  -0.43952
 Alpha  occ. eigenvalues --   -0.43667  -0.43456  -0.43258  -0.42977  -0.42260
 Alpha  occ. eigenvalues --   -0.42009  -0.41595  -0.41525  -0.41114  -0.40819
 Alpha  occ. eigenvalues --   -0.40697  -0.40537  -0.40443  -0.40188  -0.39908
 Alpha  occ. eigenvalues --   -0.39157  -0.39093  -0.38995  -0.38507  -0.38097
 Alpha  occ. eigenvalues --   -0.37958  -0.37383  -0.36889  -0.36773  -0.36461
 Alpha  occ. eigenvalues --   -0.35799  -0.35453  -0.35220  -0.34934  -0.34445
 Alpha  occ. eigenvalues --   -0.33919  -0.33574  -0.32921  -0.32243  -0.31753
 Alpha  occ. eigenvalues --   -0.31292  -0.30628  -0.30018  -0.29302  -0.29213
 Alpha  occ. eigenvalues --   -0.28263  -0.26652  -0.26108  -0.24430  -0.24161
 Alpha  occ. eigenvalues --   -0.23583  -0.22796  -0.22503  -0.21519  -0.19401
 Alpha virt. eigenvalues --   -0.12819  -0.07113  -0.04403  -0.01299  -0.01172
 Alpha virt. eigenvalues --    0.01091   0.01571   0.02157   0.02445   0.03706
 Alpha virt. eigenvalues --    0.04369   0.04949   0.04992   0.05459   0.05639

 Mulliken charges:
               1
     1  O   -0.224109
     2  O   -0.124843
     3  O   -0.201269
     4  O   -0.112345
     5  O   -0.257958
     6  O   -0.217266
     7  N   -0.151704
     8  N   -0.328716
     9  N   -0.135281
    10  N   -0.304964
    11  C   -0.117390
    12  C    0.565358
    13  C   -0.143760
    14  C   -0.110692
    15  C   -0.157777
    16  C    0.036544
    17  C   -0.214286
    18  C    0.218374
    19  C    0.058306
    20  C   -0.143565
    21  C    0.140850
    22  C    0.172939
    23  C   -0.097266
    24  C    0.067396
    25  C    0.140145
    26  C   -0.110548
    27  C   -0.060505
    28  C    0.101252
    29  C    0.127234
    30  C   -0.048999
    31  C   -0.042890
    32  C    0.064999
    33  C   -0.124674
    34  C    0.125750
    35  C    0.128657
    36  C   -0.104490
    37  C    0.123236
    38  C    0.003721
    39  C   -0.240252
    40  C    0.193521
    41  C   -0.009348
    42  C    0.073622
    43  C    0.002967
    44  H    0.115801
    45  H   -0.142162
    46  H   -0.046773
    47  H    0.134405
    48  H    0.175291
    49  H    0.007096
    50  H   -0.056688
    51  H    0.043027
    52  H    0.001860
    53  H   -0.014183
    54  H    0.023610
    55  H   -0.001873
    56  H    0.034251
    57  H    0.026423
    58  H    0.044585
    59  H    0.042073
    60  H    0.241429
    61  H    0.037081
    62  H   -0.009767
    63  H    0.032886
    64  H    0.064886
    65  H    0.048380
    66  H    0.013107
    67  H    0.038336
    68  H    0.033601
    69  H    0.023077
    70  H   -0.006528
    71  H    0.045047
    72  H    0.141866
    73  H   -0.008884
    74  H    0.033304
    75  H    0.073012
    76  H    0.043233
    77  H    0.181615
    78  H    0.047784
    79  H   -0.020180
 Sum of Mulliken charges =  -0.00000

 Dipole moment (field-independent basis, Debye):
    X=              4.4945    Y=              3.9568    Z=             -1.2198  Tot=              6.1110
 Quadrupole moment (field-independent basis, Debye-Ang):
   XX=           -228.0917   YY=           -240.8609   ZZ=           -266.5316
   XY=              4.0879   XZ=            -28.2457   YZ=            -12.8090

 Normal termination of Gaussian 16 at Wed Jul 24 10:31:48 2019.
