 Gaussian 16, Revision A.03,
 Gaussian 16:  ES64L-G16RevA.03 25-Dec-2016

 --------------------------
 # td=(NStates=1) B3LYP/SVP
 --------------------------

 --
 TD
 --
 Symbolic Z-matrix:
 Charge =  0 Multiplicity = 1

                         Standard orientation:
 ---------------------------------------------------------------------
 Center     Atomic      Atomic             Coordinates (Angstroms)
 Number     Number       Type             X           Y           Z
 ---------------------------------------------------------------------
      1          8           0        5.371884   -0.287417   -3.289323
      2          8           0       -3.126785   -2.863816    3.172650
      3          8           0       -3.431722   -0.727521    3.006729
      4          8           0       -1.628990    7.020165    1.515502
      5          8           0       -0.947688    7.019266   -0.694881
      6          8           0       -1.509534   -3.921430    0.150789
      7          7           0        2.240773    1.135343    0.651035
      8          7           0        4.365164   -0.673437   -1.235430
      9          7           0       -1.816648    0.610429   -0.452008
     10          7           0       -2.434430   -2.027498   -0.527868
     11          6           0        4.770352   -1.105475    0.103690
     12          6           0        4.348369    0.032574    1.212065
     13          6           0        2.883395    0.203982    1.306139
     14          6           0        1.903732   -0.475427    2.117910
     15          6           0        0.648803    0.189808    1.910187
     16          6           0        0.859404    1.165542    0.881188
     17          6           0        6.369980   -1.152031   -0.120781
     18          6           0       -0.712592   -0.072376    2.511676
     19          6           0        6.737086   -0.821551   -1.276544
     20          6           0       -0.015914    2.118511    0.082343
     21          6           0       -1.220814    1.849780   -0.379344
     22          6           0        5.440944   -0.523031   -2.059455
     23          6           0       -2.018833    2.846759   -0.979543
     24          6           0        2.135467   -1.608941    3.076386
     25          6           0        7.150677   -1.706529    1.150081
     26          6           0       -3.216112    2.229965   -1.435522
     27          6           0       -1.130947   -1.573566    2.621868
     28          6           0       -3.041996    0.808011   -1.042617
     29          6           0       -1.747233    4.373458   -1.057367
     30          6           0        7.994869   -0.738960   -1.998447
     31          6           0       -1.833287    5.016480    0.388931
     32          6           0       -4.409123    2.832473   -2.149566
     33          6           0       -3.919410   -0.189623   -1.256207
     34          6           0       -2.662164   -1.634565    2.962901
     35          6           0       -3.580249   -1.534406   -1.091880
     36          6           0        9.253940   -0.842194   -1.503299
     37          6           0       -1.424362    6.434917    0.248384
     38          6           0       -4.345942   -2.765653   -1.501309
     39          6           0       -3.630001   -3.934782   -0.946316
     40          6           0       -2.427613   -3.372387   -0.354392
     41          6           0       -5.643865   -2.612441   -2.105354
     42          6           0       -3.992654   -5.398650   -1.139295
     43          6           0       -6.544183   -3.625912   -2.369506
     44          1           0        4.288093   -2.067667    0.614742
     45          1           0        4.741614    0.975199    1.233146
     46          1           0        4.626914   -0.316003    2.241291
     47          1           0        2.697772    1.822360    0.055252
     48          1           0        3.425511   -0.816768   -1.714759
     49          1           0       -0.898275    0.340884    3.552125
     50          1           0       -1.484102    0.503937    2.100798
     51          1           0        0.311085    2.993381   -0.180010
     52          1           0        3.253306   -1.732064    3.309360
     53          1           0        1.668838   -1.550821    4.111792
     54          1           0        1.850368   -2.634069    2.594842
     55          1           0        6.599738   -2.452435    1.820386
     56          1           0        7.531187   -0.990485    1.814083
     57          1           0        8.033639   -2.315687    0.792111
     58          1           0       -1.090383   -2.158042    1.702099
     59          1           0       -0.546880   -2.153837    3.267495
     60          1           0       -1.423693   -0.274360   -0.399984
     61          1           0       -2.202384    4.639798   -1.847010
     62          1           0       -0.620193    4.499588   -1.181475
     63          1           0        7.981593   -0.485019   -3.105263
     64          1           0       -1.208829    4.500567    1.126626
     65          1           0       -2.855240    5.029431    0.617316
     66          1           0       -4.395353    3.898915   -2.319114
     67          1           0       -5.287884    2.553077   -1.495544
     68          1           0       -4.880105    2.216467   -2.960893
     69          1           0       -4.741005    0.192918   -1.697889
     70          1           0        9.487092   -0.987013   -0.461934
     71          1           0       10.079559   -0.706829   -2.191418
     72          1           0       -3.963222   -2.731745    3.348187
     73          1           0       -5.787630   -1.550320   -2.360346
     74          1           0       -4.587477   -6.153780   -0.316498
     75          1           0       -4.629974   -5.705607   -2.034662
     76          1           0       -2.937206   -5.912619   -1.082448
     77          1           0       -1.455367    8.093218    1.238975
     78          1           0       -7.311862   -3.463469   -2.917978
     79          1           0       -6.448914   -4.811499   -2.057263
 ---------------------------------------------------------------------

 SCF Done:  E(RB3LYP) =  -1947.82457955     A.U. after   17 cycles

 Excitation energies and oscillator strengths:

 Excited State   1:      Singlet-A      1.8572 eV  667.58 nm  f=0.1955  <S**2>=0.000
     154 ->156         0.34133
     155 ->156         0.61163
 This state for optimization and/or second-order correction.
 Total Energy, E(TD-HF/TD-DFT) =  -1947.75632845
 Copying the excited state density for this state as the 1-particle RhoCI density.

 The electronic state is 1-A.
 Alpha  occ. eigenvalues --  -19.19246 -19.15497 -19.15167 -19.10777 -19.10022
 Alpha  occ. eigenvalues --  -19.09659 -14.38659 -14.36613 -14.36071 -14.27503
 Alpha  occ. eigenvalues --  -10.33316 -10.30012 -10.28880 -10.27291 -10.25282
 Alpha  occ. eigenvalues --  -10.24656 -10.23466 -10.23296 -10.23015 -10.22743
 Alpha  occ. eigenvalues --  -10.22376 -10.22263 -10.22154 -10.21860 -10.21679
 Alpha  occ. eigenvalues --  -10.21353 -10.21275 -10.21259 -10.21100 -10.20703
 Alpha  occ. eigenvalues --  -10.20634 -10.20524 -10.20465 -10.20452 -10.20365
 Alpha  occ. eigenvalues --  -10.20249 -10.19773 -10.19597 -10.19480 -10.19026
 Alpha  occ. eigenvalues --  -10.18366 -10.18267 -10.17910  -1.10984  -1.08845
 Alpha  occ. eigenvalues --   -1.03010  -1.01148  -1.00380  -0.99966  -0.99456
 Alpha  occ. eigenvalues --   -0.98872  -0.93324  -0.90869  -0.83905  -0.82738
 Alpha  occ. eigenvalues --   -0.82311  -0.80139  -0.79729  -0.79135  -0.78710
 Alpha  occ. eigenvalues --   -0.77050  -0.75787  -0.75339  -0.73735  -0.73077
 Alpha  occ. eigenvalues --   -0.71677  -0.70759  -0.69799  -0.69022  -0.68288
 Alpha  occ. eigenvalues --   -0.66933  -0.65666  -0.64408  -0.61276  -0.61113
 Alpha  occ. eigenvalues --   -0.59833  -0.59430  -0.58876  -0.58380  -0.57766
 Alpha  occ. eigenvalues --   -0.56997  -0.56564  -0.55198  -0.53889  -0.52799
 Alpha  occ. eigenvalues --   -0.52221  -0.51934  -0.51100  -0.50687  -0.50249
 Alpha  occ. eigenvalues --   -0.49556  -0.48997  -0.48629  -0.48438  -0.47838
 Alpha  occ. eigenvalues --   -0.46982  -0.46898  -0.46696  -0.46190  -0.45907
 Alpha  occ. eigenvalues --   -0.45208  -0.44972  -0.44655  -0.44272  -0.43756
 Alpha  occ. eigenvalues --   -0.43627  -0.43124  -0.42686  -0.42371  -0.42055
 Alpha  occ. eigenvalues --   -0.41916  -0.41885  -0.41676  -0.41407  -0.41189
 Alpha  occ. eigenvalues --   -0.41019  -0.40877  -0.40687  -0.40390  -0.39799
 Alpha  occ. eigenvalues --   -0.39510  -0.39255  -0.38942  -0.38645  -0.38180
 Alpha  occ. eigenvalues --   -0.37969  -0.37881  -0.37622  -0.36882  -0.36715
 Alpha  occ. eigenvalues --   -0.36283  -0.36139  -0.35491  -0.35197  -0.34617
 Alpha  occ. eigenvalues --   -0.34158  -0.33730  -0.33291  -0.33101  -0.32380
 Alpha  occ. eigenvalues --   -0.31091  -0.30982  -0.30247  -0.28198  -0.26585
 Alpha  occ. eigenvalues --   -0.26450  -0.25893  -0.25430  -0.25241  -0.25203
 Alpha  occ. eigenvalues --   -0.24250  -0.23552  -0.23268  -0.20740  -0.19127
 Alpha virt. eigenvalues --   -0.11211  -0.06987  -0.05279  -0.01627  -0.00984
 Alpha virt. eigenvalues --    0.00781   0.00974   0.01720   0.03088   0.03305
 Alpha virt. eigenvalues --    0.03414   0.04154   0.04395   0.05149   0.05348

 Mulliken charges:
               1
     1  O   -0.260522
     2  O   -0.090274
     3  O   -0.228992
     4  O   -0.293739
     5  O   -0.210642
     6  O   -0.164653
     7  N   -0.010706
     8  N   -0.185759
     9  N   -0.012677
    10  N   -0.288572
    11  C    0.058982
    12  C    0.212143
    13  C   -0.142810
    14  C   -0.128841
    15  C   -0.042805
    16  C    0.019595
    17  C   -0.154737
    18  C    0.099850
    19  C    0.050463
    20  C   -0.030679
    21  C    0.143498
    22  C    0.129524
    23  C   -0.138130
    24  C    0.017472
    25  C    0.048089
    26  C   -0.112593
    27  C    0.026573
    28  C    0.056731
    29  C    0.175641
    30  C   -0.047139
    31  C    0.049717
    32  C    0.118102
    33  C   -0.025400
    34  C    0.083831
    35  C    0.135097
    36  C   -0.015132
    37  C    0.157556
    38  C   -0.002189
    39  C   -0.120279
    40  C    0.119737
    41  C   -0.022696
    42  C   -0.055293
    43  C    0.015919
    44  H    0.057390
    45  H   -0.038924
    46  H    0.001280
    47  H    0.112599
    48  H    0.161635
    49  H    0.001001
    50  H   -0.019780
    51  H   -0.112541
    52  H   -0.005265
    53  H    0.040229
    54  H    0.052371
    55  H    0.026351
    56  H    0.023458
    57  H    0.034631
    58  H    0.052701
    59  H   -0.003933
    60  H    0.112008
    61  H   -0.048231
    62  H    0.016466
    63  H    0.031768
    64  H    0.067546
    65  H    0.031547
    66  H    0.028211
    67  H    0.019836
    68  H    0.023453
    69  H   -0.112032
    70  H    0.006711
    71  H    0.026526
    72  H    0.103050
    73  H   -0.006883
    74  H    0.043297
    75  H    0.040378
    76  H    0.048457
    77  H    0.230458
    78  H   -0.034545
    79  H    0.055518
 Sum of Mulliken charges =  -0.00000

 Dipole moment (field-independent basis, Debye):
    X=              0.0916    Y=              3.7348    Z=              2.1004  Tot=              4.2859
 Quadrupole moment (field-independent basis, Debye-Ang):
   XX=           -218.3890   YY=           -242.6268   ZZ=           -265.7006
   XY=             -8.8284   XZ=             36.2084   YZ=              0.9454

 Normal termination of Gaussian 16 at Thu Oct  3 01:13:35 2019.
