 Gaussian 16, Revision A.03,
 Gaussian 16:  ES64L-G16RevA.03 25-Dec-2016

 --------------------------
 # td=(NStates=1) B3LYP/SVP
 --------------------------

 --
 TD
 --
 Symbolic Z-matrix:
 Charge =  0 Multiplicity = 1

                         Standard orientation:
 ---------------------------------------------------------------------
 Center     Atomic      Atomic             Coordinates (Angstroms)
 Number     Number       Type             X           Y           Z
 ---------------------------------------------------------------------
      1          8           0       -3.253502   -1.421179   -2.854498
      2          8           0        2.953464    3.121437    3.239732
      3          8           0        3.970566    1.267802    4.158778
      4          8           0        7.834727   -1.591768   -0.708201
      5          8           0        6.621395   -2.887606   -2.109123
      6          8           0       -2.656625    1.547424    1.450872
      7          7           0       -0.269774   -2.322043    0.896851
      8          7           0       -2.645275   -1.266535   -0.537029
      9          7           0        1.131049    0.089277   -0.703022
     10          7           0       -1.059690    1.487525   -0.253052
     11          6           0       -3.337926   -1.410973    0.604587
     12          6           0       -2.668227   -2.387320    1.578346
     13          6           0       -1.241254   -1.902906    1.714723
     14          6           0       -0.582263   -1.074011    2.670737
     15          6           0        0.833561   -1.124067    2.432449
     16          6           0        1.019341   -1.872285    1.213317
     17          6           0       -4.772417   -1.939204    0.229173
     18          6           0        1.862122   -0.519598    3.229191
     19          6           0       -4.782107   -2.103987   -1.095717
     20          6           0        2.131718   -1.959655    0.209474
     21          6           0        2.151352   -0.858348   -0.601332
     22          6           0       -3.438297   -1.632671   -1.660998
     23          6           0        3.011488   -0.645937   -1.745002
     24          6           0       -1.264238   -0.634988    3.927736
     25          6           0       -5.774042   -2.075766    1.327024
     26          6           0        2.554731    0.473817   -2.474238
     27          6           0        1.846902    1.055317    2.925638
     28          6           0        1.397176    1.020844   -1.765875
     29          6           0        4.272427   -1.371346   -2.020649
     30          6           0       -5.837786   -2.613598   -1.990350
     31          6           0        5.458759   -1.012079   -1.155856
     32          6           0        3.108975    1.109151   -3.799814
     33          6           0        0.471072    2.121304   -2.011755
     34          6           0        2.997881    1.783197    3.578458
     35          6           0       -0.663718    2.348751   -1.264227
     36          6           0       -6.945629   -3.275766   -1.661656
     37          6           0        6.609098   -1.891487   -1.487618
     38          6           0       -1.470807    3.557225   -1.160450
     39          6           0       -2.286240    3.468684   -0.083816
     40          6           0       -2.043357    2.104836    0.526266
     41          6           0       -1.330080    4.613510   -2.233871
     42          6           0       -3.439054    4.334060    0.331284
     43          6           0       -2.101660    5.794557   -2.265695
     44          1           0       -3.460644   -0.309032    1.094911
     45          1           0       -2.868112   -3.406899    1.023004
     46          1           0       -3.109340   -2.332737    2.628801
     47          1           0       -0.498139   -2.994515    0.039629
     48          1           0       -2.163545   -0.375720   -0.687269
     49          1           0        1.436159   -0.488883    4.351512
     50          1           0        2.827889   -1.148674    3.196412
     51          1           0        3.049061   -2.737622    0.210371
     52          1           0       -2.208921   -1.411303    4.140512
     53          1           0       -0.477329   -0.609908    4.829130
     54          1           0       -1.504937    0.624611    3.635519
     55          1           0       -5.537357   -1.249908    2.026535
     56          1           0       -5.722900   -3.076629    1.768629
     57          1           0       -6.715759   -1.854374    0.893862
     58          1           0        1.896482    0.900275    1.742719
     59          1           0        0.859234    1.510192    3.188279
     60          1           0        0.345240    0.360584   -0.105515
     61          1           0        4.628390   -1.387102   -3.156979
     62          1           0        4.100553   -2.571167   -1.963916
     63          1           0       -5.580555   -2.523947   -3.038280
     64          1           0        5.310381   -0.974692   -0.013354
     65          1           0        5.917834   -0.009926   -1.367281
     66          1           0        3.898109    0.615730   -4.017177
     67          1           0        3.225694    2.110198   -3.570857
     68          1           0        2.357338    0.821205   -4.678547
     69          1           0        0.801933    2.799362   -2.814378
     70          1           0       -7.164355   -3.902210   -0.796725
     71          1           0       -7.519206   -3.618113   -2.646954
     72          1           0        3.671381    3.339271    3.706081
     73          1           0       -0.712336    4.526923   -2.970534
     74          1           0       -4.013018    4.519250   -0.639169
     75          1           0       -4.005409    4.026848    1.241325
     76          1           0       -3.220079    5.396292    0.658314
     77          1           0        8.466102   -2.340486   -0.844969
     78          1           0       -1.822999    6.647848   -2.912314
     79          1           0       -2.826204    6.043267   -1.514956
 ---------------------------------------------------------------------

 SCF Done:  E(RB3LYP) =  -1947.82995403     A.U. after   20 cycles

 Excitation energies and oscillator strengths:

 Excited State   1:      Singlet-A      0.8413 eV 1473.79 nm  f=0.0007  <S**2>=0.000
     155 ->156         0.70358
 This state for optimization and/or second-order correction.
 Total Energy, E(TD-HF/TD-DFT) =  -1947.79903828
 Copying the excited state density for this state as the 1-particle RhoCI density.

 The electronic state is 1-A.
 Alpha  occ. eigenvalues --  -19.17876 -19.16425 -19.15354 -19.13491 -19.12249
 Alpha  occ. eigenvalues --  -19.09370 -14.37523 -14.37203 -14.32274 -14.30411
 Alpha  occ. eigenvalues --  -10.33551 -10.32632 -10.28342 -10.27973 -10.27269
 Alpha  occ. eigenvalues --  -10.26062 -10.25091 -10.24547 -10.24238 -10.24007
 Alpha  occ. eigenvalues --  -10.23779 -10.23676 -10.22131 -10.21645 -10.21341
 Alpha  occ. eigenvalues --  -10.21339 -10.21339 -10.21328 -10.21292 -10.21189
 Alpha  occ. eigenvalues --  -10.21028 -10.21011 -10.20731 -10.20583 -10.20367
 Alpha  occ. eigenvalues --  -10.19980 -10.19659 -10.18971 -10.18703 -10.18571
 Alpha  occ. eigenvalues --  -10.18102 -10.17462 -10.16765  -1.10604  -1.09934
 Alpha  occ. eigenvalues --   -1.01981  -1.00739  -1.00220  -0.99225  -0.98287
 Alpha  occ. eigenvalues --   -0.96057  -0.93589  -0.92846  -0.84254  -0.82305
 Alpha  occ. eigenvalues --   -0.80744  -0.80449  -0.80177  -0.79642  -0.78156
 Alpha  occ. eigenvalues --   -0.76697  -0.75338  -0.74919  -0.74536  -0.73737
 Alpha  occ. eigenvalues --   -0.70855  -0.70223  -0.69944  -0.69549  -0.67219
 Alpha  occ. eigenvalues --   -0.65609  -0.64746  -0.62477  -0.61025  -0.59941
 Alpha  occ. eigenvalues --   -0.59021  -0.58910  -0.58225  -0.56959  -0.56391
 Alpha  occ. eigenvalues --   -0.55547  -0.55296  -0.53615  -0.53190  -0.52294
 Alpha  occ. eigenvalues --   -0.52113  -0.51402  -0.51064  -0.50015  -0.49825
 Alpha  occ. eigenvalues --   -0.49250  -0.49128  -0.48778  -0.48432  -0.48397
 Alpha  occ. eigenvalues --   -0.47955  -0.46985  -0.46245  -0.45873  -0.45411
 Alpha  occ. eigenvalues --   -0.45191  -0.44770  -0.44603  -0.44129  -0.43589
 Alpha  occ. eigenvalues --   -0.43470  -0.43119  -0.42816  -0.42714  -0.42195
 Alpha  occ. eigenvalues --   -0.41880  -0.41811  -0.41649  -0.41551  -0.41494
 Alpha  occ. eigenvalues --   -0.41037  -0.40463  -0.40221  -0.40162  -0.39870
 Alpha  occ. eigenvalues --   -0.39666  -0.39406  -0.38729  -0.38538  -0.38086
 Alpha  occ. eigenvalues --   -0.38006  -0.37578  -0.37351  -0.36822  -0.36668
 Alpha  occ. eigenvalues --   -0.36289  -0.35605  -0.35186  -0.34392  -0.34118
 Alpha  occ. eigenvalues --   -0.33416  -0.32460  -0.32242  -0.31679  -0.31285
 Alpha  occ. eigenvalues --   -0.31044  -0.30393  -0.29928  -0.28899  -0.28609
 Alpha  occ. eigenvalues --   -0.28416  -0.27272  -0.25861  -0.24790  -0.24031
 Alpha  occ. eigenvalues --   -0.23933  -0.22809  -0.22419  -0.21786  -0.19153
 Alpha virt. eigenvalues --   -0.13402  -0.08126  -0.03643  -0.02677  -0.02173
 Alpha virt. eigenvalues --   -0.01983   0.01361   0.01675   0.02432   0.02795
 Alpha virt. eigenvalues --    0.03175   0.03416   0.04720   0.05107   0.05517

 Mulliken charges:
               1
     1  O   -0.235510
     2  O   -0.128640
     3  O   -0.252427
     4  O   -0.302546
     5  O   -0.167068
     6  O   -0.225580
     7  N   -0.082822
     8  N   -0.152697
     9  N   -0.134977
    10  N   -0.358951
    11  C   -0.098224
    12  C    0.199486
    13  C   -0.087951
    14  C   -0.080275
    15  C   -0.118009
    16  C   -0.011805
    17  C   -0.196440
    18  C    0.044441
    19  C   -0.062653
    20  C   -0.118408
    21  C    0.154041
    22  C    0.148920
    23  C   -0.024951
    24  C   -0.079784
    25  C    0.144365
    26  C   -0.174346
    27  C   -0.074774
    28  C    0.084528
    29  C   -0.045029
    30  C    0.013714
    31  C    0.015437
    32  C    0.232814
    33  C   -0.071479
    34  C    0.178430
    35  C    0.146076
    36  C   -0.072118
    37  C    0.138903
    38  C    0.065110
    39  C   -0.176118
    40  C    0.193644
    41  C    0.054170
    42  C    0.037932
    43  C   -0.025082
    44  H    0.085387
    45  H   -0.000555
    46  H   -0.005138
    47  H    0.150129
    48  H    0.149357
    49  H    0.008570
    50  H    0.037366
    51  H    0.060188
    52  H    0.047192
    53  H    0.032012
    54  H    0.068139
    55  H    0.024837
    56  H    0.037484
    57  H    0.015188
    58  H    0.073891
    59  H    0.058957
    60  H    0.181809
    61  H    0.047792
    62  H    0.054468
    63  H    0.005260
    64  H    0.079756
    65  H    0.045936
    66  H   -0.060300
    67  H    0.025482
    68  H    0.058047
    69  H   -0.010839
    70  H    0.025184
    71  H    0.029017
    72  H    0.112320
    73  H   -0.082470
    74  H    0.051469
    75  H    0.037351
    76  H    0.030548
    77  H    0.189443
    78  H    0.034340
    79  H    0.009034
 Sum of Mulliken charges =  -0.00000

 Dipole moment (field-independent basis, Debye):
    X=              2.9111    Y=              2.3371    Z=             -1.6553  Tot=              4.0837
 Quadrupole moment (field-independent basis, Debye-Ang):
   XX=           -252.3028   YY=           -231.6050   ZZ=           -264.8722
   XY=              0.2916   XZ=            -25.4401   YZ=            -12.7075

 Normal termination of Gaussian 16 at Mon Jul 29 00:59:23 2019.
