 Gaussian 16, Revision A.03,
 Gaussian 16:  ES64L-G16RevA.03 25-Dec-2016

 --------------------------
 # td=(NStates=1) B3LYP/SVP
 --------------------------

 --
 TD
 --
 Symbolic Z-matrix:
 Charge =  0 Multiplicity = 1

                         Standard orientation:
 ---------------------------------------------------------------------
 Center     Atomic      Atomic             Coordinates (Angstroms)
 Number     Number       Type             X           Y           Z
 ---------------------------------------------------------------------
      1          8           0        5.381704    0.116671   -3.204623
      2          8           0       -3.010418   -2.876888    3.478747
      3          8           0       -3.424785   -0.676672    2.900968
      4          8           0       -1.931766    7.118544    1.404779
      5          8           0       -1.123083    7.073464   -0.663416
      6          8           0       -1.387095   -3.973709    0.138089
      7          7           0        2.277698    1.055035    0.673131
      8          7           0        4.273918   -0.261683   -1.199491
      9          7           0       -1.851094    0.651409   -0.439050
     10          7           0       -2.427094   -1.923893   -0.358917
     11          6           0        4.637177   -0.977447   -0.010045
     12          6           0        4.303851   -0.261996    1.392890
     13          6           0        2.869562    0.032763    1.420632
     14          6           0        1.846387   -0.515339    2.225740
     15          6           0        0.597902    0.061939    1.868396
     16          6           0        0.882824    1.112075    0.842631
     17          6           0        6.227549   -1.183591   -0.126629
     18          6           0       -0.695478   -0.132346    2.630667
     19          6           0        6.637841   -0.796107   -1.335965
     20          6           0        0.007121    2.030176    0.269631
     21          6           0       -1.151882    1.838669   -0.329646
     22          6           0        5.403410   -0.195877   -2.072204
     23          6           0       -1.997653    2.892182   -0.939323
     24          6           0        2.172815   -1.640829    3.182400
     25          6           0        6.939694   -1.910699    0.854408
     26          6           0       -3.107761    2.256673   -1.342770
     27          6           0       -1.158591   -1.525006    2.725592
     28          6           0       -3.058835    0.826848   -1.141859
     29          6           0       -1.689291    4.365862   -0.938642
     30          6           0        7.887066   -0.601159   -2.076554
     31          6           0       -1.936430    4.974235    0.321036
     32          6           0       -4.248200    2.951878   -2.023401
     33          6           0       -3.826058   -0.270556   -1.507797
     34          6           0       -2.591535   -1.660314    3.091328
     35          6           0       -3.483663   -1.611605   -1.123283
     36          6           0        9.121891   -0.714022   -1.438443
     37          6           0       -1.573464    6.517406    0.339399
     38          6           0       -4.277034   -2.903475   -1.556608
     39          6           0       -3.522014   -3.979410   -1.048632
     40          6           0       -2.320882   -3.424259   -0.447826
     41          6           0       -5.459839   -2.946170   -2.374927
     42          6           0       -3.807162   -5.433034   -1.087246
     43          6           0       -6.259954   -3.899991   -2.727049
     44          1           0        4.134937   -1.981930    0.015235
     45          1           0        4.960173    0.619231    1.406207
     46          1           0        4.773111   -0.891870    2.278942
     47          1           0        2.719913    1.711009   -0.038437
     48          1           0        3.441168   -0.452743   -1.483824
     49          1           0       -0.581411    0.374172    3.693472
     50          1           0       -1.445832    0.553883    2.093670
     51          1           0        0.600355    2.977266    0.081210
     52          1           0        3.132852   -1.956014    3.346127
     53          1           0        1.687671   -1.399252    4.326155
     54          1           0        1.452467   -2.555510    2.690284
     55          1           0        6.420043   -2.719071    1.377376
     56          1           0        7.479187   -1.281576    1.616265
     57          1           0        7.876867   -2.343477    0.345744
     58          1           0       -1.011024   -2.147886    1.869368
     59          1           0       -0.470315   -1.911032    3.502426
     60          1           0       -1.701355   -0.246225   -0.004566
     61          1           0       -2.382726    4.768270   -1.715213
     62          1           0       -0.653840    4.481124   -1.539418
     63          1           0        7.734900   -0.342325   -3.118428
     64          1           0       -1.445526    4.322573    1.002280
     65          1           0       -3.103036    5.103341    0.680550
     66          1           0       -4.172930    3.958028   -2.086898
     67          1           0       -5.217361    2.465509   -1.417200
     68          1           0       -4.541935    2.474518   -2.948692
     69          1           0       -4.892864   -0.252704   -1.840409
     70          1           0        9.378389   -0.921212   -0.332907
     71          1           0        9.977306   -0.482161   -2.208310
     72          1           0       -4.023449   -2.879387    3.221864
     73          1           0       -5.598799   -1.922684   -2.712760
     74          1           0       -5.100154   -5.560755   -0.835062
     75          1           0       -3.689402   -5.655337   -2.272722
     76          1           0       -3.098859   -5.956520   -0.350717
     77          1           0       -1.690731    8.023412    1.052775
     78          1           0       -7.033935   -3.623966   -3.369524
     79          1           0       -6.080474   -4.910898   -2.586331
 ---------------------------------------------------------------------

 SCF Done:  E(RB3LYP) =  -1947.83784507     A.U. after   16 cycles

 Excitation energies and oscillator strengths:

 Excited State   1:      Singlet-A      1.8753 eV  661.13 nm  f=0.3313  <S**2>=0.000
     155 ->156         0.70307
 This state for optimization and/or second-order correction.
 Total Energy, E(TD-HF/TD-DFT) =  -1947.76892799
 Copying the excited state density for this state as the 1-particle RhoCI density.

 The electronic state is 1-A.
 Alpha  occ. eigenvalues --  -19.21125 -19.18230 -19.13089 -19.11556 -19.11553
 Alpha  occ. eigenvalues --  -19.10349 -14.38618 -14.35338 -14.34285 -14.29512
 Alpha  occ. eigenvalues --  -10.32966 -10.30925 -10.29063 -10.27429 -10.24864
 Alpha  occ. eigenvalues --  -10.24674 -10.23717 -10.23273 -10.22771 -10.22726
 Alpha  occ. eigenvalues --  -10.22726 -10.22140 -10.21792 -10.21731 -10.21724
 Alpha  occ. eigenvalues --  -10.21278 -10.21270 -10.21105 -10.21005 -10.20960
 Alpha  occ. eigenvalues --  -10.20628 -10.20478 -10.20186 -10.20106 -10.20098
 Alpha  occ. eigenvalues --  -10.20035 -10.19853 -10.19530 -10.19159 -10.19119
 Alpha  occ. eigenvalues --  -10.18842 -10.18724 -10.18218  -1.14431  -1.06908
 Alpha  occ. eigenvalues --   -1.05450  -1.01359  -1.01028  -0.97260  -0.96425
 Alpha  occ. eigenvalues --   -0.94884  -0.94463  -0.90093  -0.83520  -0.83117
 Alpha  occ. eigenvalues --   -0.81843  -0.81193  -0.80580  -0.79073  -0.78269
 Alpha  occ. eigenvalues --   -0.77116  -0.76630  -0.75711  -0.74645  -0.71744
 Alpha  occ. eigenvalues --   -0.71652  -0.70034  -0.69342  -0.68286  -0.67721
 Alpha  occ. eigenvalues --   -0.65816  -0.65142  -0.63579  -0.61474  -0.61360
 Alpha  occ. eigenvalues --   -0.60328  -0.59058  -0.58308  -0.57338  -0.56594
 Alpha  occ. eigenvalues --   -0.55999  -0.55316  -0.54627  -0.53213  -0.53009
 Alpha  occ. eigenvalues --   -0.52210  -0.51682  -0.50967  -0.50624  -0.50419
 Alpha  occ. eigenvalues --   -0.49355  -0.49141  -0.48759  -0.48202  -0.47737
 Alpha  occ. eigenvalues --   -0.47555  -0.46810  -0.46421  -0.46183  -0.45586
 Alpha  occ. eigenvalues --   -0.45017  -0.44940  -0.44604  -0.44507  -0.44155
 Alpha  occ. eigenvalues --   -0.43704  -0.43372  -0.43216  -0.43108  -0.42894
 Alpha  occ. eigenvalues --   -0.42432  -0.42281  -0.41843  -0.41605  -0.41064
 Alpha  occ. eigenvalues --   -0.40885  -0.40148  -0.40003  -0.39367  -0.39135
 Alpha  occ. eigenvalues --   -0.38799  -0.38595  -0.38386  -0.38230  -0.38019
 Alpha  occ. eigenvalues --   -0.37494  -0.37470  -0.37069  -0.36608  -0.36455
 Alpha  occ. eigenvalues --   -0.36202  -0.35388  -0.35236  -0.34394  -0.33859
 Alpha  occ. eigenvalues --   -0.33502  -0.33299  -0.33169  -0.31780  -0.31652
 Alpha  occ. eigenvalues --   -0.31194  -0.29391  -0.28944  -0.28764  -0.27970
 Alpha  occ. eigenvalues --   -0.27545  -0.26359  -0.25495  -0.25350  -0.24711
 Alpha  occ. eigenvalues --   -0.24218  -0.23677  -0.23455  -0.22225  -0.18372
 Alpha virt. eigenvalues --   -0.10779  -0.06644  -0.05821  -0.00780  -0.00154
 Alpha virt. eigenvalues --   -0.00003   0.00504   0.01398   0.02841   0.03727
 Alpha virt. eigenvalues --    0.04021   0.04171   0.04262   0.04577   0.04854

 Mulliken charges:
               1
     1  O   -0.165963
     2  O   -0.203164
     3  O   -0.324216
     4  O   -0.101399
     5  O   -0.268047
     6  O   -0.205887
     7  N   -0.117549
     8  N   -0.127421
     9  N   -0.102286
    10  N   -0.328750
    11  C   -0.001215
    12  C    0.133620
    13  C   -0.016573
    14  C   -0.104338
    15  C   -0.105798
    16  C    0.042052
    17  C   -0.153549
    18  C    0.034128
    19  C   -0.048912
    20  C   -0.159516
    21  C    0.164750
    22  C    0.130803
    23  C   -0.129817
    24  C    0.011594
    25  C    0.046702
    26  C   -0.114055
    27  C    0.041526
    28  C    0.169855
    29  C    0.099090
    30  C    0.013965
    31  C   -0.017018
    32  C    0.133487
    33  C   -0.117687
    34  C    0.168480
    35  C    0.053985
    36  C   -0.074924
    37  C    0.131646
    38  C    0.025543
    39  C   -0.177939
    40  C    0.173097
    41  C   -0.005873
    42  C   -0.038288
    43  C    0.038787
    44  H    0.028512
    45  H   -0.010855
    46  H    0.028827
    47  H    0.138159
    48  H    0.075066
    49  H    0.028315
    50  H    0.023647
    51  H   -0.002420
    52  H   -0.015466
    53  H    0.039023
    54  H    0.071288
    55  H    0.031626
    56  H    0.033161
    57  H    0.030626
    58  H    0.064152
    59  H    0.019241
    60  H    0.139819
    61  H   -0.005028
    62  H    0.053711
    63  H    0.022442
    64  H    0.030254
    65  H    0.065517
    66  H   -0.005312
    67  H    0.023186
    68  H    0.010608
    69  H    0.001655
    70  H    0.053806
    71  H    0.044833
    72  H    0.221381
    73  H   -0.022611
    74  H    0.060435
    75  H    0.070683
    76  H    0.067393
    77  H    0.180513
    78  H    0.007971
    79  H   -0.007085
 Sum of Mulliken charges =  -0.00000

 Dipole moment (field-independent basis, Debye):
    X=              0.6143    Y=              0.9096    Z=              1.5633  Tot=              1.9102
 Quadrupole moment (field-independent basis, Debye-Ang):
   XX=           -218.4727   YY=           -242.1146   ZZ=           -263.6606
   XY=             -4.1474   XZ=             32.7973   YZ=              8.5698

 Normal termination of Gaussian 16 at Wed Oct  2 21:30:56 2019.
