 Gaussian 16, Revision A.03,
 Gaussian 16:  ES64L-G16RevA.03 25-Dec-2016

 --------------------------
 # td=(NStates=1) B3LYP/SVP
 --------------------------

 --
 TD
 --
 Symbolic Z-matrix:
 Charge =  0 Multiplicity = 1

                         Standard orientation:
 ---------------------------------------------------------------------
 Center     Atomic      Atomic             Coordinates (Angstroms)
 Number     Number       Type             X           Y           Z
 ---------------------------------------------------------------------
      1          8           0        5.371989   -0.197678   -3.248895
      2          8           0       -3.016788   -2.963867    3.049400
      3          8           0       -3.407423   -0.669939    3.096842
      4          8           0       -1.518774    7.158539    1.478607
      5          8           0       -0.494195    7.129332   -0.552712
      6          8           0       -1.623524   -3.961501   -0.095623
      7          7           0        2.331882    0.974906    0.563500
      8          7           0        4.337896   -0.683328   -1.299182
      9          7           0       -1.850395    0.690725   -0.488373
     10          7           0       -2.433709   -1.916652   -0.678811
     11          6           0        4.727812   -1.245654   -0.037167
     12          6           0        4.391913   -0.278597    1.217341
     13          6           0        2.929804    0.025632    1.332831
     14          6           0        1.956404   -0.661261    2.117086
     15          6           0        0.740686   -0.037565    1.735918
     16          6           0        0.920393    0.946821    0.791166
     17          6           0        6.188061   -1.504373   -0.114667
     18          6           0       -0.636916   -0.178385    2.483002
     19          6           0        6.667679   -0.974814   -1.332004
     20          6           0        0.204551    1.963857    0.223632
     21          6           0       -1.075217    1.909871   -0.347054
     22          6           0        5.479151   -0.521235   -2.127344
     23          6           0       -1.970682    2.971036   -0.824977
     24          6           0        2.149747   -1.669861    3.122290
     25          6           0        7.017970   -2.086290    0.951656
     26          6           0       -3.124382    2.301693   -1.343714
     27          6           0       -1.229262   -1.579596    2.402130
     28          6           0       -3.042829    0.914752   -1.031758
     29          6           0       -1.503861    4.402964   -0.857910
     30          6           0        7.900428   -0.820158   -1.886584
     31          6           0       -1.663150    5.171597    0.403335
     32          6           0       -4.339999    3.008062   -1.920237
     33          6           0       -3.912946   -0.078333   -1.441128
     34          6           0       -2.631642   -1.593753    2.887884
     35          6           0       -3.626708   -1.537777   -1.219107
     36          6           0        9.094273   -0.773619   -1.190524
     37          6           0       -1.160087    6.649382    0.320917
     38          6           0       -4.593661   -2.584837   -1.415015
     39          6           0       -3.909042   -3.814437   -1.073132
     40          6           0       -2.539316   -3.346268   -0.540769
     41          6           0       -5.960870   -2.443402   -1.867530
     42          6           0       -4.349701   -5.200803   -1.074247
     43          6           0       -6.845541   -3.399221   -2.057160
     44          1           0        4.171271   -2.105363    0.163408
     45          1           0        4.777819    0.872248    1.081972
     46          1           0        4.994588   -0.753095    1.907302
     47          1           0        2.728752    1.159498   -0.346157
     48          1           0        3.414626   -0.905634   -1.614498
     49          1           0       -0.383045    0.111542    3.572963
     50          1           0       -1.303690    0.670360    2.046126
     51          1           0        0.640286    2.979129   -0.031657
     52          1           0        3.154245   -1.947083    3.286913
     53          1           0        1.753206   -1.352657    4.142566
     54          1           0        1.658794   -2.638689    2.992745
     55          1           0        6.577790   -3.062846    1.262920
     56          1           0        7.167964   -1.369886    1.914677
     57          1           0        8.134043   -2.248733    0.415813
     58          1           0       -1.025122   -1.860102    1.396219
     59          1           0       -0.534381   -2.282295    2.924294
     60          1           0       -1.426503   -0.289023   -0.454922
     61          1           0       -2.118949    4.969837   -1.679139
     62          1           0       -0.367474    4.524137   -1.091795
     63          1           0        8.107020   -0.631614   -2.993360
     64          1           0       -1.232730    4.552436    1.386332
     65          1           0       -2.782381    5.073527    0.704289
     66          1           0       -4.107446    4.120564   -2.181512
     67          1           0       -5.288165    2.873923   -1.291465
     68          1           0       -4.509970    2.571667   -2.891310
     69          1           0       -4.889649    0.103517   -1.930564
     70          1           0        9.232378   -0.750415   -0.211586
     71          1           0        9.939926   -0.325821   -1.915448
     72          1           0       -3.902296   -2.881738    3.114540
     73          1           0       -6.402667   -1.464687   -1.927911
     74          1           0       -5.138035   -5.655684   -0.394093
     75          1           0       -4.611495   -5.637053   -1.964343
     76          1           0       -3.435685   -5.928366   -0.762376
     77          1           0       -1.132067    7.999068    1.399778
     78          1           0       -7.904697   -3.053399   -2.513528
     79          1           0       -6.664629   -4.468499   -1.741034
 ---------------------------------------------------------------------

 SCF Done:  E(RB3LYP) =  -1947.88628599     A.U. after   17 cycles

 Excitation energies and oscillator strengths:

 Excited State   1:      Singlet-A      1.9069 eV  650.18 nm  f=0.4146  <S**2>=0.000
     154 ->156         0.12519
     155 ->156         0.69413
     155 <-156        -0.11902
 This state for optimization and/or second-order correction.
 Total Energy, E(TD-HF/TD-DFT) =  -1947.81620809
 Copying the excited state density for this state as the 1-particle RhoCI density.

 The electronic state is 1-A.
 Alpha  occ. eigenvalues --  -19.20138 -19.15344 -19.14664 -19.12973 -19.10794
 Alpha  occ. eigenvalues --  -19.10770 -14.37634 -14.35708 -14.34662 -14.28846
 Alpha  occ. eigenvalues --  -10.33450 -10.31585 -10.28743 -10.26625 -10.24461
 Alpha  occ. eigenvalues --  -10.24021 -10.23788 -10.23675 -10.23523 -10.23359
 Alpha  occ. eigenvalues --  -10.22982 -10.22378 -10.22318 -10.22057 -10.21750
 Alpha  occ. eigenvalues --  -10.21663 -10.21556 -10.21055 -10.20999 -10.20911
 Alpha  occ. eigenvalues --  -10.20862 -10.20760 -10.20723 -10.20373 -10.20248
 Alpha  occ. eigenvalues --  -10.19863 -10.19745 -10.19647 -10.19454 -10.19436
 Alpha  occ. eigenvalues --  -10.19332 -10.19234 -10.18703  -1.13601  -1.07188
 Alpha  occ. eigenvalues --   -1.05272  -1.03793  -1.02924  -0.99544  -0.98393
 Alpha  occ. eigenvalues --   -0.97027  -0.94375  -0.90347  -0.83339  -0.82289
 Alpha  occ. eigenvalues --   -0.81689  -0.81218  -0.80357  -0.79159  -0.77810
 Alpha  occ. eigenvalues --   -0.77280  -0.76585  -0.75702  -0.74419  -0.72484
 Alpha  occ. eigenvalues --   -0.71761  -0.71267  -0.69863  -0.68766  -0.67971
 Alpha  occ. eigenvalues --   -0.66260  -0.66025  -0.63656  -0.62648  -0.60491
 Alpha  occ. eigenvalues --   -0.59488  -0.57972  -0.57893  -0.57353  -0.56923
 Alpha  occ. eigenvalues --   -0.55698  -0.54695  -0.54528  -0.54474  -0.53401
 Alpha  occ. eigenvalues --   -0.52415  -0.51749  -0.51448  -0.50978  -0.50398
 Alpha  occ. eigenvalues --   -0.49902  -0.49441  -0.49345  -0.48613  -0.47635
 Alpha  occ. eigenvalues --   -0.47435  -0.46974  -0.46477  -0.46058  -0.45822
 Alpha  occ. eigenvalues --   -0.45072  -0.44581  -0.44312  -0.43990  -0.43608
 Alpha  occ. eigenvalues --   -0.43378  -0.43136  -0.42631  -0.42570  -0.42432
 Alpha  occ. eigenvalues --   -0.42404  -0.42154  -0.41793  -0.41477  -0.40727
 Alpha  occ. eigenvalues --   -0.40637  -0.40458  -0.40239  -0.39989  -0.39817
 Alpha  occ. eigenvalues --   -0.39619  -0.39477  -0.39262  -0.38954  -0.38901
 Alpha  occ. eigenvalues --   -0.38100  -0.37865  -0.37675  -0.37320  -0.36924
 Alpha  occ. eigenvalues --   -0.36350  -0.35948  -0.35268  -0.34763  -0.34691
 Alpha  occ. eigenvalues --   -0.33671  -0.33233  -0.33024  -0.32808  -0.32633
 Alpha  occ. eigenvalues --   -0.31203  -0.30819  -0.30005  -0.28813  -0.28034
 Alpha  occ. eigenvalues --   -0.27895  -0.26899  -0.26123  -0.25609  -0.25009
 Alpha  occ. eigenvalues --   -0.24035  -0.23998  -0.23321  -0.21811  -0.18493
 Alpha virt. eigenvalues --   -0.11012  -0.07751  -0.06973  -0.01099  -0.00638
 Alpha virt. eigenvalues --   -0.00293   0.00034   0.00693   0.02785   0.03108
 Alpha virt. eigenvalues --    0.03945   0.04756   0.05186   0.05496   0.05789

 Mulliken charges:
               1
     1  O   -0.155498
     2  O   -0.187570
     3  O   -0.221874
     4  O   -0.093567
     5  O   -0.204006
     6  O   -0.156430
     7  N   -0.089615
     8  N   -0.212928
     9  N   -0.116364
    10  N   -0.319533
    11  C    0.118685
    12  C    0.133047
    13  C   -0.077754
    14  C   -0.088487
    15  C   -0.097867
    16  C    0.130273
    17  C   -0.127054
    18  C    0.020410
    19  C    0.008938
    20  C   -0.112969
    21  C    0.026103
    22  C    0.138919
    23  C   -0.024700
    24  C    0.105859
    25  C   -0.030131
    26  C   -0.161381
    27  C    0.028645
    28  C    0.169517
    29  C    0.045244
    30  C   -0.097886
    31  C   -0.138252
    32  C    0.073928
    33  C   -0.127714
    34  C    0.187937
    35  C    0.056927
    36  C   -0.027667
    37  C    0.154242
    38  C    0.056296
    39  C   -0.150891
    40  C    0.151080
    41  C   -0.010378
    42  C    0.027495
    43  C   -0.074648
    44  H   -0.008998
    45  H    0.025744
    46  H   -0.037998
    47  H    0.122265
    48  H    0.125774
    49  H    0.017118
    50  H    0.044550
    51  H    0.005666
    52  H   -0.025311
    53  H    0.020028
    54  H    0.030241
    55  H    0.041086
    56  H    0.076902
    57  H    0.063245
    58  H    0.058366
    59  H    0.024932
    60  H    0.174491
    61  H    0.028677
    62  H    0.041903
    63  H    0.038075
    64  H    0.067765
    65  H    0.043374
    66  H    0.022993
    67  H    0.051691
    68  H    0.016752
    69  H   -0.020954
    70  H   -0.017008
    71  H    0.046111
    72  H    0.124563
    73  H   -0.014315
    74  H    0.040293
    75  H    0.004858
    76  H    0.028433
    77  H    0.139701
    78  H    0.044120
    79  H    0.026489
 Sum of Mulliken charges =  -0.00000

 Dipole moment (field-independent basis, Debye):
    X=              1.0298    Y=              1.6050    Z=              2.6958  Tot=              3.3021
 Quadrupole moment (field-independent basis, Debye-Ang):
   XX=           -219.3824   YY=           -241.3961   ZZ=           -266.2343
   XY=             -8.2613   XZ=             31.6247   YZ=              5.0474

 Normal termination of Gaussian 16 at Fri Oct  4 09:43:34 2019.
