 Gaussian 16, Revision A.03,
 Gaussian 16:  ES64L-G16RevA.03 25-Dec-2016

 --------------------------
 # td=(NStates=1) B3LYP/SVP
 --------------------------

 --
 TD
 --
 Symbolic Z-matrix:
 Charge =  0 Multiplicity = 1

                         Standard orientation:
 ---------------------------------------------------------------------
 Center     Atomic      Atomic             Coordinates (Angstroms)
 Number     Number       Type             X           Y           Z
 ---------------------------------------------------------------------
      1          8           0        5.205202   -0.314972   -3.290206
      2          8           0       -3.119260   -2.649505    3.341439
      3          8           0       -3.483590   -0.482120    2.911263
      4          8           0       -1.377558    7.149434    1.515050
      5          8           0       -0.409743    7.007141   -0.545766
      6          8           0       -1.713254   -4.072143    0.030055
      7          7           0        2.297204    0.949728    0.617810
      8          7           0        4.368483   -0.585442   -1.195067
      9          7           0       -1.719611    0.621676   -0.459438
     10          7           0       -2.628676   -1.879806   -0.449831
     11          6           0        4.775566   -1.173841    0.054633
     12          6           0        4.394645   -0.256208    1.326146
     13          6           0        2.896651   -0.029581    1.454676
     14          6           0        1.947603   -0.574202    2.154689
     15          6           0        0.716351    0.015454    1.896003
     16          6           0        0.974674    0.921369    0.809024
     17          6           0        6.336339   -1.438782   -0.187815
     18          6           0       -0.625460   -0.101327    2.628730
     19          6           0        6.585357   -1.021213   -1.452388
     20          6           0        0.125475    1.886755    0.153210
     21          6           0       -1.105200    1.794531   -0.331555
     22          6           0        5.355499   -0.595103   -2.075538
     23          6           0       -1.826656    2.852970   -0.986219
     24          6           0        2.154784   -1.594088    3.200733
     25          6           0        7.092166   -2.075818    0.927893
     26          6           0       -2.993306    2.304154   -1.439274
     27          6           0       -1.236000   -1.482025    2.629983
     28          6           0       -2.909829    0.906507   -1.068744
     29          6           0       -1.428980    4.333317   -1.092077
     30          6           0        7.836118   -0.986224   -2.093456
     31          6           0       -1.610868    5.104057    0.201913
     32          6           0       -4.179999    2.930170   -2.077799
     33          6           0       -3.945139   -0.079092   -1.252906
     34          6           0       -2.691909   -1.401966    2.864931
     35          6           0       -3.710034   -1.454090   -1.062484
     36          6           0        9.010986   -0.847993   -1.462078
     37          6           0       -1.110930    6.497183    0.300501
     38          6           0       -4.609480   -2.578085   -1.448669
     39          6           0       -3.990601   -3.708455   -0.982414
     40          6           0       -2.568852   -3.328259   -0.497701
     41          6           0       -5.887392   -2.397115   -2.162365
     42          6           0       -4.369300   -5.168520   -0.975259
     43          6           0       -6.801333   -3.387332   -2.415268
     44          1           0        4.337905   -2.094246    0.189597
     45          1           0        5.049667    0.506495    1.397267
     46          1           0        4.594494   -1.138269    2.182993
     47          1           0        2.753817    1.546855   -0.065401
     48          1           0        3.405766   -0.720070   -1.611429
     49          1           0       -0.353638    0.054790    3.699062
     50          1           0       -1.241391    0.675873    2.053504
     51          1           0        0.677205    2.831588   -0.117537
     52          1           0        3.100814   -1.936809    3.198092
     53          1           0        1.734607   -1.321460    4.180864
     54          1           0        1.631950   -2.525566    2.914064
     55          1           0        6.255910   -2.764130    1.581589
     56          1           0        7.369645   -1.222941    1.867306
     57          1           0        8.072106   -2.441944    0.610087
     58          1           0       -1.155736   -1.987542    1.626115
     59          1           0       -0.987836   -2.220665    3.415787
     60          1           0       -1.502668   -0.375536   -0.161457
     61          1           0       -1.948170    4.816286   -2.021975
     62          1           0       -0.360787    4.400761   -1.309098
     63          1           0        7.904054   -1.249336   -3.118290
     64          1           0       -1.197855    4.473593    1.167613
     65          1           0       -2.828323    5.205389    0.430983
     66          1           0       -4.157024    4.102769   -2.057192
     67          1           0       -5.159657    2.684949   -1.317031
     68          1           0       -4.441372    2.656690   -3.080513
     69          1           0       -4.882672    0.245534   -1.711947
     70          1           0        9.096733   -0.665000   -0.471525
     71          1           0       10.052483   -1.179648   -2.137144
     72          1           0       -3.989327   -2.762842    3.502201
     73          1           0       -6.150708   -1.398355   -2.537207
     74          1           0       -5.222797   -5.608091   -0.490028
     75          1           0       -4.521466   -5.389053   -2.151555
     76          1           0       -3.582658   -5.601531   -0.615791
     77          1           0       -0.793477    8.172838    1.357212
     78          1           0       -7.592043   -3.229256   -2.918594
     79          1           0       -6.609405   -4.590780   -2.003957
 ---------------------------------------------------------------------

 SCF Done:  E(RB3LYP) =  -1947.81108615     A.U. after   16 cycles

 Excitation energies and oscillator strengths:

 Excited State   1:      Singlet-A      2.0646 eV  600.53 nm  f=0.3608  <S**2>=0.000
     154 ->156         0.21560
     155 ->156         0.66691
     155 <-156        -0.10122
 This state for optimization and/or second-order correction.
 Total Energy, E(TD-HF/TD-DFT) =  -1947.73521379
 Copying the excited state density for this state as the 1-particle RhoCI density.

 The electronic state is 1-A.
 Alpha  occ. eigenvalues --  -19.19310 -19.14162 -19.13839 -19.11521 -19.11309
 Alpha  occ. eigenvalues --  -19.08707 -14.38013 -14.37088 -14.35760 -14.29074
 Alpha  occ. eigenvalues --  -10.32971 -10.30570 -10.27662 -10.27474 -10.25227
 Alpha  occ. eigenvalues --  -10.24802 -10.24683 -10.24227 -10.23927 -10.23140
 Alpha  occ. eigenvalues --  -10.23026 -10.22960 -10.22886 -10.22711 -10.22629
 Alpha  occ. eigenvalues --  -10.22581 -10.22060 -10.21632 -10.21618 -10.20803
 Alpha  occ. eigenvalues --  -10.20452 -10.20421 -10.20243 -10.20188 -10.19966
 Alpha  occ. eigenvalues --  -10.19778 -10.19541 -10.19239 -10.19216 -10.18948
 Alpha  occ. eigenvalues --  -10.18497 -10.18184 -10.18031  -1.07960  -1.06773
 Alpha  occ. eigenvalues --   -1.01650  -1.00607  -1.00055  -0.99116  -0.98988
 Alpha  occ. eigenvalues --   -0.98403  -0.93784  -0.91817  -0.83575  -0.83460
 Alpha  occ. eigenvalues --   -0.82902  -0.82127  -0.79981  -0.79600  -0.78280
 Alpha  occ. eigenvalues --   -0.78115  -0.76623  -0.75776  -0.74375  -0.72841
 Alpha  occ. eigenvalues --   -0.71952  -0.71827  -0.70198  -0.69774  -0.68592
 Alpha  occ. eigenvalues --   -0.67932  -0.66114  -0.64017  -0.61419  -0.60852
 Alpha  occ. eigenvalues --   -0.59498  -0.58906  -0.58347  -0.57873  -0.57643
 Alpha  occ. eigenvalues --   -0.56738  -0.56065  -0.54956  -0.54480  -0.53376
 Alpha  occ. eigenvalues --   -0.52740  -0.52199  -0.51896  -0.50317  -0.50183
 Alpha  occ. eigenvalues --   -0.48986  -0.48502  -0.48292  -0.48104  -0.47464
 Alpha  occ. eigenvalues --   -0.47342  -0.47022  -0.46571  -0.46434  -0.45725
 Alpha  occ. eigenvalues --   -0.45294  -0.44768  -0.44721  -0.44543  -0.43858
 Alpha  occ. eigenvalues --   -0.43596  -0.43440  -0.43189  -0.42485  -0.42216
 Alpha  occ. eigenvalues --   -0.42160  -0.41997  -0.41514  -0.41368  -0.41184
 Alpha  occ. eigenvalues --   -0.40964  -0.40456  -0.40108  -0.39727  -0.39481
 Alpha  occ. eigenvalues --   -0.39421  -0.39270  -0.39187  -0.38863  -0.38575
 Alpha  occ. eigenvalues --   -0.38395  -0.37936  -0.37766  -0.36969  -0.36643
 Alpha  occ. eigenvalues --   -0.36186  -0.35841  -0.35169  -0.35021  -0.34659
 Alpha  occ. eigenvalues --   -0.34462  -0.34385  -0.33856  -0.32571  -0.31140
 Alpha  occ. eigenvalues --   -0.30991  -0.30333  -0.28995  -0.28890  -0.27923
 Alpha  occ. eigenvalues --   -0.27359  -0.26559  -0.26387  -0.25446  -0.25073
 Alpha  occ. eigenvalues --   -0.24368  -0.24277  -0.23545  -0.21832  -0.19273
 Alpha virt. eigenvalues --   -0.10961  -0.06665  -0.06314  -0.01746  -0.01059
 Alpha virt. eigenvalues --   -0.00729  -0.00230   0.00988   0.01347   0.01766
 Alpha virt. eigenvalues --    0.02497   0.04043   0.04446   0.04472   0.05181

 Mulliken charges:
               1
     1  O   -0.267833
     2  O   -0.203808
     3  O   -0.220563
     4  O   -0.312993
     5  O   -0.227511
     6  O   -0.236307
     7  N   -0.074563
     8  N   -0.139895
     9  N   -0.037941
    10  N   -0.331938
    11  C    0.078170
    12  C    0.170684
    13  C   -0.052266
    14  C   -0.126731
    15  C   -0.132002
    16  C    0.016860
    17  C   -0.114726
    18  C    0.140162
    19  C    0.006601
    20  C   -0.156791
    21  C    0.113692
    22  C    0.095302
    23  C   -0.082488
    24  C    0.196657
    25  C   -0.017525
    26  C   -0.088408
    27  C   -0.016766
    28  C    0.078279
    29  C    0.128843
    30  C   -0.017154
    31  C   -0.105529
    32  C    0.011922
    33  C   -0.094737
    34  C    0.129418
    35  C    0.097311
    36  C   -0.046494
    37  C    0.186609
    38  C    0.076036
    39  C   -0.241266
    40  C    0.219354
    41  C   -0.034337
    42  C    0.137069
    43  C    0.010015
    44  H   -0.009641
    45  H   -0.030422
    46  H    0.016767
    47  H    0.116385
    48  H    0.151502
    49  H    0.009928
    50  H    0.038846
    51  H   -0.006860
    52  H   -0.061024
    53  H    0.020737
    54  H    0.014740
    55  H    0.060075
    56  H    0.058301
    57  H    0.047661
    58  H    0.080029
    59  H    0.042927
    60  H    0.170320
    61  H    0.041643
    62  H    0.010178
    63  H    0.004794
    64  H    0.086598
    65  H    0.063651
    66  H    0.032336
    67  H    0.058330
    68  H    0.040198
    69  H   -0.032898
    70  H   -0.017021
    71  H    0.051777
    72  H    0.132777
    73  H   -0.007009
    74  H    0.030563
    75  H    0.041293
    76  H   -0.035768
    77  H    0.260027
    78  H   -0.042661
    79  H    0.048505
 Sum of Mulliken charges =  -0.00000

 Dipole moment (field-independent basis, Debye):
    X=              0.6869    Y=              2.1849    Z=              2.7768  Tot=              3.5995
 Quadrupole moment (field-independent basis, Debye-Ang):
   XX=           -225.2551   YY=           -246.8520   ZZ=           -265.3583
   XY=            -10.7218   XZ=             37.8926   YZ=             -0.3761

 Normal termination of Gaussian 16 at Wed Sep 25 21:59:06 2019.
