 Gaussian 16, Revision A.03,
 Gaussian 16:  ES64L-G16RevA.03 25-Dec-2016

 --------------------------
 # td=(NStates=1) B3LYP/SVP
 --------------------------

 --
 TD
 --
 Symbolic Z-matrix:
 Charge =  0 Multiplicity = 1

                         Standard orientation:
 ---------------------------------------------------------------------
 Center     Atomic      Atomic             Coordinates (Angstroms)
 Number     Number       Type             X           Y           Z
 ---------------------------------------------------------------------
      1          8           0       -3.249316   -1.067111   -2.837205
      2          8           0        3.243185    2.867504    2.877136
      3          8           0        3.652967    1.336861    4.479669
      4          8           0        7.636053   -1.666870   -0.624479
      5          8           0        6.523492   -2.944314   -2.162553
      6          8           0       -2.570836    1.705426    1.605156
      7          7           0       -0.292780   -2.499025    0.783563
      8          7           0       -2.641503   -1.248637   -0.566111
      9          7           0        1.149613    0.080400   -0.743216
     10          7           0       -1.016876    1.487096   -0.136165
     11          6           0       -3.459789   -1.418490    0.617820
     12          6           0       -2.781270   -2.508089    1.486640
     13          6           0       -1.274047   -2.289735    1.675669
     14          6           0       -0.627957   -1.385415    2.683184
     15          6           0        0.769123   -1.294182    2.434537
     16          6           0        0.957362   -1.942125    1.151625
     17          6           0       -4.695738   -1.975891    0.177953
     18          6           0        1.815607   -0.562857    3.141340
     19          6           0       -4.789077   -1.971933   -1.173770
     20          6           0        2.152960   -1.945618    0.158780
     21          6           0        2.110056   -0.873404   -0.696921
     22          6           0       -3.577557   -1.361649   -1.737898
     23          6           0        3.104130   -0.560174   -1.800574
     24          6           0       -1.384062   -0.786610    3.922093
     25          6           0       -5.761910   -2.205408    1.143175
     26          6           0        2.557813    0.541600   -2.377143
     27          6           0        1.972697    0.967238    2.713721
     28          6           0        1.316135    0.988691   -1.751198
     29          6           0        4.260795   -1.375094   -1.970764
     30          6           0       -5.849936   -2.349977   -2.132137
     31          6           0        5.453513   -0.944445   -1.151731
     32          6           0        3.099532    1.139142   -3.733758
     33          6           0        0.544324    2.101600   -1.926407
     34          6           0        2.978115    1.678387    3.510380
     35          6           0       -0.619647    2.381224   -1.087042
     36          6           0       -7.013784   -2.997637   -1.979253
     37          6           0        6.611102   -1.957011   -1.478825
     38          6           0       -1.436098    3.612923   -1.092546
     39          6           0       -2.255545    3.447911   -0.003452
     40          6           0       -1.945205    2.133797    0.579941
     41          6           0       -1.182434    4.637215   -1.988676
     42          6           0       -3.390682    4.370221    0.526599
     43          6           0       -1.629675    6.070689   -1.850011
     44          1           0       -3.402872   -0.431368    1.268508
     45          1           0       -2.787737   -3.372322    1.057154
     46          1           0       -3.292492   -2.555924    2.495880
     47          1           0       -0.429372   -2.905574   -0.204941
     48          1           0       -2.066710   -0.325906   -0.506048
     49          1           0        1.636334   -0.591507    4.224837
     50          1           0        2.713293   -1.209699    3.138149
     51          1           0        2.961756   -2.658191    0.366516
     52          1           0       -2.331843   -1.494710    4.163971
     53          1           0       -0.806616   -0.608401    4.730780
     54          1           0       -1.829781    0.085530    3.362298
     55          1           0       -5.598536   -1.594103    2.045905
     56          1           0       -5.766916   -3.104374    1.573064
     57          1           0       -6.832094   -2.022681    0.813775
     58          1           0        2.248633    0.924529    1.726584
     59          1           0        1.106971    1.560227    2.648186
     60          1           0        0.147213    0.201494   -0.189464
     61          1           0        4.549304   -1.321276   -3.176069
     62          1           0        4.035316   -2.328162   -1.909595
     63          1           0       -5.645908   -1.943891   -3.179542
     64          1           0        5.275598   -0.926800    0.010997
     65          1           0        5.753897    0.020749   -1.269407
     66          1           0        3.893827    0.381437   -4.086581
     67          1           0        3.531670    2.319192   -3.822584
     68          1           0        2.211872    0.810976   -4.658727
     69          1           0        0.773770    2.890697   -2.689922
     70          1           0       -6.952612   -3.455067   -1.077524
     71          1           0       -7.995140   -3.060869   -2.657380
     72          1           0        3.986415    3.299951    3.354189
     73          1           0       -0.846725    4.150409   -3.065571
     74          1           0       -3.970459    5.018248   -0.471880
     75          1           0       -4.266100    3.671265    1.180756
     76          1           0       -3.184664    5.161157    1.148057
     77          1           0        8.252233   -2.468008   -0.752195
     78          1           0       -1.378091    6.791139   -2.687589
     79          1           0       -2.140076    6.311678   -0.920983
 ---------------------------------------------------------------------

 SCF Done:  E(RB3LYP) =  -1947.77423174     A.U. after   19 cycles

 Excitation energies and oscillator strengths:

 Excited State   1:      Singlet-A      0.6579 eV 1884.56 nm  f=0.0026  <S**2>=0.000
     155 ->156         0.70419
 This state for optimization and/or second-order correction.
 Total Energy, E(TD-HF/TD-DFT) =  -1947.75005462
 Copying the excited state density for this state as the 1-particle RhoCI density.

 The electronic state is 1-A.
 Alpha  occ. eigenvalues --  -19.20126 -19.17073 -19.15300 -19.12286 -19.11800
 Alpha  occ. eigenvalues --  -19.10002 -14.37514 -14.37091 -14.32303 -14.31534
 Alpha  occ. eigenvalues --  -10.34001 -10.31493 -10.28298 -10.27082 -10.26648
 Alpha  occ. eigenvalues --  -10.26585 -10.25454 -10.24500 -10.23863 -10.23564
 Alpha  occ. eigenvalues --  -10.22820 -10.22817 -10.22786 -10.22617 -10.22398
 Alpha  occ. eigenvalues --  -10.22086 -10.21809 -10.21680 -10.21535 -10.21439
 Alpha  occ. eigenvalues --  -10.20828 -10.20534 -10.20095 -10.19424 -10.19200
 Alpha  occ. eigenvalues --  -10.19011 -10.18721 -10.18660 -10.18567 -10.18499
 Alpha  occ. eigenvalues --  -10.17189 -10.17016 -10.16914  -1.10807  -1.08016
 Alpha  occ. eigenvalues --   -1.02880  -1.02642  -1.01465  -0.99704  -0.98769
 Alpha  occ. eigenvalues --   -0.94871  -0.94600  -0.91495  -0.84665  -0.82200
 Alpha  occ. eigenvalues --   -0.81923  -0.80633  -0.79908  -0.78673  -0.77670
 Alpha  occ. eigenvalues --   -0.76706  -0.75358  -0.74937  -0.74033  -0.71749
 Alpha  occ. eigenvalues --   -0.70992  -0.70195  -0.69615  -0.67876  -0.67006
 Alpha  occ. eigenvalues --   -0.65940  -0.65479  -0.63389  -0.62273  -0.60674
 Alpha  occ. eigenvalues --   -0.60310  -0.58768  -0.58496  -0.58099  -0.55939
 Alpha  occ. eigenvalues --   -0.55367  -0.54895  -0.53761  -0.53520  -0.52276
 Alpha  occ. eigenvalues --   -0.51919  -0.51589  -0.50484  -0.50307  -0.49904
 Alpha  occ. eigenvalues --   -0.49500  -0.48544  -0.48410  -0.47830  -0.47498
 Alpha  occ. eigenvalues --   -0.47003  -0.46867  -0.46476  -0.46161  -0.45908
 Alpha  occ. eigenvalues --   -0.45365  -0.44847  -0.44484  -0.44038  -0.43623
 Alpha  occ. eigenvalues --   -0.43376  -0.43290  -0.43157  -0.42284  -0.42075
 Alpha  occ. eigenvalues --   -0.41845  -0.41374  -0.40976  -0.40450  -0.40351
 Alpha  occ. eigenvalues --   -0.40193  -0.39993  -0.39828  -0.39743  -0.39626
 Alpha  occ. eigenvalues --   -0.39433  -0.39136  -0.38784  -0.38459  -0.37894
 Alpha  occ. eigenvalues --   -0.37692  -0.37525  -0.37129  -0.36261  -0.35963
 Alpha  occ. eigenvalues --   -0.35801  -0.35432  -0.35001  -0.34719  -0.34552
 Alpha  occ. eigenvalues --   -0.33791  -0.33331  -0.32459  -0.31969  -0.31639
 Alpha  occ. eigenvalues --   -0.31221  -0.30735  -0.30316  -0.30062  -0.28621
 Alpha  occ. eigenvalues --   -0.27743  -0.27169  -0.26124  -0.25526  -0.23945
 Alpha  occ. eigenvalues --   -0.23822  -0.22904  -0.22758  -0.22083  -0.17859
 Alpha virt. eigenvalues --   -0.13167  -0.08238  -0.04958  -0.04119  -0.02111
 Alpha virt. eigenvalues --    0.00171   0.01669   0.01888   0.02501   0.02676
 Alpha virt. eigenvalues --    0.03245   0.04020   0.04426   0.04619   0.05460

 Mulliken charges:
               1
     1  O   -0.174820
     2  O   -0.217086
     3  O   -0.241467
     4  O   -0.208196
     5  O   -0.209397
     6  O   -0.257730
     7  N   -0.077527
     8  N   -0.318977
     9  N   -0.136913
    10  N   -0.296033
    11  C   -0.009430
    12  C    0.295388
    13  C   -0.111591
    14  C   -0.189777
    15  C   -0.090312
    16  C   -0.078349
    17  C   -0.135765
    18  C    0.118021
    19  C   -0.036314
    20  C   -0.127445
    21  C    0.134787
    22  C    0.142481
    23  C   -0.027913
    24  C    0.078849
    25  C    0.153407
    26  C   -0.125143
    27  C    0.092437
    28  C    0.174226
    29  C    0.140731
    30  C   -0.047432
    31  C    0.000841
    32  C   -0.064798
    33  C   -0.099321
    34  C    0.140122
    35  C    0.055604
    36  C   -0.020156
    37  C    0.167706
    38  C    0.094917
    39  C   -0.121752
    40  C    0.168868
    41  C   -0.140093
    42  C   -0.036849
    43  C   -0.026290
    44  H    0.081556
    45  H   -0.091256
    46  H   -0.000393
    47  H    0.141732
    48  H    0.172120
    49  H   -0.005620
    50  H   -0.001462
    51  H    0.031374
    52  H    0.008798
    53  H   -0.010664
    54  H    0.054150
    55  H    0.008306
    56  H   -0.017635
    57  H    0.035475
    58  H    0.000575
    59  H    0.027350
    60  H    0.255695
    61  H    0.034094
    62  H   -0.027405
    63  H    0.015519
    64  H    0.061603
    65  H    0.002687
    66  H    0.025462
    67  H    0.077351
    68  H    0.057024
    69  H    0.002063
    70  H   -0.018649
    71  H    0.060795
    72  H    0.178713
    73  H    0.058324
    74  H    0.042878
    75  H    0.072930
    76  H    0.030877
    77  H    0.197567
    78  H    0.062977
    79  H    0.043581
 Sum of Mulliken charges =  -0.00000

 Dipole moment (field-independent basis, Debye):
    X=              2.9754    Y=              2.5832    Z=             -2.1592  Tot=              4.4931
 Quadrupole moment (field-independent basis, Debye-Ang):
   XX=           -226.4696   YY=           -231.6538   ZZ=           -274.7210
   XY=              1.3482   XZ=            -18.4280   YZ=            -12.3064

 Normal termination of Gaussian 16 at Mon Jul 29 08:28:59 2019.
