 Gaussian 16, Revision A.03,
 Gaussian 16:  ES64L-G16RevA.03 25-Dec-2016

 --------------------------
 # td=(NStates=1) B3LYP/SVP
 --------------------------

 --
 TD
 --
 Symbolic Z-matrix:
 Charge =  0 Multiplicity = 1

                         Standard orientation:
 ---------------------------------------------------------------------
 Center     Atomic      Atomic             Coordinates (Angstroms)
 Number     Number       Type             X           Y           Z
 ---------------------------------------------------------------------
      1          8           0       -3.340860   -1.203554   -2.965749
      2          8           0        3.257406    2.789369    3.250025
      3          8           0        4.096247    0.880772    4.103447
      4          8           0        7.851023   -1.500608   -1.089151
      5          8           0        6.520689   -3.043981   -2.104285
      6          8           0       -2.742889    1.462274    1.499931
      7          7           0       -0.332323   -2.429473    0.762887
      8          7           0       -2.678114   -1.063565   -0.758370
      9          7           0        1.149857    0.208767   -0.670239
     10          7           0       -1.060401    1.453929   -0.052823
     11          6           0       -3.332166   -1.402860    0.549570
     12          6           0       -2.703400   -2.357199    1.471998
     13          6           0       -1.252586   -2.074116    1.663999
     14          6           0       -0.607909   -1.346997    2.817215
     15          6           0        0.725907   -1.242298    2.412449
     16          6           0        0.937290   -1.911498    1.110451
     17          6           0       -4.681289   -1.877233    0.172362
     18          6           0        1.768080   -0.557334    3.206458
     19          6           0       -4.808170   -1.948315   -1.207419
     20          6           0        2.068618   -1.855933    0.143096
     21          6           0        2.128492   -0.783928   -0.659292
     22          6           0       -3.559701   -1.369513   -1.765992
     23          6           0        3.044928   -0.426617   -1.749992
     24          6           0       -1.354947   -0.730951    3.944385
     25          6           0       -5.851858   -2.129737    1.190336
     26          6           0        2.448838    0.651260   -2.455394
     27          6           0        1.971144    0.996411    2.899680
     28          6           0        1.311541    1.081570   -1.690058
     29          6           0        4.306973   -1.202553   -2.113073
     30          6           0       -5.855648   -2.448596   -2.061584
     31          6           0        5.518102   -0.995663   -1.227355
     32          6           0        3.184586    1.463073   -3.529274
     33          6           0        0.478544    2.154398   -1.922917
     34          6           0        3.258743    1.486822    3.511432
     35          6           0       -0.664241    2.340500   -1.046860
     36          6           0       -6.930213   -3.183460   -1.870550
     37          6           0        6.581881   -1.965408   -1.503221
     38          6           0       -1.521376    3.576536   -1.075311
     39          6           0       -2.413341    3.343733    0.072959
     40          6           0       -2.087852    2.025553    0.577012
     41          6           0       -1.286485    4.696004   -1.818119
     42          6           0       -3.392232    4.156321    0.621770
     43          6           0       -2.111330    5.818927   -2.051193
     44          1           0       -3.586683   -0.497398    1.081348
     45          1           0       -2.550987   -3.274290    1.064084
     46          1           0       -3.149151   -2.309103    2.454976
     47          1           0       -0.434329   -2.944755   -0.027064
     48          1           0       -2.040551   -0.424505   -0.742969
     49          1           0        1.734508   -0.588401    4.274945
     50          1           0        3.045077   -1.031286    3.068796
     51          1           0        2.821058   -2.551683   -0.005005
     52          1           0       -2.324592   -1.221425    4.342965
     53          1           0       -0.559943   -0.568138    4.646925
     54          1           0       -1.606127    0.294710    3.583557
     55          1           0       -5.353363   -1.646753    2.026577
     56          1           0       -6.032884   -3.272594    1.497340
     57          1           0       -6.654206   -1.910228    0.649773
     58          1           0        1.830757    0.952030    1.745687
     59          1           0        1.314200    1.792694    3.322129
     60          1           0        0.274035    0.156505   -0.096105
     61          1           0        4.667714   -0.998473   -3.144459
     62          1           0        4.017879   -2.323534   -2.249683
     63          1           0       -5.639959   -2.333026   -3.165668
     64          1           0        5.330722   -1.236277   -0.070748
     65          1           0        5.784913   -0.043400   -1.212321
     66          1           0        4.429537    0.915738   -3.710372
     67          1           0        3.422483    2.552523   -3.367832
     68          1           0        2.486081    1.436809   -4.401034
     69          1           0        0.677266    2.951220   -2.521216
     70          1           0       -7.113710   -3.463269   -0.860467
     71          1           0       -7.508164   -3.519370   -2.617006
     72          1           0        3.894807    3.117163    3.859705
     73          1           0       -0.229214    4.570489   -2.471710
     74          1           0       -4.309283    4.271753   -0.223482
     75          1           0       -3.702468    3.582224    1.554099
     76          1           0       -3.088486    5.233995    0.875770
     77          1           0        8.529422   -2.154819   -1.263060
     78          1           0       -1.932957    6.570074   -2.744163
     79          1           0       -3.042998    5.767627   -1.383642
 ---------------------------------------------------------------------

 SCF Done:  E(RB3LYP) =  -1947.79510315     A.U. after   21 cycles

 Excitation energies and oscillator strengths:

 Excited State   1:      Singlet-A      0.8156 eV 1520.16 nm  f=0.0054  <S**2>=0.000
     155 ->156         0.70245
 This state for optimization and/or second-order correction.
 Total Energy, E(TD-HF/TD-DFT) =  -1947.76513048
 Copying the excited state density for this state as the 1-particle RhoCI density.

 The electronic state is 1-A.
 Alpha  occ. eigenvalues --  -19.18341 -19.17971 -19.14184 -19.13309 -19.11379
 Alpha  occ. eigenvalues --  -19.07350 -14.37940 -14.37543 -14.32406 -14.30910
 Alpha  occ. eigenvalues --  -10.33859 -10.31653 -10.27265 -10.26865 -10.26292
 Alpha  occ. eigenvalues --  -10.26089 -10.25350 -10.24239 -10.23981 -10.23411
 Alpha  occ. eigenvalues --  -10.23223 -10.22878 -10.22671 -10.22371 -10.21757
 Alpha  occ. eigenvalues --  -10.21604 -10.21511 -10.21426 -10.21176 -10.21151
 Alpha  occ. eigenvalues --  -10.20949 -10.20699 -10.20620 -10.20403 -10.20060
 Alpha  occ. eigenvalues --  -10.19997 -10.18945 -10.18633 -10.18367 -10.18210
 Alpha  occ. eigenvalues --  -10.18084 -10.17851 -10.16577  -1.11692  -1.08399
 Alpha  occ. eigenvalues --   -1.02424  -1.01399  -1.00154  -1.00044  -0.99729
 Alpha  occ. eigenvalues --   -0.97536  -0.92860  -0.91911  -0.84177  -0.83210
 Alpha  occ. eigenvalues --   -0.82064  -0.81285  -0.80268  -0.80170  -0.79598
 Alpha  occ. eigenvalues --   -0.78214  -0.76516  -0.76190  -0.75124  -0.72882
 Alpha  occ. eigenvalues --   -0.71080  -0.70765  -0.70438  -0.69671  -0.68339
 Alpha  occ. eigenvalues --   -0.67266  -0.66252  -0.63724  -0.62286  -0.60965
 Alpha  occ. eigenvalues --   -0.60789  -0.60393  -0.59653  -0.57473  -0.57338
 Alpha  occ. eigenvalues --   -0.56360  -0.56016  -0.55164  -0.53647  -0.53351
 Alpha  occ. eigenvalues --   -0.53030  -0.52263  -0.51192  -0.50690  -0.50005
 Alpha  occ. eigenvalues --   -0.49302  -0.49182  -0.48924  -0.48428  -0.48238
 Alpha  occ. eigenvalues --   -0.48133  -0.47928  -0.47104  -0.46464  -0.46332
 Alpha  occ. eigenvalues --   -0.46296  -0.45591  -0.45353  -0.45059  -0.44616
 Alpha  occ. eigenvalues --   -0.44446  -0.43902  -0.43152  -0.42452  -0.42244
 Alpha  occ. eigenvalues --   -0.42114  -0.41933  -0.41521  -0.41429  -0.41406
 Alpha  occ. eigenvalues --   -0.40963  -0.40469  -0.40106  -0.39750  -0.39648
 Alpha  occ. eigenvalues --   -0.39351  -0.39103  -0.38827  -0.38619  -0.38487
 Alpha  occ. eigenvalues --   -0.38233  -0.37685  -0.37435  -0.36974  -0.36809
 Alpha  occ. eigenvalues --   -0.35586  -0.35403  -0.35163  -0.34861  -0.34101
 Alpha  occ. eigenvalues --   -0.33425  -0.33098  -0.32782  -0.32146  -0.31830
 Alpha  occ. eigenvalues --   -0.30472  -0.30249  -0.29434  -0.29119  -0.28928
 Alpha  occ. eigenvalues --   -0.28765  -0.27442  -0.25968  -0.24825  -0.23536
 Alpha  occ. eigenvalues --   -0.23086  -0.22948  -0.22165  -0.22112  -0.18700
 Alpha virt. eigenvalues --   -0.13301  -0.08865  -0.04066  -0.02982  -0.02283
 Alpha virt. eigenvalues --    0.00355   0.00658   0.01059   0.03180   0.03284
 Alpha virt. eigenvalues --    0.03551   0.04315   0.04593   0.05026   0.05175

 Mulliken charges:
               1
     1  O   -0.250346
     2  O   -0.141719
     3  O   -0.200415
     4  O   -0.230966
     5  O   -0.235162
     6  O   -0.263366
     7  N    0.002711
     8  N   -0.128670
     9  N   -0.104825
    10  N   -0.281613
    11  C    0.086551
    12  C    0.383079
    13  C   -0.207223
    14  C   -0.099994
    15  C   -0.032263
    16  C   -0.028481
    17  C   -0.245567
    18  C   -0.044158
    19  C   -0.009330
    20  C   -0.054664
    21  C    0.122333
    22  C    0.136602
    23  C   -0.050313
    24  C    0.108127
    25  C    0.132502
    26  C   -0.089055
    27  C   -0.079201
    28  C    0.172916
    29  C    0.022363
    30  C   -0.056227
    31  C    0.084611
    32  C   -0.030937
    33  C   -0.033110
    34  C    0.124637
    35  C    0.066386
    36  C    0.039388
    37  C    0.143538
    38  C    0.100125
    39  C   -0.141536
    40  C    0.165462
    41  C   -0.133818
    42  C   -0.029418
    43  C   -0.007676
    44  H    0.035231
    45  H   -0.067297
    46  H   -0.023877
    47  H    0.081788
    48  H    0.059623
    49  H    0.004903
    50  H    0.032192
    51  H   -0.033825
    52  H    0.030540
    53  H   -0.009886
    54  H    0.038126
    55  H    0.026028
    56  H    0.043270
    57  H    0.009513
    58  H    0.066100
    59  H    0.043464
    60  H    0.210761
    61  H    0.020313
    62  H    0.057764
    63  H    0.008220
    64  H    0.072982
    65  H   -0.011285
    66  H    0.052061
    67  H    0.056796
    68  H    0.050996
    69  H   -0.077576
    70  H   -0.024143
    71  H   -0.014031
    72  H    0.148250
    73  H    0.026760
    74  H    0.069117
    75  H    0.050119
    76  H    0.051795
    77  H    0.180627
    78  H    0.019475
    79  H    0.033827
 Sum of Mulliken charges =  -0.00000

 Dipole moment (field-independent basis, Debye):
    X=              3.3157    Y=              3.4356    Z=              0.3673  Tot=              4.7887
 Quadrupole moment (field-independent basis, Debye-Ang):
   XX=           -243.1619   YY=           -235.9935   ZZ=           -264.8098
   XY=              8.7402   XZ=            -21.9672   YZ=             -8.9922

 Normal termination of Gaussian 16 at Tue Jul 30 21:59:38 2019.
