 Gaussian 16, Revision A.03,
 Gaussian 16:  ES64L-G16RevA.03 25-Dec-2016

 --------------------------
 # td=(NStates=1) B3LYP/SVP
 --------------------------

 --
 TD
 --
 Symbolic Z-matrix:
 Charge =  0 Multiplicity = 1

                         Standard orientation:
 ---------------------------------------------------------------------
 Center     Atomic      Atomic             Coordinates (Angstroms)
 Number     Number       Type             X           Y           Z
 ---------------------------------------------------------------------
      1          8           0       -3.182652   -1.035151   -2.981036
      2          8           0        3.312258    2.659468    3.373140
      3          8           0        3.614378    0.818946    4.709321
      4          8           0        7.620433   -1.551925   -0.661922
      5          8           0        6.751916   -2.627384   -2.437126
      6          8           0       -2.609796    1.432264    1.544748
      7          7           0       -0.297243   -2.522559    0.618611
      8          7           0       -2.704585   -1.116362   -0.621003
      9          7           0        1.031254    0.118104   -0.869008
     10          7           0       -1.016675    1.475589   -0.128467
     11          6           0       -3.460143   -1.363029    0.566484
     12          6           0       -2.633733   -2.550821    1.487326
     13          6           0       -1.240568   -2.251432    1.601145
     14          6           0       -0.456963   -1.569416    2.701589
     15          6           0        0.791070   -1.462690    2.318500
     16          6           0        0.920802   -1.967416    0.980715
     17          6           0       -4.753164   -2.004350    0.072528
     18          6           0        1.954685   -0.821975    3.062355
     19          6           0       -4.750225   -2.001241   -1.275065
     20          6           0        2.119807   -1.844704    0.096711
     21          6           0        2.022735   -0.773064   -0.800857
     22          6           0       -3.483609   -1.374792   -1.763455
     23          6           0        2.907910   -0.446830   -1.980191
     24          6           0       -1.321357   -1.015102    3.795751
     25          6           0       -5.912678   -2.301931    0.988681
     26          6           0        2.533666    0.723019   -2.439253
     27          6           0        2.091317    0.664221    2.786954
     28          6           0        1.285499    1.116593   -1.730607
     29          6           0        4.170269   -1.219722   -2.253968
     30          6           0       -5.822502   -2.136578   -2.248045
     31          6           0        5.420290   -0.864008   -1.353748
     32          6           0        3.261815    1.398532   -3.634792
     33          6           0        0.450992    2.265242   -1.878373
     34          6           0        3.103914    1.352295    3.754261
     35          6           0       -0.652341    2.429949   -1.017609
     36          6           0       -6.952475   -2.932971   -2.056327
     37          6           0        6.686577   -1.764656   -1.582975
     38          6           0       -1.388305    3.694271   -0.821034
     39          6           0       -2.385202    3.425587    0.132739
     40          6           0       -2.008688    2.092345    0.705103
     41          6           0       -1.223192    4.904282   -1.592570
     42          6           0       -3.458009    4.233676    0.775551
     43          6           0       -1.885957    6.055832   -1.558446
     44          1           0       -3.474285   -0.419957    1.326478
     45          1           0       -2.969322   -3.570092    1.159973
     46          1           0       -3.031865   -2.189957    2.634047
     47          1           0       -0.578157   -2.878209   -0.332608
     48          1           0       -2.105686   -0.334462   -0.641064
     49          1           0        1.635670   -0.856775    4.058500
     50          1           0        2.731448   -1.450197    2.667932
     51          1           0        2.865933   -2.574612    0.042578
     52          1           0       -1.837096   -1.765771    4.459842
     53          1           0       -0.801478   -0.605029    4.783770
     54          1           0       -1.995830   -0.196856    3.396878
     55          1           0       -5.739281   -1.669972    1.910921
     56          1           0       -6.250276   -3.379162    1.455798
     57          1           0       -6.809697   -1.956709    0.589566
     58          1           0        2.243304    0.911260    1.620568
     59          1           0        1.007824    1.159313    2.679138
     60          1           0        0.134769    0.245670   -0.305343
     61          1           0        4.410276   -1.130109   -3.190481
     62          1           0        4.200186   -2.392152   -1.948931
     63          1           0       -5.672755   -1.736844   -3.238940
     64          1           0        5.399693   -0.823179   -0.215919
     65          1           0        5.758371    0.194534   -1.409215
     66          1           0        4.166050    0.967786   -4.054654
     67          1           0        3.568479    2.464069   -3.267658
     68          1           0        2.568355    1.601503   -4.442168
     69          1           0        0.817985    2.989686   -2.580079
     70          1           0       -7.101454   -3.596158   -1.254070
     71          1           0       -7.805673   -2.876266   -2.938595
     72          1           0        3.915968    2.891209    4.149970
     73          1           0       -0.465334    4.836834   -2.457510
     74          1           0       -4.092013    4.830147   -0.092097
     75          1           0       -4.150630    3.609621    1.350843
     76          1           0       -3.258588    5.199053    1.465445
     77          1           0        8.344366   -2.313942   -0.933532
     78          1           0       -1.746597    7.049056   -2.209879
     79          1           0       -2.617642    6.378814   -0.651896
 ---------------------------------------------------------------------

 SCF Done:  E(RB3LYP) =  -1947.84150680     A.U. after   17 cycles

 Excitation energies and oscillator strengths:

 Excited State   1:      Singlet-A      0.6394 eV 1939.00 nm  f=0.0017  <S**2>=0.000
     155 ->156         0.70429
 This state for optimization and/or second-order correction.
 Total Energy, E(TD-HF/TD-DFT) =  -1947.81800836
 Copying the excited state density for this state as the 1-particle RhoCI density.

 The electronic state is 1-A.
 Alpha  occ. eigenvalues --  -19.20685 -19.18542 -19.13736 -19.13590 -19.12974
 Alpha  occ. eigenvalues --  -19.08397 -14.37724 -14.37604 -14.33080 -14.31494
 Alpha  occ. eigenvalues --  -10.33303 -10.32445 -10.29058 -10.27288 -10.27152
 Alpha  occ. eigenvalues --  -10.25691 -10.25375 -10.23226 -10.22869 -10.22725
 Alpha  occ. eigenvalues --  -10.22709 -10.22573 -10.22309 -10.22251 -10.22186
 Alpha  occ. eigenvalues --  -10.22146 -10.22112 -10.22093 -10.22047 -10.21335
 Alpha  occ. eigenvalues --  -10.21316 -10.20959 -10.20619 -10.20566 -10.20067
 Alpha  occ. eigenvalues --  -10.20044 -10.19449 -10.19166 -10.18742 -10.18700
 Alpha  occ. eigenvalues --  -10.17888 -10.16799 -10.16542  -1.10865  -1.09201
 Alpha  occ. eigenvalues --   -1.03629  -1.01415  -1.01263  -1.00826  -0.97476
 Alpha  occ. eigenvalues --   -0.95526  -0.93545  -0.91133  -0.84036  -0.82131
 Alpha  occ. eigenvalues --   -0.81522  -0.80725  -0.80526  -0.78264  -0.77667
 Alpha  occ. eigenvalues --   -0.76290  -0.75386  -0.74962  -0.73641  -0.72174
 Alpha  occ. eigenvalues --   -0.70833  -0.69911  -0.69690  -0.69015  -0.67115
 Alpha  occ. eigenvalues --   -0.65726  -0.65396  -0.63334  -0.60716  -0.60194
 Alpha  occ. eigenvalues --   -0.59398  -0.59003  -0.58122  -0.57451  -0.56759
 Alpha  occ. eigenvalues --   -0.56320  -0.55326  -0.55267  -0.53439  -0.52546
 Alpha  occ. eigenvalues --   -0.51902  -0.51344  -0.50590  -0.49736  -0.49672
 Alpha  occ. eigenvalues --   -0.49092  -0.48968  -0.48825  -0.48700  -0.48222
 Alpha  occ. eigenvalues --   -0.47459  -0.46847  -0.46391  -0.45946  -0.45716
 Alpha  occ. eigenvalues --   -0.45452  -0.44918  -0.44666  -0.44309  -0.44205
 Alpha  occ. eigenvalues --   -0.43747  -0.43425  -0.43051  -0.42418  -0.41974
 Alpha  occ. eigenvalues --   -0.41864  -0.41756  -0.41520  -0.41073  -0.40964
 Alpha  occ. eigenvalues --   -0.40709  -0.40359  -0.39838  -0.39756  -0.39397
 Alpha  occ. eigenvalues --   -0.39213  -0.38601  -0.38408  -0.38256  -0.37963
 Alpha  occ. eigenvalues --   -0.37652  -0.37111  -0.36762  -0.36473  -0.36252
 Alpha  occ. eigenvalues --   -0.35146  -0.34658  -0.34421  -0.34305  -0.33873
 Alpha  occ. eigenvalues --   -0.33564  -0.32847  -0.32691  -0.32328  -0.32012
 Alpha  occ. eigenvalues --   -0.30995  -0.30374  -0.29634  -0.29381  -0.29235
 Alpha  occ. eigenvalues --   -0.28808  -0.27891  -0.26604  -0.24542  -0.24264
 Alpha  occ. eigenvalues --   -0.23939  -0.23186  -0.22531  -0.22470  -0.17540
 Alpha virt. eigenvalues --   -0.12827  -0.07815  -0.05087  -0.01714  -0.00539
 Alpha virt. eigenvalues --   -0.00508   0.00661   0.01079   0.01249   0.03163
 Alpha virt. eigenvalues --    0.03791   0.03910   0.04382   0.04607   0.04914

 Mulliken charges:
               1
     1  O   -0.315109
     2  O   -0.208187
     3  O   -0.215944
     4  O   -0.211312
     5  O   -0.238784
     6  O   -0.212823
     7  N   -0.070685
     8  N   -0.169788
     9  N   -0.029941
    10  N   -0.361884
    11  C   -0.023834
    12  C    0.063008
    13  C   -0.076054
    14  C   -0.045105
    15  C   -0.174242
    16  C   -0.051041
    17  C   -0.106683
    18  C    0.290342
    19  C   -0.016293
    20  C   -0.061761
    21  C    0.068515
    22  C    0.162407
    23  C   -0.047071
    24  C   -0.007971
    25  C    0.047574
    26  C   -0.112344
    27  C   -0.142721
    28  C    0.050549
    29  C    0.160004
    30  C   -0.014325
    31  C   -0.057819
    32  C    0.077623
    33  C   -0.064324
    34  C    0.194585
    35  C    0.156661
    36  C   -0.067127
    37  C    0.132975
    38  C    0.055721
    39  C   -0.131410
    40  C    0.189003
    41  C   -0.000327
    42  C   -0.018729
    43  C   -0.124153
    44  H    0.103452
    45  H    0.011755
    46  H    0.025337
    47  H    0.138745
    48  H    0.125363
    49  H   -0.015999
    50  H    0.000809
    51  H   -0.012190
    52  H    0.020768
    53  H   -0.004127
    54  H    0.065203
    55  H    0.015784
    56  H    0.052622
    57  H    0.008706
    58  H    0.035737
    59  H    0.065703
    60  H    0.201180
    61  H   -0.032229
    62  H    0.047538
    63  H    0.017647
    64  H    0.042101
    65  H    0.023800
    66  H    0.030975
    67  H    0.027802
    68  H    0.032576
    69  H   -0.031037
    70  H    0.012080
    71  H    0.043292
    72  H    0.181577
    73  H    0.016803
    74  H    0.044970
    75  H    0.037503
    76  H    0.061234
    77  H    0.230679
    78  H    0.059767
    79  H    0.042902
 Sum of Mulliken charges =  -0.00000

 Dipole moment (field-independent basis, Debye):
    X=              3.1385    Y=              3.8930    Z=             -0.2907  Tot=              5.0091
 Quadrupole moment (field-independent basis, Debye-Ang):
   XX=           -231.5965   YY=           -231.0467   ZZ=           -272.9750
   XY=              1.4413   XZ=            -20.7388   YZ=            -10.2785

 Normal termination of Gaussian 16 at Thu Jul 25 16:33:05 2019.
