 Gaussian 16, Revision A.03,
 Gaussian 16:  ES64L-G16RevA.03 25-Dec-2016

 --------------------------
 # td=(NStates=1) B3LYP/SVP
 --------------------------

 --
 TD
 --
 Symbolic Z-matrix:
 Charge =  0 Multiplicity = 1

                         Standard orientation:
 ---------------------------------------------------------------------
 Center     Atomic      Atomic             Coordinates (Angstroms)
 Number     Number       Type             X           Y           Z
 ---------------------------------------------------------------------
      1          8           0       -3.251668   -1.663191   -2.653267
      2          8           0        2.959157    3.542329    2.946026
      3          8           0        4.121547    1.653292    3.857292
      4          8           0        7.543877   -1.546742   -0.517742
      5          8           0        6.652990   -3.230179   -1.769866
      6          8           0       -2.596175    1.839645    1.414782
      7          7           0       -0.242628   -2.268640    1.169695
      8          7           0       -2.705314   -1.234168   -0.453281
      9          7           0        1.173283   -0.054881   -0.787999
     10          7           0       -1.050327    1.407607   -0.214656
     11          6           0       -3.456030   -1.162306    0.859614
     12          6           0       -2.557561   -2.072137    2.043960
     13          6           0       -1.171662   -1.766291    2.011028
     14          6           0       -0.549879   -0.771773    2.903886
     15          6           0        0.767843   -0.784997    2.484591
     16          6           0        0.983352   -1.596880    1.407335
     17          6           0       -4.732501   -1.849941    0.495305
     18          6           0        1.945777   -0.053946    3.148476
     19          6           0       -4.725625   -2.114285   -0.800322
     20          6           0        2.116448   -1.789503    0.475001
     21          6           0        2.161483   -0.919875   -0.565418
     22          6           0       -3.505722   -1.664003   -1.510826
     23          6           0        2.982817   -0.819606   -1.865322
     24          6           0       -1.248721   -0.035993    3.841041
     25          6           0       -5.740121   -1.970313    1.565612
     26          6           0        2.400488    0.106108   -2.623348
     27          6           0        2.100237    1.456267    2.587292
     28          6           0        1.240183    0.683062   -1.909185
     29          6           0        4.150389   -1.625133   -1.956386
     30          6           0       -5.830204   -2.641127   -1.651384
     31          6           0        5.325759   -1.336720   -1.010890
     32          6           0        2.883610    0.665354   -3.990584
     33          6           0        0.397155    1.672959   -2.270654
     34          6           0        3.231995    2.196862    3.172938
     35          6           0       -0.639017    2.125182   -1.357259
     36          6           0       -6.747461   -3.587258   -1.409392
     37          6           0        6.576245   -2.141267   -1.225920
     38          6           0       -1.484493    3.322547   -1.487659
     39          6           0       -2.392847    3.329430   -0.390202
     40          6           0       -2.023173    2.111403    0.374141
     41          6           0       -1.306152    4.193105   -2.684318
     42          6           0       -3.480559    4.286873   -0.110410
     43          6           0       -1.949072    5.291579   -3.024149
     44          1           0       -3.486925   -0.154799    1.225010
     45          1           0       -2.710686   -3.121970    1.778808
     46          1           0       -2.985972   -1.967085    3.170604
     47          1           0       -0.524102   -2.645720    0.294508
     48          1           0       -1.819693   -0.577969   -0.503828
     49          1           0        1.752069    0.170378    4.320723
     50          1           0        2.744816   -0.421413    3.219739
     51          1           0        2.870180   -2.451490    0.753660
     52          1           0       -1.998479   -0.553815    4.597466
     53          1           0       -0.529691    0.654212    4.512612
     54          1           0       -1.714964    0.987908    3.351449
     55          1           0       -5.851911   -1.199949    2.299395
     56          1           0       -5.534481   -2.854864    2.196261
     57          1           0       -6.828042   -2.351405    1.249547
     58          1           0        2.349871    1.161631    1.652449
     59          1           0        1.279403    2.114951    2.803648
     60          1           0        0.400970    0.067243   -0.211060
     61          1           0        4.525226   -1.709272   -2.956766
     62          1           0        3.807390   -2.747591   -1.678342
     63          1           0       -5.468497   -2.362989   -2.725442
     64          1           0        5.103221   -1.147919    0.062949
     65          1           0        5.696506   -0.238573   -1.298303
     66          1           0        3.443772   -0.195195   -4.448197
     67          1           0        3.428553    1.734902   -3.786154
     68          1           0        1.964400    0.732117   -4.807991
     69          1           0        0.594470    2.189378   -3.178642
     70          1           0       -6.801911   -4.197804   -0.476401
     71          1           0       -7.512915   -3.875425   -2.123477
     72          1           0        3.815028    3.820594    3.436884
     73          1           0       -0.620302    3.798812   -3.399107
     74          1           0       -4.194053    4.331798   -0.842051
     75          1           0       -4.067942    3.882694    0.782232
     76          1           0       -3.043587    5.378347    0.062408
     77          1           0        8.346376   -2.099534   -0.431432
     78          1           0       -1.714834    5.786310   -3.913918
     79          1           0       -2.714061    5.928577   -2.362889
 ---------------------------------------------------------------------

 SCF Done:  E(RB3LYP) =  -1947.81618853     A.U. after   18 cycles

 Excitation energies and oscillator strengths:

 Excited State   1:      Singlet-A      0.7588 eV 1633.91 nm  f=0.0021  <S**2>=0.000
     155 ->156         0.70513
 This state for optimization and/or second-order correction.
 Total Energy, E(TD-HF/TD-DFT) =  -1947.78830251
 Copying the excited state density for this state as the 1-particle RhoCI density.

 The electronic state is 1-A.
 Alpha  occ. eigenvalues --  -19.19808 -19.19585 -19.14032 -19.13620 -19.12008
 Alpha  occ. eigenvalues --  -19.09128 -14.37547 -14.36478 -14.32648 -14.30998
 Alpha  occ. eigenvalues --  -10.33673 -10.32107 -10.27677 -10.26702 -10.26606
 Alpha  occ. eigenvalues --  -10.26540 -10.25535 -10.24266 -10.23146 -10.22896
 Alpha  occ. eigenvalues --  -10.22824 -10.22272 -10.22270 -10.21834 -10.21676
 Alpha  occ. eigenvalues --  -10.21616 -10.21483 -10.21033 -10.20597 -10.20306
 Alpha  occ. eigenvalues --  -10.20212 -10.20065 -10.19821 -10.19633 -10.19389
 Alpha  occ. eigenvalues --  -10.18747 -10.18567 -10.18296 -10.18153 -10.17825
 Alpha  occ. eigenvalues --  -10.17632 -10.17233 -10.16190  -1.10926  -1.08430
 Alpha  occ. eigenvalues --   -1.03555  -1.03400  -1.02131  -1.01835  -1.00094
 Alpha  occ. eigenvalues --   -0.96571  -0.93179  -0.90701  -0.84906  -0.83719
 Alpha  occ. eigenvalues --   -0.81122  -0.80568  -0.79477  -0.79354  -0.78603
 Alpha  occ. eigenvalues --   -0.77184  -0.76676  -0.75575  -0.74276  -0.72808
 Alpha  occ. eigenvalues --   -0.71318  -0.70312  -0.70187  -0.69441  -0.67466
 Alpha  occ. eigenvalues --   -0.66997  -0.65919  -0.64025  -0.62618  -0.61029
 Alpha  occ. eigenvalues --   -0.60462  -0.58751  -0.58600  -0.57001  -0.56509
 Alpha  occ. eigenvalues --   -0.56016  -0.55806  -0.55227  -0.53474  -0.53166
 Alpha  occ. eigenvalues --   -0.52184  -0.51391  -0.50592  -0.50375  -0.49812
 Alpha  occ. eigenvalues --   -0.49428  -0.49066  -0.48677  -0.48482  -0.48034
 Alpha  occ. eigenvalues --   -0.47551  -0.47437  -0.47136  -0.46834  -0.45924
 Alpha  occ. eigenvalues --   -0.45359  -0.45143  -0.44898  -0.44532  -0.44466
 Alpha  occ. eigenvalues --   -0.43856  -0.43189  -0.43003  -0.42453  -0.42274
 Alpha  occ. eigenvalues --   -0.41899  -0.41830  -0.41652  -0.41484  -0.41268
 Alpha  occ. eigenvalues --   -0.41092  -0.40823  -0.40653  -0.40311  -0.40186
 Alpha  occ. eigenvalues --   -0.40155  -0.39284  -0.38772  -0.38393  -0.38316
 Alpha  occ. eigenvalues --   -0.37782  -0.37116  -0.36990  -0.36270  -0.36034
 Alpha  occ. eigenvalues --   -0.35720  -0.35395  -0.35028  -0.34811  -0.34473
 Alpha  occ. eigenvalues --   -0.33877  -0.32723  -0.32353  -0.32203  -0.32113
 Alpha  occ. eigenvalues --   -0.30903  -0.29596  -0.29476  -0.29270  -0.29099
 Alpha  occ. eigenvalues --   -0.28111  -0.27779  -0.25929  -0.25311  -0.24136
 Alpha  occ. eigenvalues --   -0.23662  -0.23477  -0.22970  -0.22296  -0.18187
 Alpha virt. eigenvalues --   -0.13041  -0.07342  -0.03584  -0.01707  -0.01662
 Alpha virt. eigenvalues --   -0.00901   0.01541   0.02090   0.02859   0.03230
 Alpha virt. eigenvalues --    0.03841   0.04148   0.04531   0.04974   0.05265

 Mulliken charges:
               1
     1  O   -0.173344
     2  O   -0.215676
     3  O   -0.257379
     4  O   -0.180558
     5  O   -0.222664
     6  O   -0.207029
     7  N   -0.030920
     8  N   -0.317135
     9  N    0.013958
    10  N   -0.300022
    11  C    0.065877
    12  C    0.145526
    13  C   -0.138515
    14  C   -0.005937
    15  C   -0.037810
    16  C   -0.076173
    17  C   -0.094837
    18  C    0.169634
    19  C   -0.136478
    20  C   -0.082381
    21  C    0.105486
    22  C    0.172181
    23  C   -0.018232
    24  C   -0.056929
    25  C    0.080279
    26  C   -0.137548
    27  C    0.074094
    28  C    0.110766
    29  C    0.091266
    30  C   -0.000672
    31  C   -0.074300
    32  C    0.000752
    33  C   -0.069883
    34  C    0.143299
    35  C    0.098494
    36  C   -0.052877
    37  C    0.156293
    38  C    0.052030
    39  C   -0.194787
    40  C    0.161383
    41  C    0.009853
    42  C    0.084169
    43  C   -0.037504
    44  H    0.048115
    45  H   -0.028156
    46  H    0.024476
    47  H    0.105606
    48  H    0.166544
    49  H    0.004012
    50  H   -0.125948
    51  H   -0.007813
    52  H    0.037006
    53  H   -0.009066
    54  H    0.058537
    55  H    0.018919
    56  H    0.014013
    57  H    0.022239
    58  H    0.000642
    59  H    0.041977
    60  H    0.138928
    61  H   -0.004853
    62  H    0.046144
    63  H    0.037407
    64  H    0.061078
    65  H    0.041858
    66  H    0.038412
    67  H    0.079608
    68  H    0.055018
    69  H   -0.031142
    70  H    0.021711
    71  H    0.021475
    72  H    0.184582
    73  H   -0.021505
    74  H    0.014343
    75  H    0.033301
    76  H    0.055857
    77  H    0.191427
    78  H    0.007227
    79  H    0.042270
 Sum of Mulliken charges =  -0.00000

 Dipole moment (field-independent basis, Debye):
    X=              3.9395    Y=              3.5253    Z=             -1.5676  Tot=              5.5141
 Quadrupole moment (field-independent basis, Debye-Ang):
   XX=           -235.5328   YY=           -242.3399   ZZ=           -260.7701
   XY=              1.9661   XZ=            -18.2012   YZ=            -17.2841

 Normal termination of Gaussian 16 at Tue Jul 30 19:00:53 2019.
