 Gaussian 16, Revision A.03,
 Gaussian 16:  ES64L-G16RevA.03 25-Dec-2016

 --------------------------
 # td=(NStates=1) B3LYP/SVP
 --------------------------

 --
 TD
 --
 Symbolic Z-matrix:
 Charge =  0 Multiplicity = 1

                         Standard orientation:
 ---------------------------------------------------------------------
 Center     Atomic      Atomic             Coordinates (Angstroms)
 Number     Number       Type             X           Y           Z
 ---------------------------------------------------------------------
      1          8           0       -3.233145   -1.222593   -2.858943
      2          8           0        3.012743    3.091816    3.286511
      3          8           0        4.125777    1.137672    4.184735
      4          8           0        7.651107   -1.527694   -0.923719
      5          8           0        6.615247   -3.235351   -1.993264
      6          8           0       -2.462019    1.616084    1.516642
      7          7           0       -0.363434   -2.207944    0.826007
      8          7           0       -2.790827   -0.909738   -0.585214
      9          7           0        1.242045    0.237701   -0.655416
     10          7           0       -1.009428    1.455472   -0.299860
     11          6           0       -3.461640   -1.224785    0.653330
     12          6           0       -2.742909   -2.185012    1.637997
     13          6           0       -1.283139   -1.982141    1.747404
     14          6           0       -0.575845   -1.127078    2.807489
     15          6           0        0.787451   -1.153120    2.565562
     16          6           0        0.863362   -1.821406    1.227246
     17          6           0       -4.878985   -1.785304    0.206454
     18          6           0        1.876648   -0.469682    3.292073
     19          6           0       -4.875013   -2.013202   -1.106966
     20          6           0        2.043459   -1.794441    0.336749
     21          6           0        2.104072   -0.780084   -0.555608
     22          6           0       -3.642953   -1.394897   -1.690463
     23          6           0        3.005046   -0.622388   -1.776187
     24          6           0       -1.335260   -0.560604    3.930865
     25          6           0       -5.888654   -2.280271    1.305627
     26          6           0        2.512037    0.454091   -2.530518
     27          6           0        2.011414    1.020602    2.903617
     28          6           0        1.491137    0.961733   -1.844808
     29          6           0        4.170380   -1.576917   -2.002237
     30          6           0       -5.897354   -2.555637   -2.001238
     31          6           0        5.477853   -1.239636   -1.221331
     32          6           0        3.113598    0.997384   -3.730649
     33          6           0        0.555140    2.003331   -2.126073
     34          6           0        3.193026    1.704850    3.560456
     35          6           0       -0.607185    2.275085   -1.322795
     36          6           0       -6.890404   -3.397931   -1.706896
     37          6           0        6.621529   -2.121378   -1.451915
     38          6           0       -1.428801    3.528259   -1.284597
     39          6           0       -2.265826    3.452846   -0.135995
     40          6           0       -2.033153    2.053238    0.471411
     41          6           0       -1.308727    4.549639   -2.276805
     42          6           0       -3.219430    4.376118    0.459054
     43          6           0       -1.743761    5.784146   -2.313126
     44          1           0       -3.660816   -0.059489    1.244837
     45          1           0       -2.930814   -3.303300    1.595771
     46          1           0       -3.132760   -2.264267    2.625759
     47          1           0       -0.442886   -2.966779   -0.021595
     48          1           0       -2.284406   -0.099300   -0.563358
     49          1           0        1.603413   -0.816326    4.367357
     50          1           0        2.729017   -0.834583    2.697527
     51          1           0        2.494636   -2.701673    0.222729
     52          1           0       -2.390387   -1.111884    4.144318
     53          1           0       -1.003938   -0.347289    5.137821
     54          1           0       -1.544416    0.532591    3.566227
     55          1           0       -5.763540   -1.581436    2.103126
     56          1           0       -5.657920   -3.231033    1.598854
     57          1           0       -6.933963   -2.310944    0.890109
     58          1           0        2.145620    1.218211    1.881716
     59          1           0        1.088207    1.377992    3.204880
     60          1           0        0.201394    0.393714   -0.360149
     61          1           0        4.452330   -1.674042   -3.153186
     62          1           0        3.726413   -2.642891   -1.607442
     63          1           0       -5.776813   -2.290332   -3.035197
     64          1           0        5.154661   -1.308439   -0.091025
     65          1           0        5.724551   -0.051729   -1.318322
     66          1           0        4.205256    0.536791   -4.018999
     67          1           0        3.395278    2.040490   -3.469081
     68          1           0        2.263903    0.946895   -4.614460
     69          1           0        0.501014    2.628586   -3.133262
     70          1           0       -6.980517   -3.731468   -0.723568
     71          1           0       -7.525443   -3.789097   -2.716313
     72          1           0        3.724285    3.541956    3.585881
     73          1           0       -0.706146    4.335707   -3.153504
     74          1           0       -4.046226    4.509417   -0.207537
     75          1           0       -3.678086    4.030055    1.549464
     76          1           0       -2.887675    5.227223    0.666618
     77          1           0        8.466362   -2.017411   -1.024596
     78          1           0       -1.547286    6.433835   -3.155877
     79          1           0       -2.691134    6.019890   -1.572604
 ---------------------------------------------------------------------

 SCF Done:  E(RB3LYP) =  -1947.74628626     A.U. after   19 cycles

 Excitation energies and oscillator strengths:

 Excited State   1:      Singlet-A      0.5165 eV 2400.27 nm  f=0.0029  <S**2>=0.000
     155 ->156         0.70439
 This state for optimization and/or second-order correction.
 Total Energy, E(TD-HF/TD-DFT) =  -1947.72730365
 Copying the excited state density for this state as the 1-particle RhoCI density.

 The electronic state is 1-A.
 Alpha  occ. eigenvalues --  -19.20084 -19.17302 -19.13449 -19.13259 -19.13124
 Alpha  occ. eigenvalues --  -19.09209 -14.38373 -14.35455 -14.31446 -14.31012
 Alpha  occ. eigenvalues --  -10.33234 -10.32521 -10.28921 -10.27922 -10.25838
 Alpha  occ. eigenvalues --  -10.25803 -10.24905 -10.23744 -10.23696 -10.23588
 Alpha  occ. eigenvalues --  -10.23412 -10.23200 -10.22176 -10.22069 -10.21941
 Alpha  occ. eigenvalues --  -10.21669 -10.21258 -10.20943 -10.20649 -10.20370
 Alpha  occ. eigenvalues --  -10.19881 -10.19844 -10.19521 -10.19494 -10.19420
 Alpha  occ. eigenvalues --  -10.19364 -10.19312 -10.19036 -10.18934 -10.18677
 Alpha  occ. eigenvalues --  -10.18491 -10.17003 -10.16784  -1.12404  -1.07207
 Alpha  occ. eigenvalues --   -1.04105  -1.00872  -0.99565  -0.99259  -0.99141
 Alpha  occ. eigenvalues --   -0.97028  -0.92585  -0.90290  -0.83916  -0.82246
 Alpha  occ. eigenvalues --   -0.81543  -0.80994  -0.80325  -0.78954  -0.77979
 Alpha  occ. eigenvalues --   -0.76964  -0.75707  -0.75457  -0.74373  -0.73054
 Alpha  occ. eigenvalues --   -0.71369  -0.71046  -0.69882  -0.69285  -0.67470
 Alpha  occ. eigenvalues --   -0.65583  -0.64912  -0.62881  -0.62306  -0.61022
 Alpha  occ. eigenvalues --   -0.59488  -0.59112  -0.58839  -0.57090  -0.56338
 Alpha  occ. eigenvalues --   -0.55636  -0.54840  -0.54111  -0.53093  -0.51667
 Alpha  occ. eigenvalues --   -0.51501  -0.51300  -0.50631  -0.49746  -0.49470
 Alpha  occ. eigenvalues --   -0.49124  -0.48985  -0.48510  -0.48105  -0.47661
 Alpha  occ. eigenvalues --   -0.47150  -0.46705  -0.46479  -0.46387  -0.46024
 Alpha  occ. eigenvalues --   -0.45777  -0.44929  -0.44745  -0.44338  -0.43993
 Alpha  occ. eigenvalues --   -0.43820  -0.43020  -0.42678  -0.42218  -0.42003
 Alpha  occ. eigenvalues --   -0.41641  -0.41453  -0.41305  -0.40667  -0.40411
 Alpha  occ. eigenvalues --   -0.40254  -0.40127  -0.39754  -0.39641  -0.39345
 Alpha  occ. eigenvalues --   -0.39260  -0.38716  -0.38321  -0.38201  -0.38046
 Alpha  occ. eigenvalues --   -0.37504  -0.37001  -0.36824  -0.36255  -0.36214
 Alpha  occ. eigenvalues --   -0.35659  -0.34773  -0.34621  -0.34349  -0.33704
 Alpha  occ. eigenvalues --   -0.33212  -0.32991  -0.32184  -0.31903  -0.31076
 Alpha  occ. eigenvalues --   -0.30708  -0.30306  -0.29341  -0.29108  -0.29066
 Alpha  occ. eigenvalues --   -0.27952  -0.26404  -0.25932  -0.24190  -0.23863
 Alpha  occ. eigenvalues --   -0.23558  -0.23266  -0.22244  -0.21894  -0.17360
 Alpha virt. eigenvalues --   -0.12989  -0.08021  -0.04467  -0.01633  -0.01616
 Alpha virt. eigenvalues --   -0.00897   0.01227   0.01686   0.01957   0.03660
 Alpha virt. eigenvalues --    0.03985   0.04150   0.04703   0.04803   0.05169

 Mulliken charges:
               1
     1  O   -0.251114
     2  O   -0.188237
     3  O   -0.246992
     4  O   -0.123945
     5  O   -0.246613
     6  O   -0.184399
     7  N   -0.015584
     8  N   -0.193864
     9  N   -0.124294
    10  N   -0.366331
    11  C    0.014782
    12  C    0.228204
    13  C   -0.148441
    14  C   -0.077444
    15  C   -0.117793
    16  C   -0.098700
    17  C   -0.192520
    18  C    0.135579
    19  C   -0.021459
    20  C   -0.105983
    21  C    0.173384
    22  C    0.177106
    23  C   -0.074593
    24  C   -0.078561
    25  C    0.124201
    26  C   -0.081165
    27  C    0.045407
    28  C    0.129008
    29  C    0.006130
    30  C   -0.001261
    31  C   -0.081388
    32  C    0.007178
    33  C   -0.111998
    34  C    0.185106
    35  C    0.076020
    36  C   -0.035906
    37  C    0.149537
    38  C    0.094780
    39  C   -0.213709
    40  C    0.196135
    41  C   -0.040423
    42  C    0.152465
    43  C   -0.057741
    44  H    0.083603
    45  H   -0.023767
    46  H   -0.049450
    47  H    0.171192
    48  H    0.107689
    49  H    0.051095
    50  H   -0.014382
    51  H   -0.023246
    52  H    0.019811
    53  H    0.024997
    54  H    0.057132
    55  H    0.018282
    56  H    0.015586
    57  H    0.038087
    58  H    0.022950
    59  H    0.016787
    60  H    0.215210
    61  H    0.046851
    62  H    0.055774
    63  H   -0.003907
    64  H    0.072062
    65  H    0.063095
    66  H    0.045597
    67  H    0.040126
    68  H    0.068308
    69  H    0.028963
    70  H   -0.010416
    71  H    0.055790
    72  H    0.133567
    73  H   -0.020273
    74  H    0.029403
    75  H    0.042695
    76  H   -0.032698
    77  H    0.177771
    78  H    0.026103
    79  H    0.035047
 Sum of Mulliken charges =  -0.00000

 Dipole moment (field-independent basis, Debye):
    X=              2.1731    Y=              2.8552    Z=             -1.6542  Tot=              3.9511
 Quadrupole moment (field-independent basis, Debye-Ang):
   XX=           -226.6968   YY=           -238.0645   ZZ=           -266.6309
   XY=             10.0373   XZ=            -23.1490   YZ=            -13.0836

 Normal termination of Gaussian 16 at Thu Jul 25 11:16:07 2019.
