 Gaussian 16, Revision A.03,
 Gaussian 16:  ES64L-G16RevA.03 25-Dec-2016

 --------------------------
 # td=(NStates=1) B3LYP/SVP
 --------------------------

 --
 TD
 --
 Symbolic Z-matrix:
 Charge =  0 Multiplicity = 1

                         Standard orientation:
 ---------------------------------------------------------------------
 Center     Atomic      Atomic             Coordinates (Angstroms)
 Number     Number       Type             X           Y           Z
 ---------------------------------------------------------------------
      1          8           0       -3.170339   -1.273352   -2.930720
      2          8           0        2.955434    3.076091    3.374250
      3          8           0        3.625766    1.191010    4.463039
      4          8           0        7.759737   -1.462425   -0.871975
      5          8           0        6.655216   -3.248194   -1.758097
      6          8           0       -2.711557    1.601531    1.389410
      7          7           0       -0.225736   -2.425870    0.864831
      8          7           0       -2.804950   -1.059816   -0.603685
      9          7           0        1.106137    0.117993   -0.850553
     10          7           0       -1.006136    1.500066   -0.195130
     11          6           0       -3.484597   -1.296466    0.600641
     12          6           0       -2.660126   -2.404651    1.511926
     13          6           0       -1.270856   -2.128601    1.776288
     14          6           0       -0.564661   -1.385826    2.800188
     15          6           0        0.847448   -1.285439    2.492897
     16          6           0        0.904126   -1.925192    1.179333
     17          6           0       -4.808967   -1.909762    0.168440
     18          6           0        1.939666   -0.528365    3.269444
     19          6           0       -4.792296   -1.913776   -1.233985
     20          6           0        2.053114   -1.862065    0.202225
     21          6           0        2.084943   -0.773637   -0.643992
     22          6           0       -3.534278   -1.390794   -1.740778
     23          6           0        3.030747   -0.658776   -1.853706
     24          6           0       -1.246036   -0.651303    3.848786
     25          6           0       -5.850196   -2.276305    1.071240
     26          6           0        2.660824    0.569180   -2.510897
     27          6           0        1.980502    0.979997    2.750889
     28          6           0        1.387953    0.995094   -1.888684
     29          6           0        4.262092   -1.474543   -2.057101
     30          6           0       -5.875605   -2.355807   -2.051783
     31          6           0        5.497160   -0.951342   -1.407949
     32          6           0        3.203198    1.257531   -3.654772
     33          6           0        0.603255    2.179456   -1.983234
     34          6           0        2.937945    1.734820    3.612768
     35          6           0       -0.525556    2.394896   -1.133371
     36          6           0       -6.871790   -3.263599   -1.773991
     37          6           0        6.585051   -1.972437   -1.413379
     38          6           0       -1.404735    3.513409   -1.051713
     39          6           0       -2.306569    3.453812   -0.090252
     40          6           0       -2.072352    2.087516    0.452865
     41          6           0       -1.131165    4.571284   -2.003579
     42          6           0       -3.442258    4.309582    0.520155
     43          6           0       -1.875948    5.764508   -2.105187
     44          1           0       -3.538494   -0.317284    1.180038
     45          1           0       -2.859051   -3.336904    1.075202
     46          1           0       -3.216020   -2.390711    2.567988
     47          1           0       -0.493063   -2.711853   -0.035218
     48          1           0       -1.900943   -0.398774   -0.617762
     49          1           0        1.509705   -0.424032    4.299561
     50          1           0        2.782177   -1.215238    3.033476
     51          1           0        2.733854   -2.591536    0.200989
     52          1           0       -2.159737   -1.349026    4.129675
     53          1           0       -0.591814   -0.842190    4.919847
     54          1           0       -1.444073    0.387040    3.542769
     55          1           0       -5.834998   -1.609765    2.010426
     56          1           0       -5.950270   -3.305054    1.481673
     57          1           0       -7.016725   -1.971075    0.684943
     58          1           0        2.270690    1.047929    1.789944
     59          1           0        0.944549    1.191898    2.764104
     60          1           0        0.543022    0.513317   -0.066043
     61          1           0        4.334387   -1.538913   -3.191964
     62          1           0        3.954294   -2.495700   -1.799115
     63          1           0       -5.754197   -1.903550   -3.094851
     64          1           0        5.394323   -0.942680   -0.289478
     65          1           0        5.647866    0.087517   -1.821073
     66          1           0        4.025729    0.522232   -4.155200
     67          1           0        3.695120    2.359543   -3.602726
     68          1           0        2.259616    1.455956   -4.202367
     69          1           0        1.057371    2.833896   -2.597335
     70          1           0       -7.093160   -3.561312   -0.715710
     71          1           0       -7.633473   -3.504855   -2.452457
     72          1           0        3.839758    3.388736    3.765865
     73          1           0       -0.264145    4.406531   -2.752595
     74          1           0       -4.135453    4.423929   -0.229153
     75          1           0       -3.995961    3.843156    1.306922
     76          1           0       -2.937768    5.260750    0.714118
     77          1           0        8.439041   -2.126841   -1.088280
     78          1           0       -1.825870    6.344806   -2.982372
     79          1           0       -2.745761    6.051755   -1.567733
 ---------------------------------------------------------------------

 SCF Done:  E(RB3LYP) =  -1947.84158833     A.U. after   21 cycles

 Excitation energies and oscillator strengths:

 Excited State   1:      Singlet-A      0.7456 eV 1662.88 nm  f=0.0002  <S**2>=0.000
     155 ->156         0.70415
 This state for optimization and/or second-order correction.
 Total Energy, E(TD-HF/TD-DFT) =  -1947.81418804
 Copying the excited state density for this state as the 1-particle RhoCI density.

 The electronic state is 1-A.
 Alpha  occ. eigenvalues --  -19.19387 -19.18675 -19.14444 -19.12698 -19.12524
 Alpha  occ. eigenvalues --  -19.07436 -14.38052 -14.36833 -14.32835 -14.31182
 Alpha  occ. eigenvalues --  -10.35199 -10.32036 -10.28025 -10.27821 -10.26358
 Alpha  occ. eigenvalues --  -10.26170 -10.26117 -10.25024 -10.24694 -10.24299
 Alpha  occ. eigenvalues --  -10.24220 -10.23110 -10.22682 -10.22256 -10.21858
 Alpha  occ. eigenvalues --  -10.21839 -10.21527 -10.20848 -10.20758 -10.20708
 Alpha  occ. eigenvalues --  -10.20378 -10.20224 -10.19872 -10.19848 -10.19842
 Alpha  occ. eigenvalues --  -10.19637 -10.19353 -10.19125 -10.18877 -10.18117
 Alpha  occ. eigenvalues --  -10.17952 -10.17353 -10.17073  -1.08844  -1.08781
 Alpha  occ. eigenvalues --   -1.02971  -1.00616  -1.00052  -0.98547  -0.98247
 Alpha  occ. eigenvalues --   -0.97159  -0.94394  -0.91503  -0.85412  -0.83518
 Alpha  occ. eigenvalues --   -0.81648  -0.80767  -0.80147  -0.80044  -0.78863
 Alpha  occ. eigenvalues --   -0.77147  -0.75946  -0.75326  -0.74532  -0.73628
 Alpha  occ. eigenvalues --   -0.71642  -0.70320  -0.70077  -0.69244  -0.68241
 Alpha  occ. eigenvalues --   -0.66561  -0.66426  -0.63969  -0.61744  -0.61472
 Alpha  occ. eigenvalues --   -0.60771  -0.59656  -0.59469  -0.58197  -0.56987
 Alpha  occ. eigenvalues --   -0.55892  -0.55083  -0.54837  -0.53784  -0.52848
 Alpha  occ. eigenvalues --   -0.52625  -0.52175  -0.51346  -0.50878  -0.50444
 Alpha  occ. eigenvalues --   -0.50296  -0.49909  -0.49107  -0.48708  -0.48209
 Alpha  occ. eigenvalues --   -0.47942  -0.47705  -0.46786  -0.46399  -0.45842
 Alpha  occ. eigenvalues --   -0.45576  -0.45137  -0.44747  -0.44226  -0.43920
 Alpha  occ. eigenvalues --   -0.43702  -0.43645  -0.43148  -0.42857  -0.42653
 Alpha  occ. eigenvalues --   -0.42523  -0.42068  -0.41894  -0.41785  -0.41112
 Alpha  occ. eigenvalues --   -0.40966  -0.40584  -0.40486  -0.40386  -0.40037
 Alpha  occ. eigenvalues --   -0.39771  -0.39563  -0.39338  -0.38834  -0.38217
 Alpha  occ. eigenvalues --   -0.37866  -0.37691  -0.37168  -0.36808  -0.36598
 Alpha  occ. eigenvalues --   -0.36216  -0.36176  -0.35583  -0.35040  -0.34869
 Alpha  occ. eigenvalues --   -0.34480  -0.32369  -0.32183  -0.32112  -0.31288
 Alpha  occ. eigenvalues --   -0.30857  -0.29106  -0.29069  -0.28949  -0.28556
 Alpha  occ. eigenvalues --   -0.28239  -0.27553  -0.26021  -0.24120  -0.23653
 Alpha  occ. eigenvalues --   -0.23249  -0.22858  -0.22168  -0.21904  -0.18640
 Alpha virt. eigenvalues --   -0.13457  -0.08461  -0.04891  -0.04572  -0.02922
 Alpha virt. eigenvalues --   -0.00392   0.01150   0.01461   0.01812   0.02164
 Alpha virt. eigenvalues --    0.02636   0.03563   0.03996   0.04772   0.05339

 Mulliken charges:
               1
     1  O   -0.270694
     2  O   -0.214111
     3  O   -0.230799
     4  O   -0.208041
     5  O   -0.310593
     6  O   -0.217936
     7  N    0.040313
     8  N   -0.254941
     9  N   -0.069504
    10  N   -0.334955
    11  C    0.042541
    12  C    0.171593
    13  C   -0.076280
    14  C   -0.129330
    15  C   -0.175058
    16  C   -0.091792
    17  C   -0.090173
    18  C    0.151441
    19  C   -0.041730
    20  C   -0.038549
    21  C    0.085846
    22  C    0.162433
    23  C   -0.120923
    24  C   -0.001989
    25  C   -0.027732
    26  C   -0.073095
    27  C    0.038115
    28  C    0.062957
    29  C    0.070020
    30  C   -0.044393
    31  C    0.050900
    32  C   -0.030333
    33  C   -0.020782
    34  C    0.159778
    35  C    0.149030
    36  C   -0.023338
    37  C    0.183457
    38  C    0.080273
    39  C   -0.220877
    40  C    0.154360
    41  C   -0.077727
    42  C    0.189541
    43  C   -0.003708
    44  H    0.063478
    45  H   -0.038082
    46  H    0.010338
    47  H    0.095576
    48  H    0.180545
    49  H    0.012633
    50  H    0.021370
    51  H   -0.025374
    52  H    0.017203
    53  H    0.022060
    54  H    0.068121
    55  H    0.024645
    56  H    0.049905
    57  H    0.049631
    58  H   -0.006844
    59  H    0.038583
    60  H    0.193656
    61  H    0.034127
    62  H    0.028349
    63  H    0.017049
    64  H    0.062632
    65  H    0.067925
    66  H    0.052003
    67  H    0.066404
    68  H    0.053739
    69  H   -0.074381
    70  H    0.014601
    71  H    0.008217
    72  H    0.199717
    73  H    0.022085
    74  H    0.007290
    75  H    0.022655
    76  H    0.035394
    77  H    0.191312
    78  H    0.013758
    79  H    0.006466
 Sum of Mulliken charges =  -0.00000

 Dipole moment (field-independent basis, Debye):
    X=              4.2069    Y=              4.7144    Z=             -1.7208  Tot=              6.5486
 Quadrupole moment (field-independent basis, Debye-Ang):
   XX=           -234.0192   YY=           -243.8921   ZZ=           -272.2488
   XY=              8.7962   XZ=            -28.0065   YZ=            -14.4001

 Normal termination of Gaussian 16 at Fri Jul 26 11:13:05 2019.
