 Gaussian 16, Revision A.03,
 Gaussian 16:  ES64L-G16RevA.03 25-Dec-2016

 --------------------------
 # td=(NStates=1) B3LYP/SVP
 --------------------------

 --
 TD
 --
 Symbolic Z-matrix:
 Charge =  0 Multiplicity = 1

                         Standard orientation:
 ---------------------------------------------------------------------
 Center     Atomic      Atomic             Coordinates (Angstroms)
 Number     Number       Type             X           Y           Z
 ---------------------------------------------------------------------
      1          8           0       -3.128971   -0.853159   -2.888108
      2          8           0        3.086907    2.604549    3.564650
      3          8           0        3.885579    0.755421    4.507743
      4          8           0        7.729667   -1.240189   -0.879323
      5          8           0        6.786974   -2.651160   -2.499652
      6          8           0       -2.775076    1.454715    1.572579
      7          7           0       -0.331315   -2.497726    0.611501
      8          7           0       -2.711084   -1.130246   -0.689515
      9          7           0        1.219601    0.217972   -0.625388
     10          7           0       -0.945095    1.429556    0.091823
     11          6           0       -3.491422   -1.371785    0.554604
     12          6           0       -2.717415   -2.606268    1.294627
     13          6           0       -1.344656   -2.315480    1.532572
     14          6           0       -0.601043   -1.610603    2.662394
     15          6           0        0.686870   -1.510497    2.282764
     16          6           0        0.866184   -2.085872    0.935929
     17          6           0       -4.842743   -1.791307    0.019619
     18          6           0        1.822917   -0.840714    3.215681
     19          6           0       -4.810226   -1.671294   -1.348356
     20          6           0        2.032011   -1.932400    0.170420
     21          6           0        2.070763   -0.845029   -0.742527
     22          6           0       -3.533716   -1.094449   -1.774953
     23          6           0        2.976252   -0.532428   -1.765307
     24          6           0       -1.395005   -1.092662    3.868793
     25          6           0       -5.965713   -2.310569    0.860907
     26          6           0        2.536316    0.719213   -2.369588
     27          6           0        2.119535    0.658761    2.881049
     28          6           0        1.348827    1.117009   -1.741633
     29          6           0        4.177179   -1.318899   -2.226818
     30          6           0       -5.787967   -1.917432   -2.349450
     31          6           0        5.413751   -0.828730   -1.552681
     32          6           0        3.286311    1.498835   -3.446528
     33          6           0        0.529412    2.254422   -1.733780
     34          6           0        3.063630    1.321709    3.813065
     35          6           0       -0.534515    2.405430   -0.788882
     36          6           0       -6.872914   -2.720177   -2.359766
     37          6           0        6.689011   -1.727683   -1.659006
     38          6           0       -1.404698    3.555577   -0.711330
     39          6           0       -2.427707    3.327731    0.205418
     40          6           0       -2.008827    2.002700    0.706855
     41          6           0       -1.203796    4.725485   -1.671033
     42          6           0       -3.512906    4.064375    0.731157
     43          6           0       -1.833746    5.949079   -1.695057
     44          1           0       -3.343273   -0.428973    1.189048
     45          1           0       -2.868702   -3.566739    0.897321
     46          1           0       -3.219134   -2.767697    2.340838
     47          1           0       -0.216846   -2.981007   -0.442628
     48          1           0       -1.925743   -0.587826   -0.451413
     49          1           0        1.596584   -1.188597    4.218872
     50          1           0        2.691468   -1.549296    3.048914
     51          1           0        2.691165   -2.807238    0.168508
     52          1           0       -1.892146   -1.751005    4.557178
     53          1           0       -0.768526   -0.685829    4.457262
     54          1           0       -2.210673   -0.279324    3.624082
     55          1           0       -5.778945   -1.969302    1.969187
     56          1           0       -6.068539   -3.529402    0.788336
     57          1           0       -6.927827   -1.763405    0.634858
     58          1           0        2.515682    0.632731    1.777611
     59          1           0        1.074555    1.238754    2.948957
     60          1           0        0.387007    0.360805   -0.045809
     61          1           0        4.340063   -1.217135   -3.307528
     62          1           0        3.877648   -2.397682   -1.891355
     63          1           0       -5.424400   -1.419272   -3.183455
     64          1           0        5.294332   -0.497556   -0.435788
     65          1           0        5.823456    0.225749   -1.816260
     66          1           0        3.871689    0.531956   -4.095335
     67          1           0        4.355251    2.208119   -3.121373
     68          1           0        2.566004    2.339954   -4.023783
     69          1           0        0.814081    2.878065   -2.568032
     70          1           0       -7.198962   -3.224240   -1.474026
     71          1           0       -7.630009   -3.257995   -3.211212
     72          1           0        3.896153    2.940623    4.186203
     73          1           0       -0.446120    4.715278   -2.220646
     74          1           0       -4.321782    4.205237   -0.070356
     75          1           0       -3.802635    3.614115    1.810572
     76          1           0       -3.329766    5.137298    1.182923
     77          1           0        8.456748   -1.766604   -1.227752
     78          1           0       -1.286094    6.676769   -2.471615
     79          1           0       -2.876879    6.376094   -1.279322
 ---------------------------------------------------------------------

 SCF Done:  E(RB3LYP) =  -1947.73846436     A.U. after   23 cycles

 Excitation energies and oscillator strengths:

 Excited State   1:      Singlet-A      0.5145 eV 2409.63 nm  f=0.0058  <S**2>=0.000
     155 ->156         0.70732
 This state for optimization and/or second-order correction.
 Total Energy, E(TD-HF/TD-DFT) =  -1947.71955549
 Copying the excited state density for this state as the 1-particle RhoCI density.

 The electronic state is 1-A.
 Alpha  occ. eigenvalues --  -19.20303 -19.19164 -19.14834 -19.11881 -19.11599
 Alpha  occ. eigenvalues --  -19.07264 -14.39086 -14.36338 -14.31753 -14.31506
 Alpha  occ. eigenvalues --  -10.34525 -10.31210 -10.27855 -10.26691 -10.26526
 Alpha  occ. eigenvalues --  -10.26114 -10.26107 -10.25617 -10.23995 -10.23632
 Alpha  occ. eigenvalues --  -10.23612 -10.23474 -10.23384 -10.22458 -10.22038
 Alpha  occ. eigenvalues --  -10.21911 -10.21695 -10.21434 -10.21183 -10.21009
 Alpha  occ. eigenvalues --  -10.20969 -10.20781 -10.20595 -10.20468 -10.20311
 Alpha  occ. eigenvalues --  -10.19478 -10.19469 -10.19250 -10.17894 -10.17850
 Alpha  occ. eigenvalues --  -10.17810 -10.17642 -10.16598  -1.10342  -1.09942
 Alpha  occ. eigenvalues --   -1.01035  -1.00995  -1.00670  -0.99752  -0.99168
 Alpha  occ. eigenvalues --   -0.97745  -0.93820  -0.91304  -0.84023  -0.82898
 Alpha  occ. eigenvalues --   -0.81342  -0.80470  -0.79085  -0.78873  -0.78669
 Alpha  occ. eigenvalues --   -0.76989  -0.75881  -0.75364  -0.74219  -0.72716
 Alpha  occ. eigenvalues --   -0.70735  -0.69765  -0.69418  -0.69095  -0.67847
 Alpha  occ. eigenvalues --   -0.66374  -0.65511  -0.63543  -0.61080  -0.60623
 Alpha  occ. eigenvalues --   -0.60466  -0.59605  -0.57646  -0.57209  -0.56675
 Alpha  occ. eigenvalues --   -0.55497  -0.55290  -0.55178  -0.53896  -0.52452
 Alpha  occ. eigenvalues --   -0.52011  -0.51506  -0.50985  -0.50048  -0.49866
 Alpha  occ. eigenvalues --   -0.49342  -0.49103  -0.48401  -0.48026  -0.47773
 Alpha  occ. eigenvalues --   -0.47136  -0.47005  -0.46218  -0.46014  -0.45424
 Alpha  occ. eigenvalues --   -0.45327  -0.44814  -0.44717  -0.44100  -0.43668
 Alpha  occ. eigenvalues --   -0.43264  -0.42929  -0.42560  -0.42324  -0.42038
 Alpha  occ. eigenvalues --   -0.41478  -0.41355  -0.41161  -0.40581  -0.40479
 Alpha  occ. eigenvalues --   -0.40403  -0.40236  -0.39935  -0.39749  -0.39451
 Alpha  occ. eigenvalues --   -0.39095  -0.38872  -0.38213  -0.37916  -0.37680
 Alpha  occ. eigenvalues --   -0.37526  -0.37031  -0.37000  -0.36715  -0.36106
 Alpha  occ. eigenvalues --   -0.35662  -0.35317  -0.35152  -0.34851  -0.33768
 Alpha  occ. eigenvalues --   -0.33742  -0.33156  -0.32099  -0.31967  -0.31393
 Alpha  occ. eigenvalues --   -0.31128  -0.29881  -0.29814  -0.29716  -0.28931
 Alpha  occ. eigenvalues --   -0.27644  -0.26310  -0.25652  -0.24281  -0.23871
 Alpha  occ. eigenvalues --   -0.23567  -0.23148  -0.22566  -0.22153  -0.18406
 Alpha virt. eigenvalues --   -0.14081  -0.08865  -0.04562  -0.02990  -0.02548
 Alpha virt. eigenvalues --   -0.00111   0.00475   0.01510   0.01719   0.02406
 Alpha virt. eigenvalues --    0.02711   0.03247   0.03250   0.04477   0.04715

 Mulliken charges:
               1
     1  O   -0.234471
     2  O   -0.190083
     3  O   -0.245109
     4  O   -0.187266
     5  O   -0.255648
     6  O   -0.272119
     7  N   -0.043029
     8  N   -0.188551
     9  N   -0.151724
    10  N   -0.278875
    11  C    0.009912
    12  C    0.201810
    13  C   -0.125183
    14  C   -0.076446
    15  C   -0.164773
    16  C   -0.066878
    17  C   -0.131762
    18  C    0.097452
    19  C   -0.075365
    20  C   -0.105785
    21  C    0.133253
    22  C    0.154284
    23  C   -0.107457
    24  C    0.162485
    25  C    0.010770
    26  C   -0.048417
    27  C   -0.041939
    28  C    0.102706
    29  C    0.163950
    30  C    0.062649
    31  C   -0.090431
    32  C   -0.115534
    33  C   -0.081940
    34  C    0.136489
    35  C    0.152662
    36  C   -0.086130
    37  C    0.183191
    38  C    0.032678
    39  C   -0.114237
    40  C    0.168024
    41  C    0.113831
    42  C   -0.030250
    43  C   -0.103158
    44  H    0.087475
    45  H   -0.031690
    46  H    0.001602
    47  H    0.169275
    48  H    0.116003
    49  H    0.003543
    50  H   -0.004832
    51  H    0.022989
    52  H   -0.004647
    53  H   -0.080506
    54  H    0.045280
    55  H    0.028816
    56  H    0.068212
    57  H    0.045433
    58  H    0.076179
    59  H    0.067209
    60  H    0.182530
    61  H    0.028172
    62  H    0.044308
    63  H   -0.027856
    64  H    0.049000
    65  H    0.053467
    66  H    0.061913
    67  H    0.071733
    68  H    0.075324
    69  H   -0.021503
    70  H   -0.005593
    71  H    0.050991
    72  H    0.215206
    73  H   -0.102426
    74  H    0.060373
    75  H    0.059012
    76  H    0.041405
    77  H    0.177467
    78  H    0.038825
    79  H    0.063727
 Sum of Mulliken charges =  -0.00000

 Dipole moment (field-independent basis, Debye):
    X=              3.8061    Y=              3.0005    Z=             -0.2146  Tot=              4.8514
 Quadrupole moment (field-independent basis, Debye-Ang):
   XX=           -238.4343   YY=           -231.7177   ZZ=           -271.8829
   XY=              9.8574   XZ=            -23.0349   YZ=             -7.9689

 Normal termination of Gaussian 16 at Sun Jul 28 00:15:48 2019.
