 Gaussian 16, Revision A.03,
 Gaussian 16:  ES64L-G16RevA.03 25-Dec-2016

 --------------------------
 # td=(NStates=1) B3LYP/SVP
 --------------------------

 --
 TD
 --
 Symbolic Z-matrix:
 Charge =  0 Multiplicity = 1

                         Standard orientation:
 ---------------------------------------------------------------------
 Center     Atomic      Atomic             Coordinates (Angstroms)
 Number     Number       Type             X           Y           Z
 ---------------------------------------------------------------------
      1          8           0        5.438388   -0.322870   -3.382700
      2          8           0       -3.011970   -2.905734    3.148972
      3          8           0       -3.209292   -0.616620    3.033529
      4          8           0       -1.668350    7.082916    1.530873
      5          8           0       -0.688755    7.194401   -0.525643
      6          8           0       -1.805932   -3.987521    0.206755
      7          7           0        2.351954    0.805707    0.469031
      8          7           0        4.390106   -0.491900   -1.295301
      9          7           0       -1.874949    0.765075   -0.348528
     10          7           0       -2.594846   -1.928407   -0.476835
     11          6           0        4.742131   -1.171591   -0.004906
     12          6           0        4.301744   -0.275046    1.189028
     13          6           0        2.873211   -0.075940    1.325302
     14          6           0        1.907998   -0.658034    2.124269
     15          6           0        0.746304   -0.118217    1.720098
     16          6           0        0.946953    0.913404    0.768236
     17          6           0        6.270879   -1.381469   -0.107466
     18          6           0       -0.562393   -0.246059    2.552342
     19          6           0        6.655303   -0.998396   -1.340370
     20          6           0        0.143642    1.860324    0.100376
     21          6           0       -1.120347    1.766264   -0.330295
     22          6           0        5.504015   -0.554587   -2.173053
     23          6           0       -1.922893    2.979092   -0.885402
     24          6           0        2.142553   -1.855127    3.062914
     25          6           0        7.064792   -1.783402    1.055801
     26          6           0       -3.135163    2.387845   -1.312951
     27          6           0       -1.128257   -1.646870    2.651771
     28          6           0       -3.087252    0.889854   -1.024825
     29          6           0       -1.474217    4.351772   -0.962227
     30          6           0        7.990496   -0.859068   -1.983765
     31          6           0       -1.496942    5.049357    0.444242
     32          6           0       -4.266571    3.014280   -1.882326
     33          6           0       -4.054769   -0.072044   -1.261332
     34          6           0       -2.574693   -1.604707    2.974451
     35          6           0       -3.621141   -1.500371   -1.087796
     36          6           0        9.266887   -0.613750   -1.366247
     37          6           0       -1.214612    6.507786    0.393591
     38          6           0       -4.576632   -2.672696   -1.526444
     39          6           0       -3.938803   -3.767222   -1.090770
     40          6           0       -2.687960   -3.337667   -0.448731
     41          6           0       -5.837621   -2.325888   -2.186975
     42          6           0       -4.335809   -5.219072   -1.065898
     43          6           0       -6.713854   -3.315171   -2.658349
     44          1           0        4.223502   -2.115283    0.252240
     45          1           0        4.921626    0.572870    1.048231
     46          1           0        4.626115   -0.806450    2.178115
     47          1           0        2.700768    1.467243   -0.101764
     48          1           0        3.484153   -0.395577   -1.636062
     49          1           0       -0.539677    0.466806    3.659522
     50          1           0       -1.393997    0.278158    2.153594
     51          1           0        0.623641    2.829193   -0.172641
     52          1           0        3.213320   -1.995912    3.418568
     53          1           0        1.528872   -1.844506    4.027686
     54          1           0        1.852383   -2.859128    2.430096
     55          1           0        6.300017   -2.533440    1.463143
     56          1           0        7.303922   -0.906046    1.464792
     57          1           0        7.952266   -2.154589    0.662092
     58          1           0       -0.972955   -1.993341    1.728979
     59          1           0       -0.713691   -2.395361    3.280764
     60          1           0       -1.685120   -0.220711   -0.167836
     61          1           0       -2.076412    4.982495   -1.559634
     62          1           0       -0.525566    4.575622   -1.350465
     63          1           0        7.809156   -0.934556   -2.971005
     64          1           0       -0.470942    4.484372    0.915550
     65          1           0       -2.462541    4.827200    1.223732
     66          1           0       -4.033099    3.977354   -2.352915
     67          1           0       -4.957612    3.330225   -0.970526
     68          1           0       -4.773829    2.230131   -2.605157
     69          1           0       -5.135891    0.587708   -1.548317
     70          1           0        9.402796   -0.429323   -0.267946
     71          1           0       10.173871   -0.473887   -2.024251
     72          1           0       -4.026893   -2.966279    3.145453
     73          1           0       -6.177187   -1.339264   -2.728638
     74          1           0       -5.327022   -5.318389   -0.378667
     75          1           0       -4.696516   -5.515223   -2.047352
     76          1           0       -3.512053   -5.778622   -0.646310
     77          1           0       -1.626471    8.080916    1.536102
     78          1           0       -7.541240   -2.946512   -3.133624
     79          1           0       -6.648130   -4.383280   -2.432159
 ---------------------------------------------------------------------

 SCF Done:  E(RB3LYP) =  -1947.81114459     A.U. after   16 cycles

 Excitation energies and oscillator strengths:

 Excited State   1:      Singlet-A      1.8589 eV  666.99 nm  f=0.3746  <S**2>=0.000
     155 ->156         0.70782
     155 <-156        -0.10897
 This state for optimization and/or second-order correction.
 Total Energy, E(TD-HF/TD-DFT) =  -1947.74283259
 Copying the excited state density for this state as the 1-particle RhoCI density.

 The electronic state is 1-A.
 Alpha  occ. eigenvalues --  -19.18870 -19.16492 -19.13033 -19.11927 -19.11497
 Alpha  occ. eigenvalues --  -19.10389 -14.37522 -14.36584 -14.34881 -14.30590
 Alpha  occ. eigenvalues --  -10.33169 -10.30153 -10.28740 -10.27944 -10.25010
 Alpha  occ. eigenvalues --  -10.24980 -10.24931 -10.24065 -10.23537 -10.22451
 Alpha  occ. eigenvalues --  -10.22431 -10.22268 -10.21923 -10.21797 -10.21565
 Alpha  occ. eigenvalues --  -10.21473 -10.21471 -10.21424 -10.21287 -10.21082
 Alpha  occ. eigenvalues --  -10.20940 -10.20687 -10.20676 -10.20495 -10.20462
 Alpha  occ. eigenvalues --  -10.20435 -10.20152 -10.19999 -10.19998 -10.19413
 Alpha  occ. eigenvalues --  -10.18685 -10.18538 -10.16509  -1.08740  -1.07666
 Alpha  occ. eigenvalues --   -1.01581  -1.00625  -1.00126  -0.99967  -0.99184
 Alpha  occ. eigenvalues --   -0.98762  -0.93599  -0.92655  -0.83164  -0.82873
 Alpha  occ. eigenvalues --   -0.82330  -0.81947  -0.81248  -0.80012  -0.78094
 Alpha  occ. eigenvalues --   -0.77475  -0.76909  -0.76173  -0.74944  -0.72434
 Alpha  occ. eigenvalues --   -0.71892  -0.70777  -0.69998  -0.69069  -0.68811
 Alpha  occ. eigenvalues --   -0.66583  -0.66045  -0.64037  -0.61747  -0.60960
 Alpha  occ. eigenvalues --   -0.60722  -0.59475  -0.58944  -0.58492  -0.57512
 Alpha  occ. eigenvalues --   -0.56586  -0.55904  -0.55140  -0.54312  -0.53240
 Alpha  occ. eigenvalues --   -0.52515  -0.52048  -0.51285  -0.50484  -0.49490
 Alpha  occ. eigenvalues --   -0.49176  -0.48669  -0.48393  -0.47920  -0.47694
 Alpha  occ. eigenvalues --   -0.47490  -0.47071  -0.46555  -0.46188  -0.45943
 Alpha  occ. eigenvalues --   -0.45577  -0.45325  -0.45023  -0.43944  -0.43811
 Alpha  occ. eigenvalues --   -0.43414  -0.43231  -0.42936  -0.42753  -0.42226
 Alpha  occ. eigenvalues --   -0.42082  -0.41694  -0.41527  -0.41340  -0.40890
 Alpha  occ. eigenvalues --   -0.40649  -0.40098  -0.39724  -0.39416  -0.39338
 Alpha  occ. eigenvalues --   -0.39115  -0.39042  -0.38778  -0.38625  -0.38369
 Alpha  occ. eigenvalues --   -0.38238  -0.38015  -0.37240  -0.37191  -0.36948
 Alpha  occ. eigenvalues --   -0.36432  -0.35819  -0.35555  -0.35182  -0.34343
 Alpha  occ. eigenvalues --   -0.33934  -0.33629  -0.32131  -0.32019  -0.31560
 Alpha  occ. eigenvalues --   -0.31221  -0.30528  -0.29104  -0.28366  -0.27725
 Alpha  occ. eigenvalues --   -0.27435  -0.26683  -0.25849  -0.25596  -0.25252
 Alpha  occ. eigenvalues --   -0.25154  -0.24334  -0.23874  -0.23410  -0.18316
 Alpha virt. eigenvalues --   -0.11006  -0.06844  -0.05902  -0.02417  -0.01906
 Alpha virt. eigenvalues --   -0.00083   0.00879   0.02021   0.02215   0.02708
 Alpha virt. eigenvalues --    0.02949   0.04044   0.04332   0.04383   0.04760

 Mulliken charges:
               1
     1  O   -0.231974
     2  O   -0.242838
     3  O   -0.185535
     4  O   -0.202643
     5  O   -0.272148
     6  O   -0.236395
     7  N   -0.032137
     8  N   -0.216346
     9  N    0.044515
    10  N   -0.211007
    11  C    0.080847
    12  C    0.135153
    13  C   -0.054242
    14  C   -0.073040
    15  C   -0.110600
    16  C    0.077092
    17  C   -0.217795
    18  C    0.026188
    19  C   -0.085985
    20  C   -0.118715
    21  C    0.031848
    22  C    0.177919
    23  C   -0.051104
    24  C    0.014157
    25  C    0.212386
    26  C   -0.113868
    27  C    0.093090
    28  C    0.057206
    29  C    0.152381
    30  C    0.051219
    31  C   -0.153758
    32  C    0.016566
    33  C   -0.142723
    34  C    0.132284
    35  C    0.023721
    36  C   -0.062571
    37  C    0.181761
    38  C    0.083104
    39  C   -0.217512
    40  C    0.166806
    41  C   -0.085279
    42  C    0.084835
    43  C    0.000042
    44  H    0.016844
    45  H   -0.024903
    46  H    0.004897
    47  H    0.074792
    48  H    0.105315
    49  H    0.019072
    50  H   -0.009232
    51  H   -0.015476
    52  H    0.014257
    53  H    0.043188
    54  H    0.061737
    55  H    0.048245
    56  H    0.008545
    57  H    0.006533
    58  H    0.002807
    59  H    0.007061
    60  H    0.138446
    61  H   -0.014197
    62  H    0.005638
    63  H   -0.022291
    64  H    0.076687
    65  H    0.088750
    66  H    0.021512
    67  H    0.051232
    68  H    0.047384
    69  H    0.066030
    70  H    0.033005
    71  H    0.049349
    72  H    0.195525
    73  H    0.041723
    74  H    0.038720
    75  H    0.028547
    76  H    0.035769
    77  H    0.202721
    78  H    0.002879
    79  H    0.023985
 Sum of Mulliken charges =  -0.00000

 Dipole moment (field-independent basis, Debye):
    X=             -2.0458    Y=              1.4834    Z=              2.5041  Tot=              3.5576
 Quadrupole moment (field-independent basis, Debye-Ang):
   XX=           -214.6612   YY=           -248.2970   ZZ=           -267.5803
   XY=             -4.0118   XZ=             35.6946   YZ=              7.5804

 Normal termination of Gaussian 16 at Thu Oct  3 12:02:12 2019.
