 Gaussian 16, Revision A.03,
 Gaussian 16:  ES64L-G16RevA.03 25-Dec-2016

 --------------------------
 # td=(NStates=1) B3LYP/SVP
 --------------------------

 --
 TD
 --
 Symbolic Z-matrix:
 Charge =  0 Multiplicity = 1

                         Standard orientation:
 ---------------------------------------------------------------------
 Center     Atomic      Atomic             Coordinates (Angstroms)
 Number     Number       Type             X           Y           Z
 ---------------------------------------------------------------------
      1          8           0        5.287977    0.182754   -3.272881
      2          8           0       -3.099041   -2.920704    3.106862
      3          8           0       -3.545418   -0.690491    2.948083
      4          8           0       -2.122146    7.203720    1.263704
      5          8           0       -0.916522    7.003067   -0.576146
      6          8           0       -1.635174   -4.020156    0.245779
      7          7           0        2.324235    0.990608    0.795180
      8          7           0        4.295550   -0.300699   -1.244479
      9          7           0       -1.750673    0.661057   -0.345133
     10          7           0       -2.396228   -2.041948   -0.420274
     11          6           0        4.647936   -1.048703   -0.042193
     12          6           0        4.334888   -0.360453    1.381885
     13          6           0        2.937587   -0.030041    1.509417
     14          6           0        1.863599   -0.595630    2.319905
     15          6           0        0.674112    0.134886    1.937800
     16          6           0        0.924502    1.034617    0.945711
     17          6           0        6.260137   -1.251846   -0.233153
     18          6           0       -0.594283   -0.010504    2.736587
     19          6           0        6.686276   -0.608076   -1.353899
     20          6           0        0.186309    2.042110    0.272229
     21          6           0       -1.110723    1.827905   -0.269422
     22          6           0        5.402182   -0.133921   -2.141530
     23          6           0       -1.932548    2.829034   -0.972821
     24          6           0        2.043101   -1.572179    3.404707
     25          6           0        7.021120   -2.156799    0.754536
     26          6           0       -3.062504    2.219697   -1.374810
     27          6           0       -1.186169   -1.436339    2.658762
     28          6           0       -2.984963    0.788223   -1.093747
     29          6           0       -1.547692    4.285916   -0.947320
     30          6           0        7.880713   -0.600228   -2.063987
     31          6           0       -1.846195    5.103240    0.330425
     32          6           0       -4.174211    2.846521   -2.112751
     33          6           0       -3.717903   -0.270909   -1.359327
     34          6           0       -2.692640   -1.606763    2.933826
     35          6           0       -3.428197   -1.643388   -1.074148
     36          6           0        9.085107   -0.802695   -1.456316
     37          6           0       -1.547638    6.524963    0.277681
     38          6           0       -4.306114   -2.791641   -1.553805
     39          6           0       -3.592480   -3.927288   -1.114969
     40          6           0       -2.460927   -3.470580   -0.310054
     41          6           0       -5.542723   -2.665453   -2.302733
     42          6           0       -3.982723   -5.344201   -1.188065
     43          6           0       -6.294904   -3.672454   -2.788591
     44          1           0        4.189520   -2.071385   -0.027700
     45          1           0        4.975533    0.689341    1.430692
     46          1           0        4.534634   -1.070052    2.185617
     47          1           0        2.733636    1.311185   -0.107094
     48          1           0        3.444708   -0.405345   -1.625384
     49          1           0       -0.470005    0.320182    3.844248
     50          1           0       -1.384329    0.663090    2.337109
     51          1           0        0.599574    2.867674    0.147331
     52          1           0        3.255178   -1.690246    3.732778
     53          1           0        1.417230   -1.591481    4.343046
     54          1           0        1.667233   -2.611607    2.949311
     55          1           0        6.329377   -2.875677    1.227599
     56          1           0        7.250792   -1.514869    1.722479
     57          1           0        7.771430   -2.796914    0.362524
     58          1           0       -1.168490   -1.775152    1.622227
     59          1           0       -0.688238   -2.108217    3.344728
     60          1           0       -1.424566   -0.237015    0.101811
     61          1           0       -2.011695    4.653918   -1.579761
     62          1           0       -0.455440    4.537807   -1.166825
     63          1           0        7.721133   -0.381770   -3.091862
     64          1           0       -1.090742    4.731561    1.089455
     65          1           0       -2.833332    4.872594    0.449366
     66          1           0       -4.298298    3.971299   -2.080296
     67          1           0       -5.198976    2.474128   -1.682198
     68          1           0       -4.539005    2.310706   -3.113299
     69          1           0       -4.573314    0.122265   -1.784051
     70          1           0        8.986765   -0.759824   -0.259748
     71          1           0       10.092990   -1.014587   -1.971462
     72          1           0       -4.082311   -2.925082    3.036917
     73          1           0       -6.049190   -1.619066   -2.427796
     74          1           0       -5.097195   -5.336705   -0.809038
     75          1           0       -4.039810   -5.630742   -2.311339
     76          1           0       -3.209246   -5.894664   -0.559027
     77          1           0       -1.849467    8.090358    1.302556
     78          1           0       -7.213181   -3.554103   -3.475547
     79          1           0       -6.012687   -4.802404   -2.636623
 ---------------------------------------------------------------------

 SCF Done:  E(RB3LYP) =  -1947.83002983     A.U. after   16 cycles

 Excitation energies and oscillator strengths:

 Excited State   1:      Singlet-A      1.8376 eV  674.72 nm  f=0.3604  <S**2>=0.000
     155 ->156         0.70485
     155 <-156        -0.10969
 This state for optimization and/or second-order correction.
 Total Energy, E(TD-HF/TD-DFT) =  -1947.76250063
 Copying the excited state density for this state as the 1-particle RhoCI density.

 The electronic state is 1-A.
 Alpha  occ. eigenvalues --  -19.18160 -19.16860 -19.12536 -19.12108 -19.11997
 Alpha  occ. eigenvalues --  -19.11130 -14.36843 -14.35746 -14.34907 -14.28922
 Alpha  occ. eigenvalues --  -10.31596 -10.31087 -10.29644 -10.26775 -10.25918
 Alpha  occ. eigenvalues --  -10.24202 -10.23810 -10.23415 -10.23027 -10.22476
 Alpha  occ. eigenvalues --  -10.22416 -10.22017 -10.21930 -10.21625 -10.21609
 Alpha  occ. eigenvalues --  -10.21566 -10.21545 -10.21356 -10.21187 -10.21143
 Alpha  occ. eigenvalues --  -10.20847 -10.20668 -10.20375 -10.20146 -10.19845
 Alpha  occ. eigenvalues --  -10.19608 -10.19293 -10.19102 -10.19095 -10.19030
 Alpha  occ. eigenvalues --  -10.18472 -10.18280 -10.18197  -1.11941  -1.07393
 Alpha  occ. eigenvalues --   -1.06312  -1.05457  -1.03140  -0.97349  -0.96964
 Alpha  occ. eigenvalues --   -0.96519  -0.93321  -0.93166  -0.83287  -0.82591
 Alpha  occ. eigenvalues --   -0.82044  -0.80932  -0.80234  -0.79786  -0.78672
 Alpha  occ. eigenvalues --   -0.76804  -0.76088  -0.75502  -0.74745  -0.72498
 Alpha  occ. eigenvalues --   -0.70980  -0.70751  -0.69662  -0.69459  -0.67596
 Alpha  occ. eigenvalues --   -0.66309  -0.65803  -0.63944  -0.62182  -0.61255
 Alpha  occ. eigenvalues --   -0.60562  -0.59072  -0.58822  -0.57511  -0.56734
 Alpha  occ. eigenvalues --   -0.56210  -0.55097  -0.54702  -0.53732  -0.52670
 Alpha  occ. eigenvalues --   -0.52389  -0.52007  -0.51032  -0.50426  -0.50210
 Alpha  occ. eigenvalues --   -0.49011  -0.48653  -0.48248  -0.48191  -0.47825
 Alpha  occ. eigenvalues --   -0.47471  -0.46475  -0.46180  -0.45897  -0.45784
 Alpha  occ. eigenvalues --   -0.45273  -0.44729  -0.44536  -0.44412  -0.43999
 Alpha  occ. eigenvalues --   -0.43815  -0.43750  -0.43388  -0.43079  -0.42889
 Alpha  occ. eigenvalues --   -0.42650  -0.42039  -0.41670  -0.41014  -0.40976
 Alpha  occ. eigenvalues --   -0.40852  -0.40630  -0.40378  -0.39984  -0.39886
 Alpha  occ. eigenvalues --   -0.39535  -0.39288  -0.38880  -0.38449  -0.38059
 Alpha  occ. eigenvalues --   -0.37759  -0.37171  -0.37029  -0.36965  -0.36738
 Alpha  occ. eigenvalues --   -0.36328  -0.35977  -0.35841  -0.35641  -0.35063
 Alpha  occ. eigenvalues --   -0.34828  -0.34235  -0.33602  -0.32604  -0.32395
 Alpha  occ. eigenvalues --   -0.31470  -0.30244  -0.28858  -0.28543  -0.28366
 Alpha  occ. eigenvalues --   -0.27675  -0.26779  -0.26126  -0.25690  -0.24918
 Alpha  occ. eigenvalues --   -0.24579  -0.23541  -0.23194  -0.22544  -0.18066
 Alpha virt. eigenvalues --   -0.10853  -0.06540  -0.05960  -0.00831   0.00500
 Alpha virt. eigenvalues --    0.00908   0.00956   0.01721   0.03066   0.03298
 Alpha virt. eigenvalues --    0.04135   0.04763   0.05240   0.05509   0.05545

 Mulliken charges:
               1
     1  O   -0.165497
     2  O   -0.217110
     3  O   -0.270247
     4  O   -0.145034
     5  O   -0.177883
     6  O   -0.084534
     7  N   -0.115831
     8  N   -0.183027
     9  N   -0.127714
    10  N   -0.247771
    11  C    0.060723
    12  C    0.185439
    13  C   -0.108785
    14  C   -0.062661
    15  C   -0.101620
    16  C    0.095801
    17  C   -0.169196
    18  C    0.064691
    19  C   -0.053408
    20  C    0.008934
    21  C    0.051145
    22  C    0.143181
    23  C   -0.108786
    24  C   -0.032702
    25  C    0.077363
    26  C   -0.031463
    27  C    0.013825
    28  C    0.077664
    29  C    0.245329
    30  C    0.002807
    31  C    0.051053
    32  C    0.018033
    33  C   -0.045048
    34  C    0.139419
    35  C    0.123056
    36  C   -0.075412
    37  C    0.070514
    38  C    0.054574
    39  C   -0.231522
    40  C    0.117098
    41  C   -0.027726
    42  C    0.026324
    43  C   -0.103083
    44  H    0.027763
    45  H    0.033487
    46  H   -0.020929
    47  H    0.117990
    48  H    0.095598
    49  H    0.024049
    50  H    0.009673
    51  H   -0.131865
    52  H    0.037182
    53  H    0.034833
    54  H    0.048718
    55  H    0.002715
    56  H    0.050750
    57  H    0.037817
    58  H    0.071745
    59  H    0.016427
    60  H    0.166108
    61  H   -0.144299
    62  H    0.019961
    63  H   -0.000858
    64  H    0.046016
    65  H    0.006313
    66  H    0.042624
    67  H    0.014008
    68  H    0.036063
    69  H   -0.099590
    70  H    0.051097
    71  H    0.051574
    72  H    0.187123
    73  H    0.026830
    74  H    0.055509
    75  H    0.053149
    76  H    0.050518
    77  H    0.158896
    78  H    0.046061
    79  H    0.036027
 Sum of Mulliken charges =  -0.00000

 Dipole moment (field-independent basis, Debye):
    X=             -0.6695    Y=              0.0926    Z=              1.2497  Tot=              1.4208
 Quadrupole moment (field-independent basis, Debye-Ang):
   XX=           -219.6692   YY=           -239.9605   ZZ=           -262.8504
   XY=            -11.0562   XZ=             32.2508   YZ=              9.8650

 Normal termination of Gaussian 16 at Mon Sep 23 05:44:05 2019.
