 Gaussian 16, Revision A.03,
 Gaussian 16:  ES64L-G16RevA.03 25-Dec-2016

 --------------------------
 # td=(NStates=1) B3LYP/SVP
 --------------------------

 --
 TD
 --
 Symbolic Z-matrix:
 Charge =  0 Multiplicity = 1

                         Standard orientation:
 ---------------------------------------------------------------------
 Center     Atomic      Atomic             Coordinates (Angstroms)
 Number     Number       Type             X           Y           Z
 ---------------------------------------------------------------------
      1          8           0       -3.218054   -1.141304   -2.901510
      2          8           0        3.038046    2.685699    3.274374
      3          8           0        3.522256    0.955795    4.708709
      4          8           0        7.754450   -1.427445   -0.891080
      5          8           0        6.677194   -2.857335   -2.261789
      6          8           0       -2.764595    1.630370    1.412786
      7          7           0       -0.466945   -2.420304    0.764236
      8          7           0       -2.723155   -1.083790   -0.723271
      9          7           0        1.129361    0.009070   -0.682428
     10          7           0       -0.917880    1.494196   -0.087782
     11          6           0       -3.500971   -1.222237    0.472513
     12          6           0       -2.740480   -2.297891    1.416617
     13          6           0       -1.276528   -2.066642    1.740472
     14          6           0       -0.602694   -1.444656    2.764747
     15          6           0        0.711308   -1.410126    2.386091
     16          6           0        0.891628   -2.113506    1.175007
     17          6           0       -4.864975   -1.682525    0.038731
     18          6           0        1.765119   -0.717798    3.195827
     19          6           0       -4.776551   -1.890420   -1.312060
     20          6           0        1.960258   -2.077466    0.248195
     21          6           0        2.044004   -0.922089   -0.718826
     22          6           0       -3.524027   -1.320102   -1.854750
     23          6           0        3.051930   -0.589548   -1.689367
     24          6           0       -1.353423   -0.865774    3.900746
     25          6           0       -5.925619   -2.167095    0.941570
     26          6           0        2.635188    0.547104   -2.351323
     27          6           0        1.787947    0.701695    2.775587
     28          6           0        1.447186    1.053750   -1.567735
     29          6           0        4.323576   -1.343352   -2.089761
     30          6           0       -5.829064   -2.355958   -2.297978
     31          6           0        5.479751   -0.989044   -1.237466
     32          6           0        3.272613    1.371390   -3.473899
     33          6           0        0.562283    2.087296   -1.755096
     34          6           0        2.897876    1.434460    3.738642
     35          6           0       -0.491421    2.389319   -0.959885
     36          6           0       -6.905872   -3.058463   -2.014201
     37          6           0        6.675710   -1.879285   -1.569560
     38          6           0       -1.223171    3.656169   -1.031953
     39          6           0       -2.189527    3.555959    0.010168
     40          6           0       -2.019755    2.154598    0.580483
     41          6           0       -1.082659    4.713868   -1.950497
     42          6           0       -3.366621    4.394904    0.409785
     43          6           0       -1.551328    6.005907   -1.864633
     44          1           0       -3.466551   -0.309906    1.110034
     45          1           0       -2.628071   -3.265133    1.084364
     46          1           0       -3.211425   -2.544686    2.411595
     47          1           0       -0.874428   -2.670358   -0.060454
     48          1           0       -1.986011   -0.382562   -0.716109
     49          1           0        1.600766   -0.934202    4.386433
     50          1           0        2.635838   -1.207331    3.033657
     51          1           0        2.521331   -2.979727    0.267312
     52          1           0       -2.294141   -1.370558    4.116437
     53          1           0       -0.629355   -0.701941    4.683028
     54          1           0       -1.791880    0.054530    3.651304
     55          1           0       -5.690805   -1.824168    2.001239
     56          1           0       -6.008827   -3.107675    0.964837
     57          1           0       -6.810628   -1.877824    0.584116
     58          1           0        1.831560    0.734848    1.585477
     59          1           0        0.942587    1.338280    2.831498
     60          1           0        0.516695    0.312120    0.042595
     61          1           0        4.451811   -1.193450   -3.301348
     62          1           0        4.073671   -2.419116   -1.869733
     63          1           0       -5.478063   -2.127190   -3.255122
     64          1           0        5.165868   -1.019400   -0.345883
     65          1           0        5.730847    0.090951   -1.256074
     66          1           0        4.054311    0.697186   -4.092612
     67          1           0        3.840941    2.199310   -2.989750
     68          1           0        2.540970    1.573565   -4.216585
     69          1           0        0.944059    2.791969   -2.477516
     70          1           0       -6.962029   -3.447746   -1.049871
     71          1           0       -7.468317   -3.634512   -2.803305
     72          1           0        3.784625    3.175599    3.800178
     73          1           0       -0.364426    4.398618   -2.717566
     74          1           0       -4.100911    4.566046   -0.399392
     75          1           0       -3.844262    3.830036    1.268251
     76          1           0       -3.084576    5.365228    0.802718
     77          1           0        8.500393   -1.939715   -1.338758
     78          1           0       -1.240394    6.664176   -2.776376
     79          1           0       -2.115378    6.489629   -0.922978
 ---------------------------------------------------------------------

 SCF Done:  E(RB3LYP) =  -1947.82215388     A.U. after   20 cycles

 Excitation energies and oscillator strengths:

 Excited State   1:      Singlet-A      0.7976 eV 1554.49 nm  f=0.0002  <S**2>=0.000
     155 ->156         0.70127
 This state for optimization and/or second-order correction.
 Total Energy, E(TD-HF/TD-DFT) =  -1947.79284313
 Copying the excited state density for this state as the 1-particle RhoCI density.

 The electronic state is 1-A.
 Alpha  occ. eigenvalues --  -19.19588 -19.19206 -19.14508 -19.13036 -19.12965
 Alpha  occ. eigenvalues --  -19.09045 -14.37316 -14.34994 -14.31333 -14.31193
 Alpha  occ. eigenvalues --  -10.33350 -10.32661 -10.28853 -10.26291 -10.26136
 Alpha  occ. eigenvalues --  -10.25728 -10.24510 -10.22958 -10.22826 -10.22593
 Alpha  occ. eigenvalues --  -10.22530 -10.22520 -10.22515 -10.21831 -10.21813
 Alpha  occ. eigenvalues --  -10.21669 -10.21552 -10.20867 -10.20545 -10.20037
 Alpha  occ. eigenvalues --  -10.20022 -10.20013 -10.19665 -10.18586 -10.18361
 Alpha  occ. eigenvalues --  -10.18281 -10.18175 -10.17679 -10.17532 -10.17146
 Alpha  occ. eigenvalues --  -10.16663 -10.15962 -10.14797  -1.11111  -1.08434
 Alpha  occ. eigenvalues --   -1.07377  -1.02830  -1.02341  -1.01037  -0.99024
 Alpha  occ. eigenvalues --   -0.96655  -0.94089  -0.92036  -0.84265  -0.82248
 Alpha  occ. eigenvalues --   -0.81795  -0.81139  -0.80589  -0.79814  -0.77974
 Alpha  occ. eigenvalues --   -0.76302  -0.76150  -0.75744  -0.74156  -0.72853
 Alpha  occ. eigenvalues --   -0.71266  -0.71002  -0.69927  -0.68917  -0.67701
 Alpha  occ. eigenvalues --   -0.66596  -0.65654  -0.63676  -0.61254  -0.60896
 Alpha  occ. eigenvalues --   -0.59984  -0.59458  -0.58939  -0.57771  -0.56971
 Alpha  occ. eigenvalues --   -0.56240  -0.55800  -0.55205  -0.53624  -0.52925
 Alpha  occ. eigenvalues --   -0.52462  -0.52104  -0.51462  -0.49973  -0.49776
 Alpha  occ. eigenvalues --   -0.49657  -0.48659  -0.48224  -0.47932  -0.47747
 Alpha  occ. eigenvalues --   -0.47438  -0.47054  -0.46815  -0.45974  -0.45634
 Alpha  occ. eigenvalues --   -0.45360  -0.45043  -0.44664  -0.44381  -0.44271
 Alpha  occ. eigenvalues --   -0.43791  -0.43527  -0.42999  -0.42985  -0.42843
 Alpha  occ. eigenvalues --   -0.42568  -0.42211  -0.41650  -0.41436  -0.41242
 Alpha  occ. eigenvalues --   -0.41032  -0.40792  -0.40711  -0.40488  -0.40359
 Alpha  occ. eigenvalues --   -0.40032  -0.39716  -0.39245  -0.38713  -0.38676
 Alpha  occ. eigenvalues --   -0.38000  -0.37567  -0.37160  -0.36925  -0.36309
 Alpha  occ. eigenvalues --   -0.36088  -0.35835  -0.35538  -0.35363  -0.35074
 Alpha  occ. eigenvalues --   -0.33892  -0.33218  -0.32558  -0.32238  -0.32086
 Alpha  occ. eigenvalues --   -0.31374  -0.30509  -0.30419  -0.30281  -0.28688
 Alpha  occ. eigenvalues --   -0.28036  -0.27569  -0.26154  -0.25222  -0.24048
 Alpha  occ. eigenvalues --   -0.23439  -0.23131  -0.22642  -0.21593  -0.18619
 Alpha virt. eigenvalues --   -0.12979  -0.08255  -0.03791  -0.02388  -0.00999
 Alpha virt. eigenvalues --   -0.00446   0.02023   0.02224   0.03297   0.03351
 Alpha virt. eigenvalues --    0.03726   0.03774   0.04794   0.04897   0.05574

 Mulliken charges:
               1
     1  O   -0.095207
     2  O   -0.203665
     3  O   -0.255111
     4  O   -0.195935
     5  O   -0.201812
     6  O   -0.210113
     7  N   -0.025502
     8  N   -0.247022
     9  N   -0.026373
    10  N   -0.324346
    11  C    0.129870
    12  C    0.196062
    13  C   -0.172991
    14  C   -0.114252
    15  C   -0.179067
    16  C   -0.015613
    17  C   -0.170821
    18  C    0.181256
    19  C   -0.157933
    20  C   -0.039351
    21  C    0.056100
    22  C    0.103376
    23  C   -0.095874
    24  C    0.187462
    25  C    0.234229
    26  C   -0.135006
    27  C   -0.059980
    28  C    0.031274
    29  C    0.049759
    30  C    0.050216
    31  C    0.111510
    32  C    0.079404
    33  C   -0.078374
    34  C    0.186190
    35  C    0.147057
    36  C   -0.008552
    37  C    0.150188
    38  C    0.038784
    39  C   -0.206537
    40  C    0.199717
    41  C   -0.016523
    42  C    0.077905
    43  C   -0.069266
    44  H    0.047485
    45  H   -0.054794
    46  H   -0.022423
    47  H    0.075035
    48  H    0.130353
    49  H    0.037992
    50  H   -0.042285
    51  H    0.003717
    52  H   -0.019627
    53  H   -0.009366
    54  H   -0.009274
    55  H    0.018306
    56  H   -0.027701
    57  H   -0.009277
    58  H    0.033906
    59  H    0.026347
    60  H    0.173016
    61  H    0.051947
    62  H    0.026128
    63  H   -0.024870
    64  H   -0.040272
    65  H    0.020123
    66  H    0.026851
    67  H    0.058341
    68  H    0.034919
    69  H   -0.032632
    70  H   -0.015403
    71  H    0.029589
    72  H    0.205778
    73  H   -0.009532
    74  H    0.044816
    75  H    0.036594
    76  H    0.022937
    77  H    0.192968
    78  H    0.050247
    79  H    0.064929
 Sum of Mulliken charges =  -0.00000

 Dipole moment (field-independent basis, Debye):
    X=              3.6497    Y=              4.2793    Z=             -1.9265  Tot=              5.9451
 Quadrupole moment (field-independent basis, Debye-Ang):
   XX=           -232.3885   YY=           -232.2558   ZZ=           -270.6909
   XY=             11.1382   XZ=            -21.9140   YZ=             -7.3995

 Normal termination of Gaussian 16 at Wed Jul 31 03:40:33 2019.
