 Gaussian 16, Revision A.03,
 Gaussian 16:  ES64L-G16RevA.03 25-Dec-2016

 --------------------------
 # td=(NStates=1) B3LYP/SVP
 --------------------------

 --
 TD
 --
 Symbolic Z-matrix:
 Charge =  0 Multiplicity = 1

                         Standard orientation:
 ---------------------------------------------------------------------
 Center     Atomic      Atomic             Coordinates (Angstroms)
 Number     Number       Type             X           Y           Z
 ---------------------------------------------------------------------
      1          8           0        5.154585   -0.293655   -3.306803
      2          8           0       -3.028749   -2.757471    3.229536
      3          8           0       -3.369780   -0.524177    3.268042
      4          8           0       -1.867918    7.372051    1.149845
      5          8           0       -0.614422    6.972433   -0.746211
      6          8           0       -1.578795   -4.180548    0.248079
      7          7           0        2.245727    1.086584    0.582918
      8          7           0        4.208772   -0.391848   -1.146201
      9          7           0       -1.887553    0.650630   -0.416898
     10          7           0       -2.384534   -1.979023   -0.327515
     11          6           0        4.761337   -1.042344    0.101570
     12          6           0        4.377845   -0.076233    1.371974
     13          6           0        2.908549    0.111108    1.432382
     14          6           0        1.845731   -0.496403    2.249767
     15          6           0        0.646511    0.189587    1.903261
     16          6           0        0.928612    1.136263    0.865163
     17          6           0        6.260578   -1.188310   -0.112377
     18          6           0       -0.633896    0.004235    2.654348
     19          6           0        6.554800   -0.804188   -1.420939
     20          6           0        0.109146    2.019500    0.119225
     21          6           0       -1.167110    1.804136   -0.320369
     22          6           0        5.252856   -0.494188   -2.131849
     23          6           0       -2.049196    2.807918   -0.991446
     24          6           0        2.154199   -1.481817    3.270201
     25          6           0        7.117034   -1.805549    0.926718
     26          6           0       -3.198633    2.214216   -1.389452
     27          6           0       -1.147544   -1.309832    2.686573
     28          6           0       -3.084018    0.753814   -1.128987
     29          6           0       -1.809877    4.328514   -1.033954
     30          6           0        7.844972   -0.871395   -2.065894
     31          6           0       -1.773374    5.044318    0.343544
     32          6           0       -4.228824    2.781784   -2.223571
     33          6           0       -3.865350   -0.348190   -1.379915
     34          6           0       -2.650641   -1.454338    3.062373
     35          6           0       -3.412313   -1.640197   -1.065209
     36          6           0        9.064819   -1.015910   -1.609662
     37          6           0       -1.368234    6.548517    0.164434
     38          6           0       -4.369862   -2.842014   -1.503399
     39          6           0       -3.676713   -3.952842   -0.918784
     40          6           0       -2.426259   -3.396370   -0.220326
     41          6           0       -5.677401   -2.681716   -2.176104
     42          6           0       -4.007844   -5.415185   -1.061182
     43          6           0       -6.285953   -3.805833   -2.636504
     44          1           0        4.434848   -2.161565    0.287970
     45          1           0        4.798196    0.839740    1.214565
     46          1           0        4.869411   -0.374612    2.433493
     47          1           0        2.515729    1.604727   -0.225141
     48          1           0        3.425042   -0.416213   -1.555601
     49          1           0       -0.490542    0.366258    3.787075
     50          1           0       -1.363138    0.672144    2.171395
     51          1           0        0.639354    2.813100   -0.154042
     52          1           0        3.206027   -1.578055    3.715410
     53          1           0        1.710592   -1.393093    4.202373
     54          1           0        1.865554   -2.564215    2.845723
     55          1           0        6.506762   -2.329391    1.657131
     56          1           0        7.385632   -0.953635    1.539708
     57          1           0        7.985030   -2.492917    0.412336
     58          1           0       -1.108200   -2.110947    1.925369
     59          1           0       -0.664667   -1.808088    3.662100
     60          1           0       -1.755404   -0.352490   -0.074759
     61          1           0       -2.438764    5.039469   -1.623579
     62          1           0       -0.726165    4.563751   -1.499664
     63          1           0        7.738926   -0.717691   -3.161592
     64          1           0       -1.088319    4.518423    1.115514
     65          1           0       -2.760672    5.237779    0.644332
     66          1           0       -4.345823    3.750843   -2.072083
     67          1           0       -5.355449    2.139960   -1.885017
     68          1           0       -3.969162    2.450918   -3.375878
     69          1           0       -4.545377   -0.115640   -2.178709
     70          1           0        9.145342   -1.136405   -0.546203
     71          1           0        9.991989   -1.048603   -2.154509
     72          1           0       -3.948229   -2.621245    3.475574
     73          1           0       -6.076060   -1.625734   -2.166282
     74          1           0       -5.038798   -5.814492   -1.109685
     75          1           0       -3.556465   -5.777061   -2.304069
     76          1           0       -3.175414   -6.108662   -0.451469
     77          1           0       -1.293175    8.057242    1.055628
     78          1           0       -7.311987   -3.741276   -3.091500
     79          1           0       -6.006579   -4.812111   -2.671618
 ---------------------------------------------------------------------

 SCF Done:  E(RB3LYP) =  -1947.81314160     A.U. after   16 cycles

 Excitation energies and oscillator strengths:

 Excited State   1:      Singlet-A      2.0780 eV  596.66 nm  f=0.4412  <S**2>=0.000
     155 ->156         0.70299
     155 <-156        -0.10590
 This state for optimization and/or second-order correction.
 Total Energy, E(TD-HF/TD-DFT) =  -1947.73677743
 Copying the excited state density for this state as the 1-particle RhoCI density.

 The electronic state is 1-A.
 Alpha  occ. eigenvalues --  -19.19564 -19.17040 -19.14348 -19.11765 -19.11203
 Alpha  occ. eigenvalues --  -19.11149 -14.38391 -14.36293 -14.34788 -14.31113
 Alpha  occ. eigenvalues --  -10.33916 -10.30532 -10.29034 -10.28159 -10.26997
 Alpha  occ. eigenvalues --  -10.24956 -10.24812 -10.24480 -10.24025 -10.22725
 Alpha  occ. eigenvalues --  -10.22667 -10.22634 -10.22479 -10.22318 -10.22177
 Alpha  occ. eigenvalues --  -10.22158 -10.22020 -10.21727 -10.21646 -10.21032
 Alpha  occ. eigenvalues --  -10.20921 -10.20862 -10.20654 -10.20412 -10.20113
 Alpha  occ. eigenvalues --  -10.20083 -10.19952 -10.19484 -10.19372 -10.19331
 Alpha  occ. eigenvalues --  -10.19161 -10.18958 -10.18599  -1.11259  -1.08940
 Alpha  occ. eigenvalues --   -1.04018  -1.00674  -1.00592  -1.00184  -0.98169
 Alpha  occ. eigenvalues --   -0.97622  -0.93487  -0.92488  -0.83174  -0.82603
 Alpha  occ. eigenvalues --   -0.82163  -0.82099  -0.79883  -0.79749  -0.78458
 Alpha  occ. eigenvalues --   -0.77821  -0.76951  -0.75730  -0.74169  -0.72712
 Alpha  occ. eigenvalues --   -0.72287  -0.71542  -0.69066  -0.68038  -0.67962
 Alpha  occ. eigenvalues --   -0.66452  -0.65947  -0.63770  -0.61155  -0.60499
 Alpha  occ. eigenvalues --   -0.60373  -0.59442  -0.58457  -0.58418  -0.57049
 Alpha  occ. eigenvalues --   -0.56067  -0.55680  -0.54465  -0.53346  -0.53101
 Alpha  occ. eigenvalues --   -0.52524  -0.51568  -0.51002  -0.50612  -0.49860
 Alpha  occ. eigenvalues --   -0.49392  -0.48924  -0.48595  -0.47965  -0.47525
 Alpha  occ. eigenvalues --   -0.47336  -0.47278  -0.46887  -0.46237  -0.45569
 Alpha  occ. eigenvalues --   -0.45335  -0.45129  -0.44969  -0.44823  -0.44072
 Alpha  occ. eigenvalues --   -0.43832  -0.43653  -0.43531  -0.43154  -0.42852
 Alpha  occ. eigenvalues --   -0.42568  -0.42367  -0.41836  -0.41496  -0.41187
 Alpha  occ. eigenvalues --   -0.41061  -0.41022  -0.40494  -0.40381  -0.40266
 Alpha  occ. eigenvalues --   -0.40023  -0.39472  -0.39195  -0.38769  -0.38414
 Alpha  occ. eigenvalues --   -0.38179  -0.37718  -0.37454  -0.37049  -0.36646
 Alpha  occ. eigenvalues --   -0.36225  -0.35672  -0.34766  -0.34270  -0.33874
 Alpha  occ. eigenvalues --   -0.33668  -0.33519  -0.32998  -0.32284  -0.31722
 Alpha  occ. eigenvalues --   -0.31586  -0.30929  -0.29220  -0.28967  -0.28448
 Alpha  occ. eigenvalues --   -0.27745  -0.26833  -0.26310  -0.25764  -0.24744
 Alpha  occ. eigenvalues --   -0.24676  -0.24278  -0.23638  -0.22145  -0.19057
 Alpha virt. eigenvalues --   -0.10940  -0.06725  -0.05787  -0.02736  -0.01587
 Alpha virt. eigenvalues --    0.00345   0.01040   0.01911   0.02594   0.02856
 Alpha virt. eigenvalues --    0.03363   0.03691   0.04224   0.04340   0.04731

 Mulliken charges:
               1
     1  O   -0.185516
     2  O   -0.180690
     3  O   -0.214916
     4  O   -0.137743
     5  O   -0.261693
     6  O   -0.228031
     7  N   -0.076192
     8  N   -0.167961
     9  N   -0.127270
    10  N   -0.277598
    11  C    0.069168
    12  C    0.204313
    13  C   -0.065225
    14  C   -0.066481
    15  C   -0.111377
    16  C    0.032087
    17  C   -0.206562
    18  C    0.123750
    19  C   -0.025378
    20  C   -0.063154
    21  C    0.168214
    22  C    0.126674
    23  C   -0.025200
    24  C    0.041123
    25  C    0.113904
    26  C   -0.099778
    27  C   -0.057271
    28  C    0.073929
    29  C   -0.014994
    30  C   -0.028866
    31  C    0.032831
    32  C    0.038364
    33  C   -0.094903
    34  C    0.103314
    35  C    0.078909
    36  C   -0.009030
    37  C    0.123789
    38  C   -0.014248
    39  C   -0.137953
    40  C    0.208579
    41  C    0.007861
    42  C   -0.065921
    43  C   -0.011381
    44  H    0.057101
    45  H   -0.037805
    46  H    0.029086
    47  H    0.107036
    48  H    0.061445
    49  H    0.027541
    50  H    0.004063
    51  H   -0.068423
    52  H    0.006349
    53  H   -0.004068
    54  H    0.056477
    55  H    0.002953
    56  H    0.029326
    57  H    0.086113
    58  H    0.067322
    59  H    0.036662
    60  H    0.169570
    61  H    0.020005
    62  H    0.045629
    63  H    0.002918
    64  H    0.076667
    65  H    0.016243
    66  H   -0.010867
    67  H    0.038302
    68  H    0.070525
    69  H   -0.008641
    70  H   -0.010979
    71  H    0.023464
    72  H    0.162208
    73  H    0.028276
    74  H    0.053538
    75  H    0.035212
    76  H    0.067602
    77  H    0.139797
    78  H    0.019670
    79  H    0.008201
 Sum of Mulliken charges =  -0.00000

 Dipole moment (field-independent basis, Debye):
    X=              0.7586    Y=              2.0720    Z=              2.7911  Tot=              3.5579
 Quadrupole moment (field-independent basis, Debye-Ang):
   XX=           -223.5477   YY=           -252.0182   ZZ=           -261.3924
   XY=             -5.2269   XZ=             36.1194   YZ=              4.6002

 Normal termination of Gaussian 16 at Tue Sep 17 21:52:55 2019.
