 Gaussian 16, Revision A.03,
 Gaussian 16:  ES64L-G16RevA.03 25-Dec-2016

 --------------------------
 # td=(NStates=1) B3LYP/SVP
 --------------------------

 --
 TD
 --
 Symbolic Z-matrix:
 Charge =  0 Multiplicity = 1

                         Standard orientation:
 ---------------------------------------------------------------------
 Center     Atomic      Atomic             Coordinates (Angstroms)
 Number     Number       Type             X           Y           Z
 ---------------------------------------------------------------------
      1          8           0        5.146568   -0.060551   -3.263363
      2          8           0       -3.168342   -2.841239    3.204754
      3          8           0       -3.551372   -0.651994    2.605991
      4          8           0       -1.400137    7.226336    1.582135
      5          8           0       -0.683071    7.141490   -0.479161
      6          8           0       -1.741278   -3.992916    0.073594
      7          7           0        2.335450    0.904163    0.631397
      8          7           0        4.249369   -0.744744   -1.176293
      9          7           0       -1.714505    0.683527   -0.467247
     10          7           0       -2.459031   -1.867083   -0.478433
     11          6           0        4.735605   -1.328923   -0.027155
     12          6           0        4.364749   -0.347162    1.290600
     13          6           0        2.945733   -0.073921    1.367229
     14          6           0        1.940706   -0.684765    2.223361
     15          6           0        0.669953   -0.046775    1.840076
     16          6           0        1.019095    0.923454    0.944683
     17          6           0        6.150628   -1.402340   -0.163264
     18          6           0       -0.620017   -0.205099    2.648569
     19          6           0        6.499174   -0.966782   -1.369242
     20          6           0        0.240081    1.949104    0.274297
     21          6           0       -0.961691    1.906337   -0.327346
     22          6           0        5.192106   -0.573345   -2.106271
     23          6           0       -1.816958    2.962058   -0.926042
     24          6           0        1.870380   -1.817255    3.140118
     25          6           0        7.029981   -2.040302    0.869878
     26          6           0       -2.935687    2.275380   -1.360282
     27          6           0       -1.244400   -1.628865    2.655764
     28          6           0       -2.878489    0.912147   -0.997557
     29          6           0       -1.400202    4.411871   -0.971092
     30          6           0        7.759294   -0.842980   -2.035542
     31          6           0       -1.603551    5.162763    0.411645
     32          6           0       -4.122455    2.956806   -2.046591
     33          6           0       -3.790116   -0.137977   -1.359007
     34          6           0       -2.741967   -1.643937    2.771717
     35          6           0       -3.536254   -1.444904   -1.040381
     36          6           0        9.009560   -0.811745   -1.440175
     37          6           0       -1.037176    6.572573    0.441681
     38          6           0       -4.553792   -2.498751   -1.438096
     39          6           0       -3.883005   -3.680481   -0.988711
     40          6           0       -2.585668   -3.309467   -0.391090
     41          6           0       -5.775379   -2.328927   -2.169191
     42          6           0       -4.320695   -5.143568   -1.049565
     43          6           0       -6.613285   -3.271654   -2.588341
     44          1           0        4.444216   -2.478437    0.273022
     45          1           0        5.152614    0.476990    1.010523
     46          1           0        4.734398   -0.674850    2.213891
     47          1           0        2.843094    1.288084   -0.194966
     48          1           0        3.350101   -0.744328   -1.455137
     49          1           0       -0.180949    0.195099    3.874452
     50          1           0       -1.619546    0.200210    2.033214
     51          1           0        0.740785    2.870188    0.188171
     52          1           0        2.807501   -2.153760    3.526664
     53          1           0        1.027103   -1.669600    4.014640
     54          1           0        1.401741   -2.684745    2.402240
     55          1           0        6.625774   -2.898199    1.213731
     56          1           0        7.354456   -1.312276    1.841483
     57          1           0        7.920989   -2.496506    0.486346
     58          1           0       -1.019595   -2.337817    1.742270
     59          1           0       -0.647934   -2.250464    3.240837
     60          1           0       -1.510762   -0.238889   -0.235070
     61          1           0       -2.084370    4.895853   -1.773924
     62          1           0       -0.132432    4.582829   -0.971534
     63          1           0        7.581642   -0.536436   -3.174760
     64          1           0       -1.157708    4.408767    1.086302
     65          1           0       -2.562682    5.287438    0.627703
     66          1           0       -4.130152    3.922935   -2.070421
     67          1           0       -5.119348    2.780942   -1.636468
     68          1           0       -4.013552    2.538810   -3.146701
     69          1           0       -4.519340    0.409380   -1.940204
     70          1           0        9.435264   -0.780958   -0.346964
     71          1           0        9.888243   -0.873838   -2.264789
     72          1           0       -4.094337   -2.571182    3.222274
     73          1           0       -5.808574   -1.343243   -2.628900
     74          1           0       -5.579823   -5.182514   -0.737413
     75          1           0       -4.381890   -5.674968   -2.015662
     76          1           0       -3.592052   -5.753096   -0.386666
     77          1           0       -0.803944    8.022054    1.378288
     78          1           0       -7.572765   -3.220251   -3.009072
     79          1           0       -6.511634   -4.218671   -2.253012
 ---------------------------------------------------------------------

 SCF Done:  E(RB3LYP) =  -1947.74129593     A.U. after   16 cycles

 Excitation energies and oscillator strengths:

 Excited State   1:      Singlet-A      2.1200 eV  584.82 nm  f=0.4016  <S**2>=0.000
     153 ->156         0.10492
     155 ->156         0.69373
 This state for optimization and/or second-order correction.
 Total Energy, E(TD-HF/TD-DFT) =  -1947.66338602
 Copying the excited state density for this state as the 1-particle RhoCI density.

 The electronic state is 1-A.
 Alpha  occ. eigenvalues --  -19.18641 -19.18503 -19.14530 -19.12354 -19.11023
 Alpha  occ. eigenvalues --  -19.10727 -14.38766 -14.37311 -14.36064 -14.28293
 Alpha  occ. eigenvalues --  -10.32438 -10.32293 -10.29371 -10.26578 -10.25991
 Alpha  occ. eigenvalues --  -10.24636 -10.23976 -10.23914 -10.23357 -10.22746
 Alpha  occ. eigenvalues --  -10.22587 -10.22396 -10.22386 -10.22296 -10.21668
 Alpha  occ. eigenvalues --  -10.21534 -10.21436 -10.21431 -10.21088 -10.21071
 Alpha  occ. eigenvalues --  -10.20971 -10.20918 -10.20840 -10.20393 -10.20141
 Alpha  occ. eigenvalues --  -10.20133 -10.20131 -10.19829 -10.19663 -10.19478
 Alpha  occ. eigenvalues --  -10.19244 -10.18265 -10.18085  -1.13300  -1.09906
 Alpha  occ. eigenvalues --   -1.03790  -1.03091  -1.03022  -0.99741  -0.99324
 Alpha  occ. eigenvalues --   -0.97165  -0.96518  -0.92251  -0.83964  -0.83334
 Alpha  occ. eigenvalues --   -0.82058  -0.81196  -0.80327  -0.79517  -0.78545
 Alpha  occ. eigenvalues --   -0.76897  -0.76596  -0.75455  -0.74240  -0.72855
 Alpha  occ. eigenvalues --   -0.72479  -0.71643  -0.69872  -0.69084  -0.68766
 Alpha  occ. eigenvalues --   -0.66596  -0.66493  -0.64103  -0.62659  -0.61278
 Alpha  occ. eigenvalues --   -0.59544  -0.59445  -0.58899  -0.58490  -0.57425
 Alpha  occ. eigenvalues --   -0.56037  -0.55645  -0.55142  -0.55082  -0.54103
 Alpha  occ. eigenvalues --   -0.52960  -0.52205  -0.51804  -0.51375  -0.50931
 Alpha  occ. eigenvalues --   -0.50468  -0.49776  -0.48977  -0.48836  -0.48145
 Alpha  occ. eigenvalues --   -0.47608  -0.47211  -0.46745  -0.46247  -0.45911
 Alpha  occ. eigenvalues --   -0.45633  -0.45458  -0.44871  -0.44604  -0.44197
 Alpha  occ. eigenvalues --   -0.43956  -0.43487  -0.43304  -0.42945  -0.42702
 Alpha  occ. eigenvalues --   -0.42610  -0.41970  -0.41908  -0.41386  -0.40992
 Alpha  occ. eigenvalues --   -0.40764  -0.40436  -0.40338  -0.40160  -0.39700
 Alpha  occ. eigenvalues --   -0.39562  -0.39179  -0.38908  -0.38475  -0.38327
 Alpha  occ. eigenvalues --   -0.37985  -0.37908  -0.37318  -0.37067  -0.36892
 Alpha  occ. eigenvalues --   -0.35967  -0.35669  -0.35556  -0.35185  -0.34236
 Alpha  occ. eigenvalues --   -0.34037  -0.33789  -0.32682  -0.31860  -0.31314
 Alpha  occ. eigenvalues --   -0.31141  -0.30614  -0.30072  -0.29419  -0.28187
 Alpha  occ. eigenvalues --   -0.27714  -0.27568  -0.26219  -0.25880  -0.24568
 Alpha  occ. eigenvalues --   -0.24225  -0.23729  -0.22724  -0.21834  -0.19436
 Alpha virt. eigenvalues --   -0.10681  -0.06775  -0.06172  -0.01024  -0.00668
 Alpha virt. eigenvalues --   -0.00424   0.00122   0.00449   0.01422   0.02367
 Alpha virt. eigenvalues --    0.03525   0.03789   0.04305   0.04697   0.05153

 Mulliken charges:
               1
     1  O   -0.270276
     2  O   -0.140243
     3  O   -0.315608
     4  O   -0.211748
     5  O   -0.149265
     6  O   -0.160815
     7  N   -0.053839
     8  N   -0.043119
     9  N   -0.004494
    10  N   -0.288439
    11  C    0.011756
    12  C    0.122557
    13  C   -0.063076
    14  C   -0.125105
    15  C   -0.062048
    16  C    0.075611
    17  C   -0.173683
    18  C   -0.056856
    19  C   -0.047934
    20  C   -0.082841
    21  C    0.106229
    22  C    0.131549
    23  C   -0.006498
    24  C    0.013329
    25  C    0.118007
    26  C   -0.158854
    27  C   -0.020614
    28  C   -0.010280
    29  C   -0.014659
    30  C   -0.039142
    31  C    0.043250
    32  C    0.142244
    33  C   -0.118229
    34  C    0.205748
    35  C    0.194050
    36  C   -0.105225
    37  C    0.115848
    38  C    0.023113
    39  C   -0.185207
    40  C    0.148766
    41  C    0.010215
    42  C   -0.015630
    43  C    0.041085
    44  H    0.048017
    45  H    0.011787
    46  H   -0.008446
    47  H    0.136990
    48  H    0.097021
    49  H    0.061506
    50  H    0.077129
    51  H   -0.043512
    52  H    0.000909
    53  H    0.054728
    54  H    0.067506
    55  H   -0.023222
    56  H    0.053590
    57  H    0.006072
    58  H    0.087207
    59  H   -0.021124
    60  H    0.098698
    61  H    0.039803
    62  H    0.058130
    63  H    0.059834
    64  H    0.041973
    65  H   -0.000558
    66  H   -0.052306
    67  H    0.032810
    68  H    0.046977
    69  H   -0.048427
    70  H    0.060128
    71  H    0.043581
    72  H    0.161393
    73  H   -0.009597
    74  H    0.044130
    75  H    0.040396
    76  H    0.049736
    77  H    0.180240
    78  H    0.008328
    79  H   -0.041058
 Sum of Mulliken charges =  -0.00000

 Dipole moment (field-independent basis, Debye):
    X=              0.9569    Y=              1.6081    Z=              2.7604  Tot=              3.3349
 Quadrupole moment (field-independent basis, Debye-Ang):
   XX=           -229.2548   YY=           -248.6055   ZZ=           -265.7768
   XY=             -7.5235   XZ=             35.8556   YZ=              1.7588

 Normal termination of Gaussian 16 at Thu Sep 12 16:46:33 2019.
