 Gaussian 16, Revision A.03,
 Gaussian 16:  ES64L-G16RevA.03 25-Dec-2016

 --------------------------
 # td=(NStates=1) B3LYP/SVP
 --------------------------

 --
 TD
 --
 Symbolic Z-matrix:
 Charge =  0 Multiplicity = 1

                         Standard orientation:
 ---------------------------------------------------------------------
 Center     Atomic      Atomic             Coordinates (Angstroms)
 Number     Number       Type             X           Y           Z
 ---------------------------------------------------------------------
      1          8           0        5.360565    0.083626   -3.276737
      2          8           0       -3.008917   -3.045836    3.211846
      3          8           0       -3.315675   -0.772026    3.351484
      4          8           0       -1.309553    7.175751    1.581516
      5          8           0       -0.936271    7.099147   -0.679662
      6          8           0       -1.891389   -4.091481   -0.167666
      7          7           0        2.470500    0.893347    0.661900
      8          7           0        4.361087   -0.590533   -1.311496
      9          7           0       -1.736434    0.760602   -0.458606
     10          7           0       -2.563279   -1.904685   -0.642949
     11          6           0        4.778703   -1.269802   -0.013725
     12          6           0        4.477547   -0.545772    1.334359
     13          6           0        3.028060   -0.121392    1.393652
     14          6           0        2.039088   -0.718917    2.145173
     15          6           0        0.761062   -0.126203    1.756013
     16          6           0        1.007233    0.935257    0.775828
     17          6           0        6.275906   -1.366340   -0.142733
     18          6           0       -0.568091   -0.273882    2.417234
     19          6           0        6.646378   -0.763977   -1.372676
     20          6           0        0.247827    1.919699    0.167152
     21          6           0       -1.023470    1.829106   -0.320370
     22          6           0        5.438528   -0.381605   -2.143443
     23          6           0       -1.893824    2.930403   -0.812538
     24          6           0        2.090654   -1.910830    3.074309
     25          6           0        7.185246   -2.107879    0.847201
     26          6           0       -3.078688    2.321421   -1.196212
     27          6           0       -1.126852   -1.661091    2.397240
     28          6           0       -3.021819    0.939489   -0.992760
     29          6           0       -1.425940    4.392815   -0.827185
     30          6           0        8.042839   -0.781105   -2.055205
     31          6           0       -1.660031    5.207775    0.624869
     32          6           0       -4.282298    3.033485   -1.833794
     33          6           0       -3.979059    0.017334   -1.193278
     34          6           0       -2.583649   -1.749502    3.039907
     35          6           0       -3.800852   -1.414553   -1.126461
     36          6           0        9.228704   -0.721936   -1.493207
     37          6           0       -1.184841    6.574119    0.427903
     38          6           0       -4.764968   -2.523819   -1.416833
     39          6           0       -4.088503   -3.658666   -1.204459
     40          6           0       -2.767213   -3.259466   -0.584711
     41          6           0       -6.139291   -2.258488   -1.953142
     42          6           0       -4.453776   -5.108844   -1.257322
     43          6           0       -6.890821   -3.210709   -2.628037
     44          1           0        4.158285   -2.305666   -0.064065
     45          1           0        4.968895    0.459688    1.380988
     46          1           0        4.781980   -1.146336    2.114431
     47          1           0        2.978592    1.205058   -0.161555
     48          1           0        3.357872   -0.402150   -1.637554
     49          1           0       -0.307118   -0.156272    3.545411
     50          1           0       -1.286567    0.465406    2.147069
     51          1           0        0.921821    2.781742   -0.051785
     52          1           0        3.172026   -2.199469    3.234330
     53          1           0        1.881402   -1.742748    4.096003
     54          1           0        1.609123   -2.922403    2.771693
     55          1           0        6.669679   -3.246836    1.271330
     56          1           0        7.622150   -1.585838    1.564339
     57          1           0        8.098847   -2.389276    0.407083
     58          1           0       -1.400382   -2.089017    1.487819
     59          1           0       -0.498330   -2.377243    2.984869
     60          1           0       -1.559004   -0.268386   -0.274225
     61          1           0       -1.890284    5.151331   -1.576030
     62          1           0       -0.386886    4.316713   -1.078805
     63          1           0        7.798006   -0.667292   -3.043354
     64          1           0       -1.088166    4.782073    1.499367
     65          1           0       -2.653578    5.163734    0.930949
     66          1           0       -4.202411    4.126566   -1.920118
     67          1           0       -5.264918    2.747058   -1.310131
     68          1           0       -4.477730    2.787745   -2.873449
     69          1           0       -4.934028    0.343714   -1.414054
     70          1           0        9.398468   -0.810431   -0.329835
     71          1           0       10.082569   -1.014154   -2.221508
     72          1           0       -3.798068   -2.774715    3.295423
     73          1           0       -6.517399   -1.172263   -2.077490
     74          1           0       -5.528888   -5.312957   -0.858632
     75          1           0       -4.355837   -5.391930   -2.274549
     76          1           0       -3.769603   -5.893402   -0.643917
     77          1           0       -0.919755    8.103865    1.590613
     78          1           0       -8.023329   -2.935393   -2.853740
     79          1           0       -6.633357   -4.331821   -2.561596
 ---------------------------------------------------------------------

 SCF Done:  E(RB3LYP) =  -1947.85804137     A.U. after   23 cycles

 Excitation energies and oscillator strengths:

 Excited State   1:      Singlet-A      1.9922 eV  622.35 nm  f=0.4515  <S**2>=0.000
     154 ->156         0.14039
     155 ->156         0.69176
     155 <-156        -0.14692
 This state for optimization and/or second-order correction.
 Total Energy, E(TD-HF/TD-DFT) =  -1947.78483014
 Copying the excited state density for this state as the 1-particle RhoCI density.

 The electronic state is 1-A.
 Alpha  occ. eigenvalues --  -19.20388 -19.16912 -19.13039 -19.12428 -19.10200
 Alpha  occ. eigenvalues --  -19.09138 -14.38615 -14.36757 -14.36534 -14.29525
 Alpha  occ. eigenvalues --  -10.32797 -10.31841 -10.29006 -10.27424 -10.25718
 Alpha  occ. eigenvalues --  -10.24295 -10.24279 -10.24124 -10.24089 -10.23992
 Alpha  occ. eigenvalues --  -10.23947 -10.22809 -10.22270 -10.21928 -10.21856
 Alpha  occ. eigenvalues --  -10.21845 -10.21760 -10.21406 -10.21221 -10.21144
 Alpha  occ. eigenvalues --  -10.21094 -10.20905 -10.20731 -10.20463 -10.20418
 Alpha  occ. eigenvalues --  -10.20404 -10.20190 -10.19998 -10.19959 -10.19693
 Alpha  occ. eigenvalues --  -10.19597 -10.19153 -10.19084  -1.11315  -1.11279
 Alpha  occ. eigenvalues --   -1.02248  -1.00145  -0.99920  -0.98689  -0.97840
 Alpha  occ. eigenvalues --   -0.97531  -0.93154  -0.90331  -0.83143  -0.81970
 Alpha  occ. eigenvalues --   -0.81426  -0.81085  -0.80578  -0.79738  -0.78072
 Alpha  occ. eigenvalues --   -0.77570  -0.76911  -0.76006  -0.74450  -0.72542
 Alpha  occ. eigenvalues --   -0.72455  -0.71224  -0.69861  -0.69272  -0.68652
 Alpha  occ. eigenvalues --   -0.67313  -0.66979  -0.64224  -0.61781  -0.61106
 Alpha  occ. eigenvalues --   -0.60731  -0.58540  -0.58301  -0.58002  -0.57143
 Alpha  occ. eigenvalues --   -0.56216  -0.55740  -0.55216  -0.54543  -0.53397
 Alpha  occ. eigenvalues --   -0.52000  -0.51193  -0.50945  -0.50617  -0.49864
 Alpha  occ. eigenvalues --   -0.49291  -0.49100  -0.48922  -0.48489  -0.47744
 Alpha  occ. eigenvalues --   -0.47609  -0.47033  -0.46706  -0.46317  -0.45723
 Alpha  occ. eigenvalues --   -0.45424  -0.44850  -0.44618  -0.43823  -0.43471
 Alpha  occ. eigenvalues --   -0.43422  -0.43156  -0.42786  -0.42669  -0.42224
 Alpha  occ. eigenvalues --   -0.42066  -0.41949  -0.41546  -0.41350  -0.41093
 Alpha  occ. eigenvalues --   -0.40924  -0.40813  -0.40423  -0.39634  -0.39362
 Alpha  occ. eigenvalues --   -0.39311  -0.39114  -0.38690  -0.38631  -0.38398
 Alpha  occ. eigenvalues --   -0.38169  -0.37994  -0.37682  -0.37533  -0.37347
 Alpha  occ. eigenvalues --   -0.37030  -0.36562  -0.35393  -0.35160  -0.34160
 Alpha  occ. eigenvalues --   -0.33913  -0.33283  -0.33134  -0.32812  -0.31510
 Alpha  occ. eigenvalues --   -0.31376  -0.31317  -0.28666  -0.28421  -0.27723
 Alpha  occ. eigenvalues --   -0.27039  -0.26835  -0.26093  -0.25869  -0.25185
 Alpha  occ. eigenvalues --   -0.24975  -0.24580  -0.23418  -0.22621  -0.18788
 Alpha virt. eigenvalues --   -0.11442  -0.06870  -0.06489  -0.01818  -0.01338
 Alpha virt. eigenvalues --    0.00099   0.00199   0.00547   0.02207   0.02843
 Alpha virt. eigenvalues --    0.03076   0.03293   0.04420   0.05189   0.05577

 Mulliken charges:
               1
     1  O   -0.235226
     2  O   -0.087469
     3  O   -0.281676
     4  O   -0.164781
     5  O   -0.268346
     6  O   -0.274447
     7  N   -0.123680
     8  N   -0.265860
     9  N   -0.041011
    10  N   -0.303121
    11  C    0.054721
    12  C    0.265179
    13  C   -0.108411
    14  C   -0.104314
    15  C   -0.072836
    16  C    0.061763
    17  C   -0.146099
    18  C    0.095958
    19  C   -0.119614
    20  C   -0.125904
    21  C    0.099968
    22  C    0.166183
    23  C   -0.068326
    24  C    0.074168
    25  C    0.107301
    26  C   -0.116111
    27  C    0.013785
    28  C    0.157238
    29  C    0.056745
    30  C    0.064315
    31  C   -0.000362
    32  C    0.078656
    33  C   -0.079223
    34  C    0.130077
    35  C    0.063076
    36  C   -0.051754
    37  C    0.153603
    38  C    0.062136
    39  C   -0.160932
    40  C    0.154465
    41  C   -0.045164
    42  C    0.032297
    43  C   -0.084393
    44  H    0.064130
    45  H    0.008633
    46  H   -0.016277
    47  H    0.111213
    48  H    0.158649
    49  H    0.019538
    50  H    0.012356
    51  H    0.008553
    52  H   -0.026389
    53  H    0.004163
    54  H    0.069104
    55  H    0.055015
    56  H   -0.002499
    57  H    0.002114
    58  H    0.043254
    59  H    0.034998
    60  H    0.159131
    61  H    0.052361
    62  H    0.009977
    63  H   -0.010790
    64  H    0.040791
    65  H    0.033990
    66  H    0.010292
    67  H    0.030462
    68  H    0.018067
    69  H   -0.071473
    70  H    0.039956
    71  H    0.050298
    72  H    0.079632
    73  H    0.028391
    74  H    0.042164
    75  H    0.026150
    76  H    0.058751
    77  H    0.203163
    78  H    0.047294
    79  H    0.042259
 Sum of Mulliken charges =  -0.00000

 Dipole moment (field-independent basis, Debye):
    X=              2.1600    Y=              2.4944    Z=              4.0545  Tot=              5.2275
 Quadrupole moment (field-independent basis, Debye-Ang):
   XX=           -217.4610   YY=           -245.0187   ZZ=           -268.2670
   XY=            -14.5713   XZ=             35.1429   YZ=             12.0053

 Normal termination of Gaussian 16 at Tue Oct  8 07:05:25 2019.
