 Gaussian 16, Revision A.03,
 Gaussian 16:  ES64L-G16RevA.03 25-Dec-2016

 --------------------------
 # td=(NStates=1) B3LYP/SVP
 --------------------------

 --
 TD
 --
 Symbolic Z-matrix:
 Charge =  0 Multiplicity = 1

                         Standard orientation:
 ---------------------------------------------------------------------
 Center     Atomic      Atomic             Coordinates (Angstroms)
 Number     Number       Type             X           Y           Z
 ---------------------------------------------------------------------
      1          8           0        5.271213   -0.260246   -3.372953
      2          8           0       -2.949218   -3.011888    3.282492
      3          8           0       -3.199390   -0.706915    2.989920
      4          8           0       -2.011672    7.159699    1.475283
      5          8           0       -1.271814    7.116723   -0.724754
      6          8           0       -1.601045   -4.129667    0.168058
      7          7           0        2.320028    1.058519    0.607686
      8          7           0        4.364539   -0.549547   -1.247818
      9          7           0       -1.894922    0.567910   -0.282234
     10          7           0       -2.494296   -2.005690   -0.342312
     11          6           0        4.749787   -1.016244    0.044684
     12          6           0        4.437996   -0.085851    1.222165
     13          6           0        2.983149    0.124982    1.454410
     14          6           0        2.103318   -0.501887    2.236179
     15          6           0        0.736731    0.058896    1.918033
     16          6           0        1.053623    1.029503    0.887228
     17          6           0        6.252740   -1.052177   -0.187555
     18          6           0       -0.528969   -0.227908    2.664675
     19          6           0        6.607253   -0.730370   -1.452532
     20          6           0        0.057961    1.918273    0.162821
     21          6           0       -1.197928    1.712820   -0.259114
     22          6           0        5.401674   -0.456606   -2.205894
     23          6           0       -2.003230    2.832642   -0.878892
     24          6           0        2.493597   -1.513954    3.347837
     25          6           0        7.204636   -1.550475    0.896513
     26          6           0       -3.154743    2.243913   -1.321784
     27          6           0       -1.009009   -1.683730    2.550927
     28          6           0       -3.022055    0.784940   -1.004198
     29          6           0       -1.700522    4.289800   -0.864135
     30          6           0        7.877326   -0.454509   -2.173554
     31          6           0       -2.116054    5.083961    0.375089
     32          6           0       -4.269835    2.768766   -2.147016
     33          6           0       -3.903978   -0.249976   -1.359953
     34          6           0       -2.492688   -1.735901    2.948124
     35          6           0       -3.603727   -1.601175   -1.098645
     36          6           0        9.108077   -0.516941   -1.595803
     37          6           0       -1.706106    6.519796    0.252485
     38          6           0       -4.449770   -2.771517   -1.450078
     39          6           0       -3.717039   -3.897750   -0.941837
     40          6           0       -2.448320   -3.411040   -0.274456
     41          6           0       -5.695467   -2.623843   -2.135192
     42          6           0       -4.121165   -5.274735   -1.025330
     43          6           0       -6.355378   -3.646679   -2.837442
     44          1           0        4.365576   -2.079001    0.150976
     45          1           0        4.936426    0.767134    1.194388
     46          1           0        4.849964   -0.653075    2.086781
     47          1           0        2.925797    1.437398   -0.174077
     48          1           0        3.355902   -0.716605   -1.424834
     49          1           0       -0.364926    0.025101    3.769596
     50          1           0       -1.291761    0.412245    2.343716
     51          1           0        0.458568    3.075643   -0.142762
     52          1           0        3.535049   -1.880476    3.484354
     53          1           0        2.043705   -1.078675    4.268863
     54          1           0        1.680762   -2.449758    3.094403
     55          1           0        6.673644   -2.317370    1.411477
     56          1           0        7.839613   -1.019614    1.547696
     57          1           0        7.967234   -2.220595    0.291510
     58          1           0       -0.846090   -2.067862    1.540014
     59          1           0       -0.534011   -2.454149    3.215423
     60          1           0       -1.773806   -0.251032   -0.018656
     61          1           0       -2.287448    4.762551   -1.737842
     62          1           0       -0.613680    4.475106   -0.889305
     63          1           0        7.858771   -0.295801   -3.252454
     64          1           0       -1.576855    4.896829    1.413525
     65          1           0       -3.262404    4.950169    0.757065
     66          1           0       -4.249333    3.787329   -2.492775
     67          1           0       -5.230771    2.729363   -1.436120
     68          1           0       -4.633104    2.191764   -2.977516
     69          1           0       -4.748925   -0.088418   -2.010339
     70          1           0        9.271623   -0.818244   -0.418025
     71          1           0        9.960007   -0.474182   -2.325934
     72          1           0       -3.892829   -2.921175    3.411617
     73          1           0       -6.074881   -1.637088   -2.656436
     74          1           0       -5.201686   -5.570876   -0.549805
     75          1           0       -4.142530   -5.603378   -2.063703
     76          1           0       -3.239672   -5.942061   -0.660853
     77          1           0       -2.013732    8.147613    1.364444
     78          1           0       -7.015677   -3.468766   -3.718445
     79          1           0       -6.131848   -4.680169   -2.574144
 ---------------------------------------------------------------------

 SCF Done:  E(RB3LYP) =  -1947.88348052     A.U. after   16 cycles

 Excitation energies and oscillator strengths:

 Excited State   1:      Singlet-A      1.9737 eV  628.18 nm  f=0.1498  <S**2>=0.000
     154 ->156         0.40886
     155 ->156         0.56936
 This state for optimization and/or second-order correction.
 Total Energy, E(TD-HF/TD-DFT) =  -1947.81094847
 Copying the excited state density for this state as the 1-particle RhoCI density.

 The electronic state is 1-A.
 Alpha  occ. eigenvalues --  -19.18186 -19.17180 -19.14476 -19.11674 -19.10624
 Alpha  occ. eigenvalues --  -19.10390 -14.38022 -14.36722 -14.34590 -14.28329
 Alpha  occ. eigenvalues --  -10.33541 -10.31287 -10.28217 -10.26345 -10.25761
 Alpha  occ. eigenvalues --  -10.24861 -10.24658 -10.23731 -10.23723 -10.23573
 Alpha  occ. eigenvalues --  -10.22953 -10.22619 -10.22417 -10.22386 -10.22088
 Alpha  occ. eigenvalues --  -10.21442 -10.21337 -10.21272 -10.21243 -10.21013
 Alpha  occ. eigenvalues --  -10.20793 -10.20543 -10.20478 -10.20459 -10.20290
 Alpha  occ. eigenvalues --  -10.20004 -10.19716 -10.19538 -10.19410 -10.19331
 Alpha  occ. eigenvalues --  -10.19054 -10.18903 -10.18868  -1.08054  -1.06567
 Alpha  occ. eigenvalues --   -1.03839  -1.02402  -1.01279  -1.00482  -0.98736
 Alpha  occ. eigenvalues --   -0.98142  -0.94617  -0.89924  -0.84371  -0.81737
 Alpha  occ. eigenvalues --   -0.81562  -0.80619  -0.79783  -0.79529  -0.78937
 Alpha  occ. eigenvalues --   -0.76768  -0.76008  -0.75353  -0.74164  -0.73032
 Alpha  occ. eigenvalues --   -0.72031  -0.70722  -0.70335  -0.69131  -0.68298
 Alpha  occ. eigenvalues --   -0.66784  -0.65605  -0.63763  -0.62177  -0.60639
 Alpha  occ. eigenvalues --   -0.59829  -0.58773  -0.58369  -0.57968  -0.57654
 Alpha  occ. eigenvalues --   -0.56230  -0.55648  -0.54735  -0.54023  -0.52726
 Alpha  occ. eigenvalues --   -0.52250  -0.51360  -0.51200  -0.50553  -0.49916
 Alpha  occ. eigenvalues --   -0.48661  -0.48420  -0.48239  -0.47646  -0.47090
 Alpha  occ. eigenvalues --   -0.46904  -0.46712  -0.46527  -0.46131  -0.45657
 Alpha  occ. eigenvalues --   -0.45457  -0.44807  -0.44717  -0.44299  -0.43409
 Alpha  occ. eigenvalues --   -0.43161  -0.43091  -0.42734  -0.42676  -0.42536
 Alpha  occ. eigenvalues --   -0.41820  -0.41550  -0.41421  -0.41071  -0.40711
 Alpha  occ. eigenvalues --   -0.40572  -0.40337  -0.40143  -0.39890  -0.39780
 Alpha  occ. eigenvalues --   -0.39484  -0.38969  -0.38838  -0.38552  -0.38448
 Alpha  occ. eigenvalues --   -0.38252  -0.37917  -0.37779  -0.37366  -0.36779
 Alpha  occ. eigenvalues --   -0.36740  -0.35494  -0.35163  -0.35032  -0.34900
 Alpha  occ. eigenvalues --   -0.34230  -0.33441  -0.33039  -0.32780  -0.31592
 Alpha  occ. eigenvalues --   -0.30983  -0.30830  -0.29440  -0.28057  -0.27394
 Alpha  occ. eigenvalues --   -0.27003  -0.26753  -0.26706  -0.25954  -0.24529
 Alpha  occ. eigenvalues --   -0.24190  -0.23386  -0.22975  -0.20771  -0.19492
 Alpha virt. eigenvalues --   -0.10920  -0.06469  -0.06046  -0.02271  -0.01758
 Alpha virt. eigenvalues --    0.00521   0.00905   0.01678   0.02778   0.02997
 Alpha virt. eigenvalues --    0.04052   0.04374   0.04532   0.04866   0.05010

 Mulliken charges:
               1
     1  O   -0.184408
     2  O   -0.196833
     3  O   -0.268790
     4  O   -0.256148
     5  O   -0.220901
     6  O   -0.180655
     7  N   -0.057121
     8  N   -0.243808
     9  N    0.156458
    10  N   -0.359197
    11  C    0.071561
    12  C    0.294226
    13  C   -0.118404
    14  C   -0.114973
    15  C   -0.132541
    16  C    0.020182
    17  C   -0.209387
    18  C    0.127581
    19  C   -0.016667
    20  C   -0.144803
    21  C    0.119993
    22  C    0.147901
    23  C   -0.084951
    24  C    0.028581
    25  C    0.070145
    26  C   -0.084129
    27  C   -0.012894
    28  C    0.068739
    29  C    0.115199
    30  C   -0.004282
    31  C   -0.107049
    32  C    0.081647
    33  C   -0.072479
    34  C    0.170023
    35  C    0.074114
    36  C   -0.071992
    37  C    0.180933
    38  C    0.095594
    39  C   -0.191387
    40  C    0.186626
    41  C   -0.085264
    42  C    0.019306
    43  C   -0.071587
    44  H    0.034551
    45  H   -0.061848
    46  H   -0.013204
    47  H    0.141134
    48  H    0.128310
    49  H    0.013993
    50  H   -0.008081
    51  H    0.027724
    52  H    0.033661
    53  H    0.029362
    54  H    0.048375
    55  H    0.001130
    56  H    0.040861
    57  H    0.036948
    58  H    0.075365
    59  H    0.031041
    60  H   -0.005543
    61  H    0.044380
    62  H    0.016585
    63  H    0.019273
    64  H    0.066414
    65  H    0.079785
    66  H    0.011393
    67  H    0.031866
    68  H    0.026531
    69  H   -0.042601
    70  H    0.047607
    71  H    0.036776
    72  H    0.172167
    73  H    0.027502
    74  H    0.057169
    75  H    0.024045
    76  H    0.030136
    77  H    0.196393
    78  H    0.041930
    79  H    0.020712
 Sum of Mulliken charges =  -0.00000

 Dipole moment (field-independent basis, Debye):
    X=             -0.1217    Y=              2.8214    Z=              1.8508  Tot=              3.3765
 Quadrupole moment (field-independent basis, Debye-Ang):
   XX=           -216.8462   YY=           -248.5916   ZZ=           -261.4211
   XY=            -13.1739   XZ=             32.7114   YZ=              5.3347

 Normal termination of Gaussian 16 at Tue Oct  1 21:02:29 2019.
