 Gaussian 16, Revision A.03,
 Gaussian 16:  ES64L-G16RevA.03 25-Dec-2016

 --------------------------
 # td=(NStates=1) B3LYP/SVP
 --------------------------

 --
 TD
 --
 Symbolic Z-matrix:
 Charge =  0 Multiplicity = 1

                         Standard orientation:
 ---------------------------------------------------------------------
 Center     Atomic      Atomic             Coordinates (Angstroms)
 Number     Number       Type             X           Y           Z
 ---------------------------------------------------------------------
      1          8           0       -3.111994   -1.053240   -2.949624
      2          8           0        3.064342    2.795412    3.238265
      3          8           0        3.600554    1.099254    4.537418
      4          8           0        7.630754   -1.581376   -0.642492
      5          8           0        6.755597   -2.575587   -2.451994
      6          8           0       -2.733767    1.604557    1.588530
      7          7           0       -0.286895   -2.347149    0.546757
      8          7           0       -2.603707   -1.301724   -0.681337
      9          7           0        1.185629    0.167302   -0.570748
     10          7           0       -0.974054    1.532408    0.035303
     11          6           0       -3.366807   -1.459930    0.502234
     12          6           0       -2.685701   -2.590656    1.336624
     13          6           0       -1.219947   -2.218412    1.531543
     14          6           0       -0.634125   -1.736888    2.731832
     15          6           0        0.814649   -1.530757    2.384298
     16          6           0        0.925596   -1.964972    1.070838
     17          6           0       -4.711857   -1.982812   -0.001864
     18          6           0        1.754497   -0.702833    3.202668
     19          6           0       -4.672648   -1.904450   -1.363432
     20          6           0        2.127766   -1.901935    0.228583
     21          6           0        2.120775   -0.825013   -0.692442
     22          6           0       -3.382198   -1.382058   -1.836540
     23          6           0        2.986286   -0.438470   -1.808582
     24          6           0       -1.449721   -1.203122    3.852917
     25          6           0       -5.920607   -2.152761    1.007078
     26          6           0        2.595470    0.682106   -2.407387
     27          6           0        1.817455    0.768957    2.885279
     28          6           0        1.372877    1.022765   -1.600060
     29          6           0        4.268006   -1.282663   -2.226960
     30          6           0       -5.664900   -2.300932   -2.347547
     31          6           0        5.521830   -0.997819   -1.198958
     32          6           0        3.262605    1.514018   -3.429510
     33          6           0        0.493922    2.204818   -1.832906
     34          6           0        2.872600    1.530513    3.703772
     35          6           0       -0.562075    2.435478   -0.994054
     36          6           0       -6.825780   -3.057259   -2.053010
     37          6           0        6.687926   -1.806146   -1.545043
     38          6           0       -1.366121    3.620196   -0.983853
     39          6           0       -2.363448    3.408863    0.092834
     40          6           0       -2.050552    2.060515    0.665933
     41          6           0       -1.364848    4.796927   -1.871541
     42          6           0       -3.417341    4.340258    0.711902
     43          6           0       -2.013225    5.957028   -1.945863
     44          1           0       -3.425599   -0.481201    1.121252
     45          1           0       -2.791543   -3.510229    0.737787
     46          1           0       -3.045824   -2.737651    2.390446
     47          1           0       -0.233110   -2.849644   -0.297810
     48          1           0       -1.925891   -0.412874   -0.625959
     49          1           0        1.450124   -0.523797    4.475219
     50          1           0        2.658646   -1.138479    3.051693
     51          1           0        2.563192   -3.017550   -0.144450
     52          1           0       -2.426271   -1.698911    4.016896
     53          1           0       -0.881304   -1.159506    4.892785
     54          1           0       -1.831835   -0.252580    3.571738
     55          1           0       -5.881886   -1.577929    1.942694
     56          1           0       -6.211989   -3.257671    1.327899
     57          1           0       -6.743265   -1.810836    0.571964
     58          1           0        1.713088    1.211280    1.714467
     59          1           0        0.759588    1.414200    3.179516
     60          1           0        0.341814    0.389999   -0.045076
     61          1           0        4.730420   -0.956710   -3.234420
     62          1           0        4.010824   -2.287709   -2.145114
     63          1           0       -5.316647   -1.973049   -3.371470
     64          1           0        5.488424   -0.964728   -0.045286
     65          1           0        5.937120    0.098589   -1.171407
     66          1           0        3.975667    0.732555   -3.864594
     67          1           0        3.737874    2.483889   -2.971416
     68          1           0        2.451936    1.796312   -4.020861
     69          1           0        0.847821    2.983109   -2.450118
     70          1           0       -6.846884   -3.341726   -1.022634
     71          1           0       -7.378649   -3.481008   -2.841997
     72          1           0        3.791139    3.229704    3.760306
     73          1           0       -0.620282    4.728834   -2.740390
     74          1           0       -4.246897    4.544627    0.064864
     75          1           0       -3.831175    3.599092    1.374610
     76          1           0       -3.253386    5.340245    1.209796
     77          1           0        8.421700   -2.114464   -0.921352
     78          1           0       -2.050267    6.759823   -2.863790
     79          1           0       -2.529520    6.152652   -1.109142
 ---------------------------------------------------------------------

 SCF Done:  E(RB3LYP) =  -1947.82132024     A.U. after   20 cycles

 Excitation energies and oscillator strengths:

 Excited State   1:      Singlet-A      0.9269 eV 1337.58 nm  f=0.0004  <S**2>=0.000
     155 ->156         0.70217
 This state for optimization and/or second-order correction.
 Total Energy, E(TD-HF/TD-DFT) =  -1947.78725628
 Copying the excited state density for this state as the 1-particle RhoCI density.

 The electronic state is 1-A.
 Alpha  occ. eigenvalues --  -19.19690 -19.16834 -19.13603 -19.12045 -19.11365
 Alpha  occ. eigenvalues --  -19.09169 -14.39151 -14.36796 -14.32644 -14.30749
 Alpha  occ. eigenvalues --  -10.32570 -10.31326 -10.28565 -10.27505 -10.27435
 Alpha  occ. eigenvalues --  -10.26514 -10.25441 -10.24771 -10.24011 -10.23695
 Alpha  occ. eigenvalues --  -10.23264 -10.23129 -10.22966 -10.22357 -10.22240
 Alpha  occ. eigenvalues --  -10.22053 -10.21769 -10.21727 -10.21189 -10.21009
 Alpha  occ. eigenvalues --  -10.20803 -10.20454 -10.20310 -10.19960 -10.19676
 Alpha  occ. eigenvalues --  -10.19252 -10.19238 -10.19206 -10.18158 -10.18095
 Alpha  occ. eigenvalues --  -10.18086 -10.17773 -10.17312  -1.11980  -1.09003
 Alpha  occ. eigenvalues --   -1.02808  -1.02472  -1.02222  -1.01796  -0.99787
 Alpha  occ. eigenvalues --   -0.97294  -0.92655  -0.92297  -0.85097  -0.82347
 Alpha  occ. eigenvalues --   -0.80273  -0.80023  -0.79517  -0.79098  -0.78435
 Alpha  occ. eigenvalues --   -0.76566  -0.75283  -0.75143  -0.74706  -0.72967
 Alpha  occ. eigenvalues --   -0.71154  -0.70817  -0.70165  -0.69681  -0.67761
 Alpha  occ. eigenvalues --   -0.66583  -0.65297  -0.63417  -0.61134  -0.60777
 Alpha  occ. eigenvalues --   -0.59782  -0.59396  -0.58753  -0.58215  -0.57094
 Alpha  occ. eigenvalues --   -0.55630  -0.55103  -0.54549  -0.53546  -0.52999
 Alpha  occ. eigenvalues --   -0.51841  -0.51262  -0.51166  -0.50062  -0.49799
 Alpha  occ. eigenvalues --   -0.49132  -0.48743  -0.48406  -0.48203  -0.47712
 Alpha  occ. eigenvalues --   -0.47318  -0.46924  -0.46087  -0.45772  -0.45396
 Alpha  occ. eigenvalues --   -0.44977  -0.44732  -0.44377  -0.44253  -0.43978
 Alpha  occ. eigenvalues --   -0.43807  -0.43503  -0.42829  -0.42661  -0.42077
 Alpha  occ. eigenvalues --   -0.41892  -0.41734  -0.41624  -0.41535  -0.41051
 Alpha  occ. eigenvalues --   -0.40755  -0.40656  -0.40422  -0.39798  -0.39698
 Alpha  occ. eigenvalues --   -0.39430  -0.38951  -0.38593  -0.38448  -0.37813
 Alpha  occ. eigenvalues --   -0.37665  -0.37489  -0.36816  -0.36607  -0.36430
 Alpha  occ. eigenvalues --   -0.36240  -0.35808  -0.35639  -0.34977  -0.34132
 Alpha  occ. eigenvalues --   -0.33723  -0.33391  -0.31960  -0.31743  -0.31312
 Alpha  occ. eigenvalues --   -0.30312  -0.30094  -0.29712  -0.29442  -0.28771
 Alpha  occ. eigenvalues --   -0.28581  -0.27568  -0.25716  -0.25379  -0.24256
 Alpha  occ. eigenvalues --   -0.23380  -0.22642  -0.22481  -0.21958  -0.19634
 Alpha virt. eigenvalues --   -0.13649  -0.08547  -0.04928  -0.02038  -0.00377
 Alpha virt. eigenvalues --    0.00599   0.01049   0.01968   0.02088   0.02444
 Alpha virt. eigenvalues --    0.03352   0.03562   0.04261   0.05036   0.05383

 Mulliken charges:
               1
     1  O   -0.199161
     2  O   -0.214726
     3  O   -0.200770
     4  O   -0.176962
     5  O   -0.210590
     6  O   -0.239344
     7  N   -0.002175
     8  N   -0.252339
     9  N   -0.022217
    10  N   -0.366294
    11  C   -0.028868
    12  C    0.237849
    13  C   -0.124229
    14  C   -0.109739
    15  C   -0.077275
    16  C   -0.096577
    17  C   -0.128006
    18  C    0.141917
    19  C   -0.083235
    20  C   -0.101145
    21  C    0.107160
    22  C    0.144951
    23  C   -0.077918
    24  C    0.072371
    25  C    0.101686
    26  C   -0.139446
    27  C   -0.161070
    28  C    0.019221
    29  C    0.153882
    30  C   -0.050297
    31  C   -0.094936
    32  C    0.110486
    33  C   -0.060078
    34  C    0.136740
    35  C    0.161507
    36  C    0.020739
    37  C    0.119171
    38  C    0.063887
    39  C   -0.202694
    40  C    0.188668
    41  C   -0.049839
    42  C    0.091688
    43  C   -0.023212
    44  H    0.074762
    45  H   -0.026101
    46  H    0.001292
    47  H    0.101457
    48  H    0.177397
    49  H    0.050519
    50  H   -0.015347
    51  H    0.064856
    52  H   -0.009761
    53  H    0.025886
    54  H    0.022120
    55  H    0.020563
    56  H    0.042416
    57  H   -0.011550
    58  H    0.056218
    59  H    0.068811
    60  H    0.183212
    61  H    0.051482
    62  H    0.013202
    63  H    0.015106
    64  H    0.056282
    65  H    0.042778
    66  H    0.039425
    67  H    0.069152
    68  H    0.027590
    69  H   -0.026225
    70  H    0.001159
    71  H    0.017919
    72  H    0.186465
    73  H   -0.006765
    74  H    0.012178
    75  H    0.015094
    76  H    0.056395
    77  H    0.189428
    78  H    0.064890
    79  H   -0.031084
 Sum of Mulliken charges =  -0.00000

 Dipole moment (field-independent basis, Debye):
    X=              4.5487    Y=              2.5002    Z=             -1.7309  Tot=              5.4716
 Quadrupole moment (field-independent basis, Debye-Ang):
   XX=           -231.5749   YY=           -235.3020   ZZ=           -273.5674
   XY=              6.2433   XZ=            -21.3463   YZ=             -9.1277

 Normal termination of Gaussian 16 at Mon Jul 29 23:02:09 2019.
