 Gaussian 16, Revision A.03,
 Gaussian 16:  ES64L-G16RevA.03 25-Dec-2016

 --------------------------
 # td=(NStates=1) B3LYP/SVP
 --------------------------

 --
 TD
 --
 Symbolic Z-matrix:
 Charge =  0 Multiplicity = 1

                         Standard orientation:
 ---------------------------------------------------------------------
 Center     Atomic      Atomic             Coordinates (Angstroms)
 Number     Number       Type             X           Y           Z
 ---------------------------------------------------------------------
      1          8           0        5.111273   -0.078842   -3.348825
      2          8           0       -3.005744   -2.989064    3.006869
      3          8           0       -3.359673   -0.779728    3.016240
      4          8           0       -1.231271    7.208051    1.518507
      5          8           0       -0.063026    6.924996   -0.327969
      6          8           0       -1.946801   -3.800627    0.213064
      7          7           0        2.339101    0.849034    0.622263
      8          7           0        4.204947   -0.705508   -1.178936
      9          7           0       -1.836942    0.778622   -0.256555
     10          7           0       -2.693943   -1.783349   -0.559312
     11          6           0        4.642611   -1.324236    0.007494
     12          6           0        4.399890   -0.424525    1.326185
     13          6           0        2.939309   -0.240309    1.417020
     14          6           0        1.903808   -0.827796    2.047413
     15          6           0        0.694520   -0.088183    1.889679
     16          6           0        1.008152    0.847732    0.817113
     17          6           0        6.193422   -1.524537   -0.286456
     18          6           0       -0.538964   -0.263660    2.607634
     19          6           0        6.539765   -0.942660   -1.487942
     20          6           0        0.261898    1.926709    0.270978
     21          6           0       -1.112592    1.928060   -0.283459
     22          6           0        5.258639   -0.495079   -2.179082
     23          6           0       -1.901460    3.013292   -0.830981
     24          6           0        2.169936   -2.013750    3.042027
     25          6           0        7.018608   -2.085568    0.820208
     26          6           0       -3.077403    2.508208   -1.205979
     27          6           0       -1.122886   -1.722928    2.629713
     28          6           0       -3.042859    1.052611   -0.962724
     29          6           0       -1.364493    4.376465   -0.857730
     30          6           0        7.881433   -0.846938   -2.143989
     31          6           0       -1.554155    5.080413    0.491326
     32          6           0       -4.192912    3.292150   -2.001150
     33          6           0       -4.043027    0.081317   -1.334700
     34          6           0       -2.647218   -1.756021    2.862536
     35          6           0       -3.834695   -1.343604   -1.116443
     36          6           0        9.027659   -0.893545   -1.598304
     37          6           0       -0.850017    6.503434    0.492434
     38          6           0       -4.695032   -2.478753   -1.488741
     39          6           0       -4.074773   -3.645533   -1.076932
     40          6           0       -2.757728   -3.158343   -0.359789
     41          6           0       -5.954900   -2.190634   -2.185138
     42          6           0       -4.294134   -5.021750   -1.189760
     43          6           0       -6.660749   -3.212898   -2.678646
     44          1           0        3.978878   -2.233831    0.292652
     45          1           0        4.873520    0.502010    1.140548
     46          1           0        4.806456   -1.018635    2.223298
     47          1           0        2.753374    1.233484   -0.262198
     48          1           0        3.296010   -0.757120   -1.609320
     49          1           0       -0.493522    0.006487    3.652617
     50          1           0       -1.419397    0.225225    2.392429
     51          1           0        0.760337    2.866011    0.092820
     52          1           0        3.402141   -1.977779    3.000105
     53          1           0        1.933060   -1.839372    3.995307
     54          1           0        1.543030   -2.779779    2.897764
     55          1           0        6.598286   -2.730557    1.649227
     56          1           0        7.325845   -1.251407    1.587977
     57          1           0        7.831628   -2.567042    0.385849
     58          1           0       -1.018571   -2.259135    1.691512
     59          1           0       -0.676680   -2.399942    3.296810
     60          1           0       -1.695286   -0.245540   -0.007627
     61          1           0       -1.842489    4.964699   -1.624146
     62          1           0       -0.397825    4.397503   -0.967943
     63          1           0        7.944789   -0.798461   -3.310391
     64          1           0       -1.032465    4.539376    1.280384
     65          1           0       -2.546370    5.158669    0.758010
     66          1           0       -3.674537    4.351951   -2.037085
     67          1           0       -5.189415    3.252850   -1.507680
     68          1           0       -4.473757    2.770476   -2.974477
     69          1           0       -4.965803    0.361244   -2.067049
     70          1           0        9.297729   -0.987847   -0.390765
     71          1           0        9.905213   -0.905020   -2.168419
     72          1           0       -3.933901   -3.208861    3.327247
     73          1           0       -6.328621   -1.355273   -2.478174
     74          1           0       -5.325141   -5.435518   -0.804176
     75          1           0       -4.142845   -5.307388   -2.290544
     76          1           0       -3.639327   -5.721818   -0.585943
     77          1           0       -0.983859    8.137790    1.513830
     78          1           0       -7.552940   -3.231995   -3.310769
     79          1           0       -6.365675   -4.260149   -2.519882
 ---------------------------------------------------------------------

 SCF Done:  E(RB3LYP) =  -1947.85985853     A.U. after   16 cycles

 Excitation energies and oscillator strengths:

 Excited State   1:      Singlet-A      1.9386 eV  639.56 nm  f=0.4149  <S**2>=0.000
     155 ->156         0.69970
     155 <-156        -0.12884
 This state for optimization and/or second-order correction.
 Total Energy, E(TD-HF/TD-DFT) =  -1947.78861727
 Copying the excited state density for this state as the 1-particle RhoCI density.

 The electronic state is 1-A.
 Alpha  occ. eigenvalues --  -19.19034 -19.17626 -19.12586 -19.11488 -19.10704
 Alpha  occ. eigenvalues --  -19.10500 -14.37081 -14.36230 -14.35481 -14.28050
 Alpha  occ. eigenvalues --  -10.32526 -10.30378 -10.30016 -10.26144 -10.25721
 Alpha  occ. eigenvalues --  -10.24967 -10.24273 -10.23427 -10.23010 -10.22533
 Alpha  occ. eigenvalues --  -10.22400 -10.22013 -10.21806 -10.21689 -10.21425
 Alpha  occ. eigenvalues --  -10.21355 -10.20723 -10.20678 -10.20674 -10.20600
 Alpha  occ. eigenvalues --  -10.20349 -10.20114 -10.19658 -10.19612 -10.19508
 Alpha  occ. eigenvalues --  -10.19203 -10.19092 -10.19043 -10.18871 -10.18848
 Alpha  occ. eigenvalues --  -10.18746 -10.17549 -10.17424  -1.11535  -1.09194
 Alpha  occ. eigenvalues --   -1.03296  -1.01104  -1.00899  -0.98844  -0.97185
 Alpha  occ. eigenvalues --   -0.96640  -0.93485  -0.91238  -0.83418  -0.82098
 Alpha  occ. eigenvalues --   -0.81307  -0.80484  -0.80344  -0.78697  -0.77508
 Alpha  occ. eigenvalues --   -0.77158  -0.76034  -0.75811  -0.73712  -0.72052
 Alpha  occ. eigenvalues --   -0.71598  -0.71035  -0.69550  -0.68800  -0.68579
 Alpha  occ. eigenvalues --   -0.67281  -0.65408  -0.63128  -0.62401  -0.60849
 Alpha  occ. eigenvalues --   -0.60082  -0.59346  -0.58728  -0.57646  -0.56646
 Alpha  occ. eigenvalues --   -0.56497  -0.55336  -0.55227  -0.53881  -0.52747
 Alpha  occ. eigenvalues --   -0.51916  -0.51418  -0.51120  -0.50555  -0.50057
 Alpha  occ. eigenvalues --   -0.48776  -0.48433  -0.48170  -0.47716  -0.47102
 Alpha  occ. eigenvalues --   -0.46977  -0.46531  -0.46440  -0.46251  -0.46069
 Alpha  occ. eigenvalues --   -0.45098  -0.44902  -0.44229  -0.43992  -0.43676
 Alpha  occ. eigenvalues --   -0.43445  -0.43429  -0.43024  -0.42645  -0.42361
 Alpha  occ. eigenvalues --   -0.41985  -0.41851  -0.41377  -0.41006  -0.40840
 Alpha  occ. eigenvalues --   -0.40681  -0.40081  -0.39982  -0.39803  -0.39584
 Alpha  occ. eigenvalues --   -0.39479  -0.39206  -0.38999  -0.38657  -0.38363
 Alpha  occ. eigenvalues --   -0.37811  -0.37612  -0.37505  -0.36941  -0.36634
 Alpha  occ. eigenvalues --   -0.35721  -0.35457  -0.35103  -0.34766  -0.34391
 Alpha  occ. eigenvalues --   -0.33784  -0.33556  -0.32838  -0.32274  -0.32032
 Alpha  occ. eigenvalues --   -0.30915  -0.30201  -0.28393  -0.27745  -0.27120
 Alpha  occ. eigenvalues --   -0.26510  -0.26352  -0.26253  -0.25973  -0.25291
 Alpha  occ. eigenvalues --   -0.24640  -0.23576  -0.22879  -0.21459  -0.18046
 Alpha virt. eigenvalues --   -0.10570  -0.06296  -0.05917  -0.00253   0.00641
 Alpha virt. eigenvalues --    0.00757   0.01459   0.02441   0.03078   0.03852
 Alpha virt. eigenvalues --    0.04231   0.04601   0.04813   0.05243   0.05571

 Mulliken charges:
               1
     1  O   -0.236243
     2  O   -0.163581
     3  O   -0.243370
     4  O   -0.138753
     5  O   -0.230176
     6  O   -0.160876
     7  N   -0.140969
     8  N   -0.229741
     9  N   -0.097602
    10  N   -0.301470
    11  C    0.025877
    12  C    0.223325
    13  C   -0.085646
    14  C   -0.148671
    15  C   -0.026534
    16  C    0.083157
    17  C   -0.107820
    18  C    0.154851
    19  C   -0.037623
    20  C   -0.090998
    21  C    0.037843
    22  C    0.187457
    23  C   -0.080918
    24  C    0.181733
    25  C    0.052136
    26  C   -0.136924
    27  C   -0.048032
    28  C    0.115795
    29  C    0.234095
    30  C    0.000696
    31  C    0.004479
    32  C    0.060204
    33  C   -0.126217
    34  C    0.124910
    35  C    0.050611
    36  C   -0.069984
    37  C    0.108442
    38  C    0.101249
    39  C   -0.183345
    40  C    0.140449
    41  C    0.065760
    42  C    0.007987
    43  C   -0.042728
    44  H    0.035442
    45  H   -0.020803
    46  H    0.021323
    47  H    0.136621
    48  H    0.131553
    49  H   -0.010839
    50  H   -0.022797
    51  H   -0.020858
    52  H    0.014385
    53  H   -0.030684
    54  H   -0.004105
    55  H    0.023030
    56  H    0.046872
    57  H    0.030320
    58  H    0.046129
    59  H   -0.005672
    60  H    0.176141
    61  H    0.000667
    62  H   -0.053154
    63  H    0.042400
    64  H    0.035762
    65  H    0.005659
    66  H    0.041056
    67  H    0.027679
    68  H    0.037947
    69  H    0.024468
    70  H    0.036880
    71  H    0.009331
    72  H    0.201599
    73  H   -0.100916
    74  H    0.035441
    75  H    0.048898
    76  H    0.028050
    77  H    0.183144
    78  H    0.015377
    79  H    0.000827
 Sum of Mulliken charges =  -0.00000

 Dipole moment (field-independent basis, Debye):
    X=              0.1840    Y=              0.6298    Z=              3.3066  Tot=              3.3711
 Quadrupole moment (field-independent basis, Debye-Ang):
   XX=           -216.5749   YY=           -232.4582   ZZ=           -257.3223
   XY=            -11.8340   XZ=             28.4667   YZ=              2.7523

 Normal termination of Gaussian 16 at Sat Sep 21 09:49:31 2019.
