 Gaussian 16, Revision A.03,
 Gaussian 16:  ES64L-G16RevA.03 25-Dec-2016

 --------------------------
 # td=(NStates=1) B3LYP/SVP
 --------------------------

 --
 TD
 --
 Symbolic Z-matrix:
 Charge =  0 Multiplicity = 1

                         Standard orientation:
 ---------------------------------------------------------------------
 Center     Atomic      Atomic             Coordinates (Angstroms)
 Number     Number       Type             X           Y           Z
 ---------------------------------------------------------------------
      1          8           0        5.358263   -0.034612   -3.243628
      2          8           0       -2.961142   -2.993333    3.131209
      3          8           0       -3.385519   -0.713125    3.005086
      4          8           0       -1.888482    7.188808    1.519259
      5          8           0       -0.728498    7.070214   -0.378717
      6          8           0       -1.762754   -4.059216    0.008517
      7          7           0        2.313646    0.969868    0.548520
      8          7           0        4.335946   -0.648323   -1.284792
      9          7           0       -1.808639    0.733507   -0.369138
     10          7           0       -2.414300   -2.000048   -0.659025
     11          6           0        4.740187   -1.183024    0.045934
     12          6           0        4.371847   -0.257464    1.153667
     13          6           0        2.943130    0.017773    1.327766
     14          6           0        1.867035   -0.548217    2.100788
     15          6           0        0.717058    0.055740    1.778739
     16          6           0        0.983742    0.997906    0.761955
     17          6           0        6.294730   -1.362802   -0.235914
     18          6           0       -0.591715   -0.148152    2.464361
     19          6           0        6.726982   -0.921868   -1.335131
     20          6           0        0.212260    2.050817    0.141544
     21          6           0       -1.062333    1.884755   -0.407795
     22          6           0        5.502387   -0.462740   -2.084580
     23          6           0       -1.902731    2.917909   -0.949385
     24          6           0        2.091469   -1.744435    3.135495
     25          6           0        7.058876   -2.004303    0.972082
     26          6           0       -3.110881    2.361330   -1.378402
     27          6           0       -1.152867   -1.629437    2.654102
     28          6           0       -2.993657    0.937201   -1.037738
     29          6           0       -1.588096    4.323578   -0.934453
     30          6           0        8.038766   -0.727847   -1.950476
     31          6           0       -1.734022    5.046721    0.450101
     32          6           0       -4.273704    2.995807   -1.945923
     33          6           0       -3.825308   -0.136619   -1.390502
     34          6           0       -2.566546   -1.636560    2.947620
     35          6           0       -3.637491   -1.518455   -1.154220
     36          6           0        9.176095   -0.668579   -1.344700
     37          6           0       -1.365694    6.574229    0.441141
     38          6           0       -4.465923   -2.656189   -1.503720
     39          6           0       -3.906783   -3.811560   -1.002248
     40          6           0       -2.644803   -3.356045   -0.428956
     41          6           0       -5.801005   -2.526062   -2.116530
     42          6           0       -4.354191   -5.184341   -0.867188
     43          6           0       -6.638476   -3.534025   -2.536094
     44          1           0        4.288140   -2.124275    0.217889
     45          1           0        5.123960    0.576949    0.990652
     46          1           0        4.964401   -0.808403    1.985925
     47          1           0        3.031454    1.759983    0.211001
     48          1           0        3.322132   -0.404519   -1.508999
     49          1           0       -0.581736    0.233481    3.608759
     50          1           0       -1.300750    0.427762    1.941486
     51          1           0        0.623560    3.009712   -0.128910
     52          1           0        3.119064   -1.836338    3.537231
     53          1           0        1.497878   -1.511526    4.071918
     54          1           0        1.596467   -2.702235    2.718520
     55          1           0        6.352053   -2.513538    1.709043
     56          1           0        7.650173   -1.200668    1.462916
     57          1           0        7.884745   -2.928826    0.616095
     58          1           0       -0.961585   -2.059811    1.631380
     59          1           0       -0.597423   -2.190092    3.377598
     60          1           0       -1.797394   -0.290545   -0.115707
     61          1           0       -2.049183    5.029893   -1.814582
     62          1           0       -0.682356    4.358086   -1.457881
     63          1           0        7.923537   -0.671452   -3.069355
     64          1           0       -1.033989    4.593373    1.186597
     65          1           0       -2.757110    5.097102    0.712293
     66          1           0       -3.986420    4.034590   -2.545936
     67          1           0       -5.346338    2.852728   -1.432742
     68          1           0       -4.632510    2.480116   -2.985008
     69          1           0       -4.800510   -0.043035   -1.867779
     70          1           0        9.254068   -0.781983   -0.206864
     71          1           0       10.133475   -0.679670   -1.942235
     72          1           0       -3.814517   -3.063363    3.430789
     73          1           0       -6.200831   -1.626006   -2.618099
     74          1           0       -5.253726   -5.515014   -0.114683
     75          1           0       -4.404647   -5.749068   -1.908843
     76          1           0       -3.534054   -5.895574   -0.497574
     77          1           0       -1.629283    8.132542    1.477433
     78          1           0       -7.499313   -3.210472   -3.222204
     79          1           0       -6.592954   -4.705087   -2.060931
 ---------------------------------------------------------------------

 SCF Done:  E(RB3LYP) =  -1947.84563751     A.U. after   20 cycles

 Excitation energies and oscillator strengths:

 Excited State   1:      Singlet-A      1.9452 eV  637.37 nm  f=0.3492  <S**2>=0.000
     154 ->156         0.18018
     155 ->156         0.67609
     155 <-156        -0.11850
 This state for optimization and/or second-order correction.
 Total Energy, E(TD-HF/TD-DFT) =  -1947.77415145
 Copying the excited state density for this state as the 1-particle RhoCI density.

 The electronic state is 1-A.
 Alpha  occ. eigenvalues --  -19.19089 -19.15253 -19.13786 -19.12404 -19.09355
 Alpha  occ. eigenvalues --  -19.09253 -14.39774 -14.36632 -14.34332 -14.28426
 Alpha  occ. eigenvalues --  -10.32405 -10.31493 -10.28550 -10.25017 -10.24938
 Alpha  occ. eigenvalues --  -10.24818 -10.24041 -10.23558 -10.23520 -10.23204
 Alpha  occ. eigenvalues --  -10.23135 -10.22804 -10.22481 -10.22244 -10.22018
 Alpha  occ. eigenvalues --  -10.21594 -10.21351 -10.21308 -10.21275 -10.21251
 Alpha  occ. eigenvalues --  -10.21011 -10.20759 -10.20460 -10.20449 -10.20291
 Alpha  occ. eigenvalues --  -10.20210 -10.20171 -10.19857 -10.19834 -10.19570
 Alpha  occ. eigenvalues --  -10.19379 -10.19282 -10.19205  -1.12016  -1.06259
 Alpha  occ. eigenvalues --   -1.03651  -1.01134  -1.00379  -0.99764  -0.98692
 Alpha  occ. eigenvalues --   -0.98632  -0.91841  -0.90718  -0.83570  -0.83031
 Alpha  occ. eigenvalues --   -0.82047  -0.81338  -0.79874  -0.79445  -0.77557
 Alpha  occ. eigenvalues --   -0.77137  -0.76892  -0.76201  -0.74650  -0.72933
 Alpha  occ. eigenvalues --   -0.71438  -0.70614  -0.69537  -0.68484  -0.68348
 Alpha  occ. eigenvalues --   -0.67753  -0.65542  -0.63280  -0.61297  -0.60779
 Alpha  occ. eigenvalues --   -0.60237  -0.59100  -0.58560  -0.57683  -0.57385
 Alpha  occ. eigenvalues --   -0.56280  -0.55306  -0.54642  -0.53379  -0.52822
 Alpha  occ. eigenvalues --   -0.51721  -0.51168  -0.50400  -0.50308  -0.50002
 Alpha  occ. eigenvalues --   -0.49767  -0.49232  -0.48980  -0.48353  -0.47880
 Alpha  occ. eigenvalues --   -0.47529  -0.47082  -0.45872  -0.45849  -0.45464
 Alpha  occ. eigenvalues --   -0.45110  -0.44669  -0.44180  -0.44081  -0.43635
 Alpha  occ. eigenvalues --   -0.43305  -0.43250  -0.43023  -0.42557  -0.42302
 Alpha  occ. eigenvalues --   -0.42081  -0.41859  -0.41543  -0.41154  -0.41046
 Alpha  occ. eigenvalues --   -0.40740  -0.40318  -0.40004  -0.39409  -0.39271
 Alpha  occ. eigenvalues --   -0.38852  -0.38623  -0.38523  -0.38321  -0.38123
 Alpha  occ. eigenvalues --   -0.37963  -0.37601  -0.37458  -0.36974  -0.36492
 Alpha  occ. eigenvalues --   -0.36169  -0.35190  -0.34609  -0.34342  -0.34239
 Alpha  occ. eigenvalues --   -0.33825  -0.33609  -0.33131  -0.32612  -0.32246
 Alpha  occ. eigenvalues --   -0.30896  -0.30818  -0.28937  -0.27982  -0.27440
 Alpha  occ. eigenvalues --   -0.26999  -0.26399  -0.26077  -0.25634  -0.24755
 Alpha  occ. eigenvalues --   -0.24592  -0.23726  -0.23497  -0.21896  -0.19051
 Alpha virt. eigenvalues --   -0.11376  -0.07025  -0.04870  -0.01511  -0.00556
 Alpha virt. eigenvalues --   -0.00148   0.01379   0.01558   0.02471   0.02947
 Alpha virt. eigenvalues --    0.03108   0.03707   0.04242   0.04324   0.05202

 Mulliken charges:
               1
     1  O   -0.247322
     2  O   -0.206980
     3  O   -0.237435
     4  O   -0.187587
     5  O   -0.155172
     6  O   -0.192009
     7  N   -0.106784
     8  N   -0.268984
     9  N   -0.089416
    10  N   -0.327309
    11  C    0.105459
    12  C    0.106892
    13  C   -0.029714
    14  C   -0.124550
    15  C   -0.042785
    16  C    0.079914
    17  C   -0.216523
    18  C    0.058598
    19  C    0.020047
    20  C   -0.078684
    21  C    0.086241
    22  C    0.164209
    23  C   -0.068131
    24  C    0.056135
    25  C   -0.028007
    26  C   -0.033708
    27  C   -0.005780
    28  C    0.097128
    29  C    0.035193
    30  C    0.020338
    31  C    0.054972
    32  C   -0.034382
    33  C   -0.050899
    34  C    0.165610
    35  C    0.031858
    36  C   -0.048166
    37  C    0.073580
    38  C    0.089529
    39  C   -0.113904
    40  C    0.129840
    41  C   -0.052695
    42  C   -0.023095
    43  C   -0.114639
    44  H    0.001228
    45  H   -0.006477
    46  H   -0.000579
    47  H    0.175568
    48  H    0.152998
    49  H    0.026912
    50  H   -0.008181
    51  H   -0.020364
    52  H    0.016420
    53  H    0.018712
    54  H    0.064752
    55  H    0.044767
    56  H    0.054000
    57  H    0.064106
    58  H    0.095089
    59  H    0.024296
    60  H    0.166818
    61  H    0.017992
    62  H   -0.001869
    63  H    0.025748
    64  H    0.050679
    65  H    0.028012
    66  H    0.043563
    67  H    0.063886
    68  H    0.026654
    69  H   -0.041499
    70  H    0.027043
    71  H    0.040430
    72  H    0.141378
    73  H    0.005913
    74  H    0.061403
    75  H    0.040486
    76  H    0.023676
    77  H    0.182209
    78  H    0.040195
    79  H    0.063152
 Sum of Mulliken charges =  -0.00000

 Dipole moment (field-independent basis, Debye):
    X=              0.6848    Y=              3.3600    Z=              3.8319  Tot=              5.1422
 Quadrupole moment (field-independent basis, Debye-Ang):
   XX=           -218.7911   YY=           -239.8199   ZZ=           -262.2097
   XY=             -8.5338   XZ=             34.1284   YZ=              0.5831

 Normal termination of Gaussian 16 at Mon Sep 23 08:03:44 2019.
