 Gaussian 16, Revision A.03,
 Gaussian 16:  ES64L-G16RevA.03 25-Dec-2016

 --------------------------
 # td=(NStates=1) B3LYP/SVP
 --------------------------

 --
 TD
 --
 Symbolic Z-matrix:
 Charge =  0 Multiplicity = 1

                         Standard orientation:
 ---------------------------------------------------------------------
 Center     Atomic      Atomic             Coordinates (Angstroms)
 Number     Number       Type             X           Y           Z
 ---------------------------------------------------------------------
      1          8           0        5.450651   -0.043318   -3.213295
      2          8           0       -3.379442   -2.834858    3.042057
      3          8           0       -3.592330   -0.647918    2.439217
      4          8           0       -1.865917    7.336544    1.380151
      5          8           0       -0.278525    6.964998   -0.363791
      6          8           0       -1.797180   -3.928042   -0.041583
      7          7           0        2.438147    0.826201    0.791266
      8          7           0        4.415306   -0.698302   -1.245352
      9          7           0       -1.756726    0.724003   -0.407554
     10          7           0       -2.561516   -1.886824   -0.550400
     11          6           0        4.756007   -1.305423    0.051150
     12          6           0        4.466575   -0.521055    1.321901
     13          6           0        2.944085   -0.187518    1.462941
     14          6           0        1.894219   -0.868814    2.092393
     15          6           0        0.645565   -0.157858    1.788406
     16          6           0        1.013153    0.849995    0.984815
     17          6           0        6.336111   -1.503764   -0.175748
     18          6           0       -0.668032   -0.306468    2.586398
     19          6           0        6.684120   -0.861251   -1.371565
     20          6           0        0.245545    1.877503    0.273157
     21          6           0       -0.993307    1.752059   -0.404919
     22          6           0        5.422818   -0.486069   -2.096110
     23          6           0       -1.778912    2.893274   -0.921358
     24          6           0        2.157242   -1.933018    3.230066
     25          6           0        7.134542   -1.966353    0.941811
     26          6           0       -3.078558    2.455132   -1.192729
     27          6           0       -1.273739   -1.665934    2.437606
     28          6           0       -3.062938    1.024861   -0.972673
     29          6           0       -1.228002    4.285227   -0.912919
     30          6           0        7.993601   -0.591579   -2.019850
     31          6           0       -1.634517    5.114497    0.429719
     32          6           0       -4.263268    3.133747   -1.694864
     33          6           0       -3.981733    0.009728   -1.218516
     34          6           0       -2.869293   -1.617533    2.676034
     35          6           0       -3.715301   -1.440188   -1.206742
     36          6           0        9.215756   -0.691040   -1.481024
     37          6           0       -1.149972    6.571115    0.378524
     38          6           0       -4.571137   -2.580791   -1.412058
     39          6           0       -3.907471   -3.733848   -1.013994
     40          6           0       -2.678586   -3.259615   -0.546750
     41          6           0       -5.901341   -2.334719   -2.100927
     42          6           0       -4.416648   -5.099206   -1.197306
     43          6           0       -6.825462   -3.272856   -2.383716
     44          1           0        4.462351   -2.346672    0.141196
     45          1           0        5.086518    0.451518    1.527567
     46          1           0        4.832910   -1.111061    2.285522
     47          1           0        2.984272    1.474528    0.092160
     48          1           0        3.494984   -0.826665   -1.587560
     49          1           0       -0.275578   -0.116486    3.573208
     50          1           0       -1.357921    0.591261    2.141912
     51          1           0        0.798749    2.916080    0.225379
     52          1           0        3.229025   -2.201441    3.424804
     53          1           0        1.801718   -1.828149    4.101301
     54          1           0        1.677409   -2.766450    3.045972
     55          1           0        6.563499   -2.596287    1.552622
     56          1           0        7.613409   -1.116632    1.449291
     57          1           0        7.898682   -2.618044    0.712876
     58          1           0       -1.287449   -2.181213    1.576038
     59          1           0       -0.700220   -2.434832    3.097443
     60          1           0       -1.519680   -0.458514   -0.354436
     61          1           0       -1.676594    4.662272   -1.848742
     62          1           0       -0.097041    4.390796   -0.888915
     63          1           0        7.775441   -0.328386   -3.174798
     64          1           0       -1.324564    4.648258    1.294059
     65          1           0       -2.851142    5.250597    0.463989
     66          1           0       -3.841149    4.155523   -2.387968
     67          1           0       -4.981094    3.561023   -0.841419
     68          1           0       -4.992366    2.660690   -2.401381
     69          1           0       -4.770298    0.355027   -1.656666
     70          1           0        9.385918   -1.019475   -0.333318
     71          1           0       10.220790   -0.372797   -2.022599
     72          1           0       -4.266205   -2.939877    2.919424
     73          1           0       -6.045221   -1.318042   -2.329038
     74          1           0       -5.300896   -5.619938   -0.653642
     75          1           0       -4.579324   -5.178524   -2.398768
     76          1           0       -3.629520   -5.770071   -0.891411
     77          1           0       -1.392783    8.223940    1.249262
     78          1           0       -7.607804   -2.944664   -2.829468
     79          1           0       -6.840107   -4.275510   -2.318568
 ---------------------------------------------------------------------

 SCF Done:  E(RB3LYP) =  -1947.78376537     A.U. after   24 cycles

 Excitation energies and oscillator strengths:

 Excited State   1:      Singlet-A      1.8654 eV  664.63 nm  f=0.3655  <S**2>=0.000
     154 ->156         0.12302
     155 ->156         0.69413
     155 <-156        -0.14306
 This state for optimization and/or second-order correction.
 Total Energy, E(TD-HF/TD-DFT) =  -1947.71521138
 Copying the excited state density for this state as the 1-particle RhoCI density.

 The electronic state is 1-A.
 Alpha  occ. eigenvalues --  -19.18942 -19.16038 -19.15271 -19.11296 -19.09911
 Alpha  occ. eigenvalues --  -19.09534 -14.38585 -14.35961 -14.35495 -14.29061
 Alpha  occ. eigenvalues --  -10.33657 -10.31219 -10.28132 -10.25679 -10.25256
 Alpha  occ. eigenvalues --  -10.24608 -10.23826 -10.23745 -10.23705 -10.23171
 Alpha  occ. eigenvalues --  -10.23095 -10.22557 -10.22529 -10.22499 -10.22133
 Alpha  occ. eigenvalues --  -10.21882 -10.21715 -10.21496 -10.21010 -10.20657
 Alpha  occ. eigenvalues --  -10.20627 -10.20470 -10.20328 -10.19995 -10.19943
 Alpha  occ. eigenvalues --  -10.19538 -10.19520 -10.19197 -10.19127 -10.19051
 Alpha  occ. eigenvalues --  -10.18850 -10.17935 -10.17062  -1.08194  -1.07428
 Alpha  occ. eigenvalues --   -1.03427  -1.01705  -1.01054  -0.98442  -0.98396
 Alpha  occ. eigenvalues --   -0.97653  -0.94768  -0.91560  -0.82205  -0.81933
 Alpha  occ. eigenvalues --   -0.81239  -0.80508  -0.79913  -0.78953  -0.77190
 Alpha  occ. eigenvalues --   -0.76746  -0.75828  -0.75673  -0.74680  -0.72647
 Alpha  occ. eigenvalues --   -0.71609  -0.71535  -0.70212  -0.69012  -0.67244
 Alpha  occ. eigenvalues --   -0.66781  -0.65710  -0.64545  -0.61669  -0.60598
 Alpha  occ. eigenvalues --   -0.60282  -0.59352  -0.57701  -0.57603  -0.56714
 Alpha  occ. eigenvalues --   -0.56059  -0.55509  -0.54702  -0.54010  -0.53396
 Alpha  occ. eigenvalues --   -0.51885  -0.51352  -0.50503  -0.49791  -0.49263
 Alpha  occ. eigenvalues --   -0.48669  -0.48302  -0.48191  -0.47705  -0.47347
 Alpha  occ. eigenvalues --   -0.46809  -0.46321  -0.45768  -0.45639  -0.45298
 Alpha  occ. eigenvalues --   -0.44977  -0.44642  -0.44411  -0.44256  -0.43922
 Alpha  occ. eigenvalues --   -0.43586  -0.43065  -0.43005  -0.42761  -0.42658
 Alpha  occ. eigenvalues --   -0.42200  -0.41818  -0.41497  -0.41386  -0.40788
 Alpha  occ. eigenvalues --   -0.40742  -0.40575  -0.40448  -0.40311  -0.39888
 Alpha  occ. eigenvalues --   -0.39521  -0.39365  -0.39133  -0.38964  -0.38775
 Alpha  occ. eigenvalues --   -0.37847  -0.37544  -0.37415  -0.36687  -0.36136
 Alpha  occ. eigenvalues --   -0.35820  -0.35248  -0.35023  -0.34793  -0.34289
 Alpha  occ. eigenvalues --   -0.33515  -0.33397  -0.32970  -0.32326  -0.30789
 Alpha  occ. eigenvalues --   -0.30640  -0.30431  -0.29731  -0.28153  -0.27620
 Alpha  occ. eigenvalues --   -0.27454  -0.26418  -0.25645  -0.25467  -0.24989
 Alpha  occ. eigenvalues --   -0.24186  -0.23597  -0.23409  -0.22203  -0.18786
 Alpha virt. eigenvalues --   -0.11744  -0.06996  -0.05577  -0.01692  -0.00848
 Alpha virt. eigenvalues --    0.01403   0.01801   0.01908   0.02438   0.02878
 Alpha virt. eigenvalues --    0.03553   0.03824   0.04433   0.04802   0.05510

 Mulliken charges:
               1
     1  O   -0.209682
     2  O   -0.165492
     3  O   -0.241495
     4  O   -0.262214
     5  O   -0.206610
     6  O   -0.203388
     7  N   -0.106202
     8  N   -0.149391
     9  N   -0.146977
    10  N   -0.318090
    11  C    0.137719
    12  C    0.091588
    13  C   -0.066129
    14  C   -0.151416
    15  C   -0.101519
    16  C    0.040792
    17  C   -0.239200
    18  C    0.097835
    19  C   -0.081357
    20  C   -0.128858
    21  C    0.089297
    22  C    0.122501
    23  C   -0.111050
    24  C    0.221679
    25  C    0.168147
    26  C   -0.017046
    27  C    0.045091
    28  C    0.067530
    29  C    0.074113
    30  C    0.006994
    31  C   -0.024068
    32  C   -0.057439
    33  C    0.069355
    34  C    0.147828
    35  C    0.086166
    36  C   -0.112158
    37  C    0.184413
    38  C    0.010867
    39  C   -0.130051
    40  C    0.118356
    41  C    0.002896
    42  C    0.015829
    43  C    0.108064
    44  H    0.026367
    45  H    0.022426
    46  H    0.027607
    47  H    0.157054
    48  H    0.118986
    49  H    0.018050
    50  H    0.064157
    51  H    0.017757
    52  H   -0.010335
    53  H   -0.061300
    54  H   -0.034851
    55  H   -0.013435
    56  H    0.043691
    57  H    0.002764
    58  H    0.002962
    59  H    0.021484
    60  H    0.238872
    61  H    0.023764
    62  H    0.034872
    63  H    0.055508
    64  H    0.032553
    65  H    0.063437
    66  H    0.035564
    67  H    0.059965
    68  H    0.047628
    69  H   -0.128552
    70  H    0.033677
    71  H    0.053096
    72  H    0.143388
    73  H   -0.024409
    74  H    0.050288
    75  H    0.050960
    76  H    0.012567
    77  H    0.193658
    78  H   -0.036994
    79  H   -0.020451
 Sum of Mulliken charges =  -0.00000

 Dipole moment (field-independent basis, Debye):
    X=             -0.6512    Y=              1.2434    Z=              2.6589  Tot=              3.0067
 Quadrupole moment (field-independent basis, Debye-Ang):
   XX=           -221.9207   YY=           -242.1351   ZZ=           -261.7253
   XY=             -5.6618   XZ=             39.4930   YZ=              1.6249

 Normal termination of Gaussian 16 at Sat Sep 21 01:58:40 2019.
