 Gaussian 16, Revision A.03,
 Gaussian 16:  ES64L-G16RevA.03 25-Dec-2016

 --------------------------
 # td=(NStates=1) B3LYP/SVP
 --------------------------

 --
 TD
 --
 Symbolic Z-matrix:
 Charge =  0 Multiplicity = 1

                         Standard orientation:
 ---------------------------------------------------------------------
 Center     Atomic      Atomic             Coordinates (Angstroms)
 Number     Number       Type             X           Y           Z
 ---------------------------------------------------------------------
      1          8           0        5.561012    0.021888   -3.212466
      2          8           0       -3.388825   -2.846193    3.205508
      3          8           0       -3.490579   -0.581269    2.958819
      4          8           0       -1.474557    7.157395    1.555469
      5          8           0       -0.331438    7.003556   -0.412479
      6          8           0       -1.901842   -4.051518   -0.100675
      7          7           0        2.379569    0.786518    0.642053
      8          7           0        4.483309   -0.624349   -1.213278
      9          7           0       -1.775676    0.730751   -0.371449
     10          7           0       -2.649706   -1.817743   -0.685360
     11          6           0        4.820954   -1.296821   -0.013258
     12          6           0        4.367613   -0.674890    1.310688
     13          6           0        2.857280   -0.320965    1.376746
     14          6           0        1.758007   -0.780187    2.050819
     15          6           0        0.558815   -0.087299    1.707999
     16          6           0        1.006117    0.900665    0.831994
     17          6           0        6.393942   -1.516495   -0.105776
     18          6           0       -0.683892   -0.271682    2.578461
     19          6           0        6.852923   -0.983191   -1.362573
     20          6           0        0.292685    1.895977    0.266442
     21          6           0       -0.951234    1.839808   -0.351831
     22          6           0        5.594981   -0.447657   -2.119821
     23          6           0       -1.788220    2.966996   -0.841420
     24          6           0        2.041352   -1.957024    3.087505
     25          6           0        7.207600   -2.120257    0.928852
     26          6           0       -3.068465    2.427660   -1.242753
     27          6           0       -1.360706   -1.677564    2.486944
     28          6           0       -2.936858    0.996523   -1.172880
     29          6           0       -1.359206    4.363449   -0.853298
     30          6           0        8.084649   -0.782121   -1.995470
     31          6           0       -1.448937    5.057575    0.532119
     32          6           0       -4.121351    3.143706   -1.883677
     33          6           0       -3.904850    0.084576   -1.588606
     34          6           0       -2.824893   -1.614039    2.895999
     35          6           0       -3.748776   -1.329300   -1.134952
     36          6           0        9.261211   -0.872778   -1.295825
     37          6           0       -0.985986    6.521055    0.481516
     38          6           0       -4.728395   -2.419843   -1.452287
     39          6           0       -4.091932   -3.651541   -1.050710
     40          6           0       -2.798424   -3.292706   -0.606965
     41          6           0       -6.045536   -2.219383   -2.037377
     42          6           0       -4.618647   -5.067696   -1.161656
     43          6           0       -6.915346   -3.112775   -2.498561
     44          1           0        4.379037   -2.234939   -0.208438
     45          1           0        4.878755    0.444828    1.466867
     46          1           0        4.624539   -1.292274    2.098828
     47          1           0        2.906395    1.294761   -0.114904
     48          1           0        3.479073   -0.712065   -1.548484
     49          1           0       -0.314935   -0.160974    3.591140
     50          1           0       -1.396980    0.540543    2.338425
     51          1           0        0.700275    2.863715    0.028549
     52          1           0        3.161398   -1.883676    3.488231
     53          1           0        1.539095   -1.996523    4.079423
     54          1           0        1.718322   -2.801761    2.835838
     55          1           0        6.589187   -2.908053    1.214160
     56          1           0        7.485101   -1.316423    1.784815
     57          1           0        8.200132   -2.711644    0.581659
     58          1           0       -1.369368   -2.066125    1.475395
     59          1           0       -1.007114   -2.626694    2.888632
     60          1           0       -1.487559   -0.191163   -0.402649
     61          1           0       -2.029968    4.963795   -1.381462
     62          1           0       -0.342994    4.382476   -1.344484
     63          1           0        7.911075   -0.366049   -3.053547
     64          1           0       -0.818368    4.454137    1.352890
     65          1           0       -2.608477    5.207774    0.649913
     66          1           0       -3.873228    4.417415   -2.054499
     67          1           0       -5.058429    2.897244   -1.309537
     68          1           0       -4.298181    2.920870   -3.107602
     69          1           0       -4.882009    0.335018   -2.050082
     70          1           0        9.017686   -1.102230   -0.149525
     71          1           0       10.229746   -0.590511   -1.792664
     72          1           0       -4.380853   -2.595140    3.352822
     73          1           0       -6.383580   -1.287951   -2.362578
     74          1           0       -5.488347   -5.236366   -0.549672
     75          1           0       -4.654964   -5.505952   -2.185556
     76          1           0       -3.781554   -5.637041   -0.844251
     77          1           0       -1.218965    8.136893    1.546950
     78          1           0       -7.819218   -2.852572   -3.051104
     79          1           0       -6.756189   -4.151116   -2.419004
 ---------------------------------------------------------------------

 SCF Done:  E(RB3LYP) =  -1947.84443516     A.U. after   17 cycles

 Excitation energies and oscillator strengths:

 Excited State   1:      Singlet-A      1.7780 eV  697.31 nm  f=0.3451  <S**2>=0.000
     154 ->156         0.10190
     155 ->156         0.70003
     155 <-156        -0.11820
 This state for optimization and/or second-order correction.
 Total Energy, E(TD-HF/TD-DFT) =  -1947.77909337
 Copying the excited state density for this state as the 1-particle RhoCI density.

 The electronic state is 1-A.
 Alpha  occ. eigenvalues --  -19.19553 -19.16902 -19.13383 -19.11397 -19.11354
 Alpha  occ. eigenvalues --  -19.11112 -14.37969 -14.35409 -14.35366 -14.29252
 Alpha  occ. eigenvalues --  -10.32690 -10.30582 -10.29232 -10.27222 -10.24758
 Alpha  occ. eigenvalues --  -10.24479 -10.23929 -10.23265 -10.22997 -10.22932
 Alpha  occ. eigenvalues --  -10.22916 -10.22889 -10.22705 -10.22492 -10.22221
 Alpha  occ. eigenvalues --  -10.21597 -10.21569 -10.20915 -10.20685 -10.20621
 Alpha  occ. eigenvalues --  -10.20472 -10.20250 -10.20170 -10.20144 -10.20012
 Alpha  occ. eigenvalues --  -10.19959 -10.19679 -10.19488 -10.19306 -10.19178
 Alpha  occ. eigenvalues --  -10.18931 -10.18774 -10.18510  -1.10053  -1.06186
 Alpha  occ. eigenvalues --   -1.04121  -1.01512  -0.99052  -0.97541  -0.97447
 Alpha  occ. eigenvalues --   -0.96585  -0.93650  -0.91872  -0.82624  -0.81988
 Alpha  occ. eigenvalues --   -0.81926  -0.80540  -0.80389  -0.79354  -0.77803
 Alpha  occ. eigenvalues --   -0.77089  -0.76222  -0.75549  -0.74611  -0.72105
 Alpha  occ. eigenvalues --   -0.71072  -0.70305  -0.69737  -0.68723  -0.68189
 Alpha  occ. eigenvalues --   -0.66899  -0.66004  -0.64290  -0.61073  -0.60888
 Alpha  occ. eigenvalues --   -0.60215  -0.58285  -0.56986  -0.56898  -0.56106
 Alpha  occ. eigenvalues --   -0.55879  -0.55288  -0.54915  -0.53709  -0.52629
 Alpha  occ. eigenvalues --   -0.52144  -0.51425  -0.50753  -0.50159  -0.49377
 Alpha  occ. eigenvalues --   -0.48534  -0.48506  -0.48304  -0.48024  -0.47474
 Alpha  occ. eigenvalues --   -0.46846  -0.46411  -0.46270  -0.45959  -0.44986
 Alpha  occ. eigenvalues --   -0.44672  -0.44566  -0.44374  -0.44193  -0.43931
 Alpha  occ. eigenvalues --   -0.43857  -0.43508  -0.42789  -0.42438  -0.42175
 Alpha  occ. eigenvalues --   -0.41890  -0.41511  -0.41337  -0.41146  -0.41052
 Alpha  occ. eigenvalues --   -0.40789  -0.40418  -0.40212  -0.39834  -0.39427
 Alpha  occ. eigenvalues --   -0.39348  -0.39264  -0.39066  -0.38619  -0.38320
 Alpha  occ. eigenvalues --   -0.38076  -0.37732  -0.37537  -0.37065  -0.36950
 Alpha  occ. eigenvalues --   -0.35747  -0.35575  -0.34419  -0.34255  -0.33926
 Alpha  occ. eigenvalues --   -0.33759  -0.33426  -0.33277  -0.32949  -0.32149
 Alpha  occ. eigenvalues --   -0.31395  -0.30331  -0.28967  -0.28529  -0.27341
 Alpha  occ. eigenvalues --   -0.26656  -0.26511  -0.26195  -0.25136  -0.24815
 Alpha  occ. eigenvalues --   -0.24355  -0.23997  -0.22951  -0.22401  -0.18653
 Alpha virt. eigenvalues --   -0.11573  -0.07606  -0.06723  -0.00689  -0.00166
 Alpha virt. eigenvalues --    0.00827   0.01115   0.01555   0.02290   0.03067
 Alpha virt. eigenvalues --    0.03369   0.03860   0.04272   0.04599   0.05133

 Mulliken charges:
               1
     1  O   -0.181518
     2  O   -0.240452
     3  O   -0.254924
     4  O   -0.196993
     5  O   -0.217104
     6  O   -0.254301
     7  N   -0.126646
     8  N   -0.275524
     9  N   -0.066803
    10  N   -0.277161
    11  C    0.140513
    12  C    0.219819
    13  C   -0.077909
    14  C   -0.118887
    15  C   -0.102018
    16  C    0.123447
    17  C   -0.188420
    18  C    0.156362
    19  C   -0.067883
    20  C   -0.102068
    21  C    0.051584
    22  C    0.166638
    23  C   -0.101556
    24  C    0.118940
    25  C    0.019641
    26  C   -0.049247
    27  C    0.032967
    28  C    0.143904
    29  C    0.126627
    30  C   -0.034188
    31  C   -0.075309
    32  C   -0.071053
    33  C   -0.105565
    34  C    0.126860
    35  C    0.054364
    36  C   -0.056149
    37  C    0.135037
    38  C    0.046504
    39  C   -0.182718
    40  C    0.184696
    41  C   -0.006023
    42  C    0.138928
    43  C   -0.020096
    44  H    0.001928
    45  H    0.032457
    46  H   -0.040075
    47  H    0.133962
    48  H    0.149523
    49  H    0.014640
    50  H    0.032606
    51  H   -0.035080
    52  H    0.027464
    53  H   -0.008686
    54  H   -0.035154
    55  H    0.013074
    56  H    0.073166
    57  H    0.061116
    58  H    0.047869
    59  H    0.007370
    60  H    0.116496
    61  H   -0.034205
    62  H    0.040673
    63  H    0.033274
    64  H    0.080171
    65  H    0.057256
    66  H    0.045322
    67  H    0.051074
    68  H    0.059111
    69  H   -0.002710
    70  H    0.047067
    71  H    0.044959
    72  H    0.202024
    73  H   -0.036385
    74  H    0.032611
    75  H    0.029394
    76  H   -0.005135
    77  H    0.203623
    78  H    0.025678
    79  H   -0.002795
 Sum of Mulliken charges =  -0.00000

 Dipole moment (field-independent basis, Debye):
    X=             -0.3110    Y=              1.8365    Z=              2.2096  Tot=              2.8899
 Quadrupole moment (field-independent basis, Debye-Ang):
   XX=           -218.9871   YY=           -240.6966   ZZ=           -261.0530
   XY=            -11.3450   XZ=             34.4378   YZ=              7.1087

 Normal termination of Gaussian 16 at Fri Oct 11 06:14:22 2019.
