 Gaussian 16, Revision A.03,
 Gaussian 16:  ES64L-G16RevA.03 25-Dec-2016

 --------------------------
 # td=(NStates=1) B3LYP/SVP
 --------------------------

 --
 TD
 --
 Symbolic Z-matrix:
 Charge =  0 Multiplicity = 1

                         Standard orientation:
 ---------------------------------------------------------------------
 Center     Atomic      Atomic             Coordinates (Angstroms)
 Number     Number       Type             X           Y           Z
 ---------------------------------------------------------------------
      1          8           0       -3.246084   -0.541022   -3.078692
      2          8           0        2.730068    2.381518    4.167600
      3          8           0        4.089791    0.316141    4.215446
      4          8           0        7.834127   -1.077153   -1.154785
      5          8           0        6.721985   -2.236932   -2.816611
      6          8           0       -2.797735    1.233662    1.750064
      7          7           0       -0.218503   -2.587231    0.446146
      8          7           0       -2.629984   -0.937738   -0.891508
      9          7           0        1.140662    0.261300   -0.649869
     10          7           0       -1.027815    1.474784    0.212943
     11          6           0       -3.301418   -1.544989    0.336746
     12          6           0       -2.517266   -2.791256    0.941536
     13          6           0       -1.123325   -2.536959    1.292684
     14          6           0       -0.550659   -1.983636    2.556941
     15          6           0        0.792308   -1.787380    2.236503
     16          6           0        0.948856   -2.099709    0.834684
     17          6           0       -4.655970   -1.923859   -0.140032
     18          6           0        1.825917   -1.240364    3.143529
     19          6           0       -4.728807   -1.706931   -1.533234
     20          6           0        2.150073   -1.955600   -0.132623
     21          6           0        2.157055   -0.692664   -0.761481
     22          6           0       -3.478890   -0.993699   -2.047277
     23          6           0        3.023597   -0.222811   -1.804747
     24          6           0       -1.311916   -1.565652    3.755091
     25          6           0       -5.642967   -2.536229    0.710693
     26          6           0        2.540501    1.055896   -2.164422
     27          6           0        1.825930    0.309525    3.108602
     28          6           0        1.312140    1.256101   -1.484020
     29          6           0        4.189719   -0.941157   -2.274680
     30          6           0       -5.787765   -1.918001   -2.524735
     31          6           0        5.585803   -0.536502   -1.418891
     32          6           0        3.020764    1.912874   -3.466013
     33          6           0        0.432930    2.382394   -1.433973
     34          6           0        3.006873    0.980485    3.829870
     35          6           0       -0.615308    2.465250   -0.602690
     36          6           0       -7.050679   -2.533509   -2.305788
     37          6           0        6.809048   -1.419107   -1.899723
     38          6           0       -1.562232    3.635410   -0.481258
     39          6           0       -2.459698    3.367965    0.549093
     40          6           0       -2.190377    1.901268    0.931280
     41          6           0       -1.325821    4.870488   -1.201349
     42          6           0       -3.547661    4.044863    1.185271
     43          6           0       -2.093378    6.027317   -1.288985
     44          1           0       -3.084088   -0.756520    1.130283
     45          1           0       -2.466231   -3.483483    0.139820
     46          1           0       -3.105347   -3.177123    1.648163
     47          1           0       -0.418033   -2.741058   -0.437682
     48          1           0       -1.636543   -0.226683   -0.651382
     49          1           0        1.878835   -1.573914    4.140474
     50          1           0        2.734893   -1.572379    2.783866
     51          1           0        3.182167   -2.512818   -0.507766
     52          1           0       -2.067900   -2.095644    4.110305
     53          1           0       -0.537338   -1.285301    4.499933
     54          1           0       -1.944403   -0.543616    3.461565
     55          1           0       -5.535095   -2.170511    1.772090
     56          1           0       -5.610135   -3.527375    0.590911
     57          1           0       -6.643653   -2.435227    0.328366
     58          1           0        2.044028    0.706728    2.134117
     59          1           0        0.782627    0.535499    3.280921
     60          1           0        0.191438    0.234530   -0.040379
     61          1           0        4.471193   -0.652826   -3.326416
     62          1           0        3.982807   -1.969622   -2.239353
     63          1           0       -5.633997   -1.387038   -3.451610
     64          1           0        5.421469   -0.742245   -0.336053
     65          1           0        5.638247    0.438571   -1.530977
     66          1           0        3.801969    1.312753   -3.867355
     67          1           0        3.376067    2.797095   -3.067428
     68          1           0        2.106716    1.823712   -4.188349
     69          1           0        0.852261    3.447603   -1.755101
     70          1           0       -7.193776   -3.006512   -1.364463
     71          1           0       -7.700907   -2.715273   -3.230462
     72          1           0        3.575284    2.523430    4.606189
     73          1           0       -0.322755    4.965173   -1.804739
     74          1           0       -4.425519    4.288616    0.482571
     75          1           0       -3.973923    3.412281    1.951494
     76          1           0       -3.182281    4.952968    1.652867
     77          1           0        8.696359   -1.511461   -1.442585
     78          1           0       -1.820760    6.625028   -2.066627
     79          1           0       -3.005681    6.256190   -0.572964
 ---------------------------------------------------------------------

 SCF Done:  E(RB3LYP) =  -1947.78308806     A.U. after   19 cycles

 Excitation energies and oscillator strengths:

 Excited State   1:      Singlet-A      0.9814 eV 1263.36 nm  f=0.0004  <S**2>=0.000
     155 ->156         0.70130
 This state for optimization and/or second-order correction.
 Total Energy, E(TD-HF/TD-DFT) =  -1947.74702296
 Copying the excited state density for this state as the 1-particle RhoCI density.

 The electronic state is 1-A.
 Alpha  occ. eigenvalues --  -19.21664 -19.18825 -19.14497 -19.14196 -19.12444
 Alpha  occ. eigenvalues --  -19.08485 -14.37683 -14.37643 -14.31838 -14.31070
 Alpha  occ. eigenvalues --  -10.34565 -10.34138 -10.28391 -10.26298 -10.26058
 Alpha  occ. eigenvalues --  -10.25596 -10.25465 -10.24159 -10.22721 -10.22563
 Alpha  occ. eigenvalues --  -10.22284 -10.22010 -10.21840 -10.21743 -10.21701
 Alpha  occ. eigenvalues --  -10.21696 -10.21372 -10.20891 -10.20556 -10.20521
 Alpha  occ. eigenvalues --  -10.20408 -10.20340 -10.20022 -10.19215 -10.19122
 Alpha  occ. eigenvalues --  -10.18758 -10.18500 -10.18290 -10.18271 -10.18007
 Alpha  occ. eigenvalues --  -10.17943 -10.17870 -10.17275  -1.11962  -1.05646
 Alpha  occ. eigenvalues --   -1.03590  -1.03080  -1.02852  -1.02185  -1.00878
 Alpha  occ. eigenvalues --   -0.96987  -0.92757  -0.88330  -0.83953  -0.82078
 Alpha  occ. eigenvalues --   -0.81209  -0.80709  -0.79158  -0.78691  -0.77770
 Alpha  occ. eigenvalues --   -0.76995  -0.76827  -0.75352  -0.74557  -0.72842
 Alpha  occ. eigenvalues --   -0.70946  -0.70622  -0.69856  -0.68973  -0.68621
 Alpha  occ. eigenvalues --   -0.68200  -0.66329  -0.63709  -0.63150  -0.61224
 Alpha  occ. eigenvalues --   -0.59102  -0.58580  -0.58209  -0.57338  -0.57108
 Alpha  occ. eigenvalues --   -0.56952  -0.54935  -0.54591  -0.53272  -0.52470
 Alpha  occ. eigenvalues --   -0.52061  -0.51455  -0.51204  -0.50389  -0.49853
 Alpha  occ. eigenvalues --   -0.49446  -0.49227  -0.48276  -0.48015  -0.47502
 Alpha  occ. eigenvalues --   -0.47354  -0.46796  -0.46333  -0.46008  -0.45308
 Alpha  occ. eigenvalues --   -0.45179  -0.44740  -0.44387  -0.44214  -0.44007
 Alpha  occ. eigenvalues --   -0.43898  -0.43710  -0.43208  -0.43047  -0.42761
 Alpha  occ. eigenvalues --   -0.42223  -0.41705  -0.41411  -0.41258  -0.41012
 Alpha  occ. eigenvalues --   -0.40862  -0.40759  -0.40290  -0.40085  -0.39614
 Alpha  occ. eigenvalues --   -0.39496  -0.39213  -0.38986  -0.38878  -0.38511
 Alpha  occ. eigenvalues --   -0.38163  -0.37931  -0.37846  -0.37773  -0.36720
 Alpha  occ. eigenvalues --   -0.36571  -0.36534  -0.36128  -0.35551  -0.35248
 Alpha  occ. eigenvalues --   -0.34422  -0.34362  -0.33825  -0.32207  -0.31555
 Alpha  occ. eigenvalues --   -0.31165  -0.29793  -0.29339  -0.29219  -0.29025
 Alpha  occ. eigenvalues --   -0.28324  -0.26890  -0.25755  -0.24109  -0.23865
 Alpha  occ. eigenvalues --   -0.23236  -0.22871  -0.21873  -0.21106  -0.18899
 Alpha virt. eigenvalues --   -0.12623  -0.07895  -0.04776  -0.03577  -0.01628
 Alpha virt. eigenvalues --   -0.01278   0.01165   0.01759   0.02470   0.03107
 Alpha virt. eigenvalues --    0.03874   0.04178   0.04479   0.05369   0.05910

 Mulliken charges:
               1
     1  O   -0.151370
     2  O   -0.226974
     3  O   -0.314102
     4  O   -0.162557
     5  O   -0.236425
     6  O   -0.204539
     7  N    0.231163
     8  N   -0.402464
     9  N   -0.112850
    10  N   -0.376396
    11  C    0.042718
    12  C    0.288899
    13  C   -0.223034
    14  C   -0.126330
    15  C   -0.124835
    16  C   -0.107050
    17  C   -0.138270
    18  C    0.189199
    19  C   -0.106156
    20  C   -0.072115
    21  C    0.055266
    22  C    0.170646
    23  C   -0.050722
    24  C    0.104903
    25  C    0.168846
    26  C   -0.201158
    27  C    0.023278
    28  C    0.086123
    29  C    0.073963
    30  C   -0.025477
    31  C    0.010697
    32  C    0.139744
    33  C   -0.118782
    34  C    0.221098
    35  C    0.102316
    36  C   -0.037918
    37  C    0.173958
    38  C    0.101063
    39  C   -0.201392
    40  C    0.204109
    41  C   -0.111793
    42  C    0.097455
    43  C   -0.013199
    44  H    0.063126
    45  H   -0.050971
    46  H   -0.054071
    47  H    0.048385
    48  H    0.193627
    49  H   -0.003292
    50  H   -0.041698
    51  H    0.050145
    52  H   -0.034797
    53  H    0.010077
    54  H    0.050716
    55  H    0.037304
    56  H   -0.009523
    57  H    0.008332
    58  H    0.027247
    59  H    0.042463
    60  H    0.233925
    61  H    0.029353
    62  H    0.008758
    63  H    0.003859
    64  H    0.048452
    65  H   -0.004865
    66  H   -0.005268
    67  H    0.022110
    68  H    0.072195
    69  H    0.029915
    70  H   -0.005282
    71  H    0.041815
    72  H    0.171617
    73  H    0.019694
    74  H    0.049251
    75  H    0.017513
    76  H    0.027339
    77  H    0.207994
    78  H    0.005933
    79  H    0.049088
 Sum of Mulliken charges =  -0.00000

 Dipole moment (field-independent basis, Debye):
    X=              4.9418    Y=              1.9181    Z=             -0.1833  Tot=              5.3042
 Quadrupole moment (field-independent basis, Debye-Ang):
   XX=           -224.3613   YY=           -236.6917   ZZ=           -271.0871
   XY=              9.1978   XZ=            -23.1823   YZ=             -6.6675

 Normal termination of Gaussian 16 at Mon Jul 29 13:42:01 2019.
