 Gaussian 16, Revision A.03,
 Gaussian 16:  ES64L-G16RevA.03 25-Dec-2016

 --------------------------
 # td=(NStates=1) B3LYP/SVP
 --------------------------

 --
 TD
 --
 Symbolic Z-matrix:
 Charge =  0 Multiplicity = 1

                         Standard orientation:
 ---------------------------------------------------------------------
 Center     Atomic      Atomic             Coordinates (Angstroms)
 Number     Number       Type             X           Y           Z
 ---------------------------------------------------------------------
      1          8           0        5.181080   -0.095904   -3.296441
      2          8           0       -3.297361   -2.772356    3.313080
      3          8           0       -3.373621   -0.568549    2.957097
      4          8           0       -1.586566    7.059987    1.582219
      5          8           0       -0.580799    7.156018   -0.378133
      6          8           0       -1.805965   -4.022369    0.073754
      7          7           0        2.296566    0.875138    0.630569
      8          7           0        4.251519   -0.675860   -1.240207
      9          7           0       -1.804534    0.728760   -0.438109
     10          7           0       -2.391006   -1.904898   -0.695204
     11          6           0        4.747664   -1.235534    0.090343
     12          6           0        4.350442   -0.441754    1.290550
     13          6           0        2.899030   -0.049915    1.408827
     14          6           0        1.947314   -0.686225    2.226067
     15          6           0        0.777236   -0.053261    1.913293
     16          6           0        0.914167    0.900956    0.903102
     17          6           0        6.226950   -1.355202   -0.159751
     18          6           0       -0.622284   -0.231337    2.601078
     19          6           0        6.488359   -0.942766   -1.342133
     20          6           0        0.207880    1.967898    0.251847
     21          6           0       -0.969307    1.873039   -0.308908
     22          6           0        5.322716   -0.540724   -2.152996
     23          6           0       -1.796621    2.943300   -1.006119
     24          6           0        2.157773   -1.703859    3.313697
     25          6           0        7.109590   -2.059994    0.801389
     26          6           0       -2.998935    2.373994   -1.472357
     27          6           0       -1.257603   -1.581515    2.619727
     28          6           0       -2.893723    0.925637   -1.161909
     29          6           0       -1.392968    4.376682   -1.016423
     30          6           0        7.837248   -0.827537   -2.062407
     31          6           0       -1.666947    5.101986    0.349425
     32          6           0       -4.092978    2.960229   -2.207095
     33          6           0       -3.753073   -0.144832   -1.461585
     34          6           0       -2.691845   -1.531594    3.044395
     35          6           0       -3.635463   -1.487644   -1.225358
     36          6           0        9.083307   -0.734801   -1.469312
     37          6           0       -1.237448    6.566630    0.495352
     38          6           0       -4.452209   -2.562320   -1.582728
     39          6           0       -3.892506   -3.720631   -1.069721
     40          6           0       -2.604428   -3.359208   -0.463463
     41          6           0       -5.761042   -2.435179   -2.119449
     42          6           0       -4.446151   -5.104994   -1.013001
     43          6           0       -6.688484   -3.415598   -2.421514
     44          1           0        4.248171   -2.209842   -0.011086
     45          1           0        4.811873    0.673523    1.243284
     46          1           0        4.861307   -0.779800    2.451644
     47          1           0        2.744251    1.032323   -0.415580
     48          1           0        3.320239   -0.768096   -1.587995
     49          1           0       -0.459228    0.023454    3.573577
     50          1           0       -1.202772    0.476747    2.176496
     51          1           0        0.769143    2.994057    0.156865
     52          1           0        3.173376   -1.804417    3.667725
     53          1           0        1.413292   -1.353589    4.224092
     54          1           0        1.651665   -2.811619    3.203814
     55          1           0        6.520197   -2.735172    1.462655
     56          1           0        7.881635   -1.471095    1.514306
     57          1           0        7.813343   -2.725731    0.306494
     58          1           0       -1.322866   -2.003468    1.631436
     59          1           0       -0.618496   -2.325034    3.160182
     60          1           0       -1.513419   -0.213158   -0.257871
     61          1           0       -2.166954    4.773203   -1.701438
     62          1           0       -0.272939    4.490048   -1.388946
     63          1           0        7.759566   -0.786684   -3.223810
     64          1           0       -1.406265    4.592830    1.277133
     65          1           0       -2.842732    5.104197    0.573026
     66          1           0       -3.850782    3.938634   -2.533689
     67          1           0       -4.902530    3.139894   -1.534689
     68          1           0       -4.262936    2.496452   -3.200668
     69          1           0       -4.530969    0.236613   -2.270220
     70          1           0        9.263321   -0.665571   -0.315871
     71          1           0        9.947159   -0.803775   -2.130972
     72          1           0       -4.167809   -2.534743    3.446479
     73          1           0       -5.973335   -1.535002   -2.656633
     74          1           0       -5.280310   -5.358118   -0.195101
     75          1           0       -4.693073   -5.605854   -2.008353
     76          1           0       -3.649361   -5.677451   -0.395886
     77          1           0       -1.124186    7.947275    1.535421
     78          1           0       -7.456642   -3.126846   -2.882048
     79          1           0       -6.536860   -4.544329   -2.262903
 ---------------------------------------------------------------------

 SCF Done:  E(RB3LYP) =  -1947.84802686     A.U. after   17 cycles

 Excitation energies and oscillator strengths:

 Excited State   1:      Singlet-A      1.8532 eV  669.03 nm  f=0.2124  <S**2>=0.000
     154 ->156         0.18120
     155 ->156         0.67484
 This state for optimization and/or second-order correction.
 Total Energy, E(TD-HF/TD-DFT) =  -1947.77992315
 Copying the excited state density for this state as the 1-particle RhoCI density.

 The electronic state is 1-A.
 Alpha  occ. eigenvalues --  -19.21364 -19.15237 -19.12077 -19.11722 -19.10994
 Alpha  occ. eigenvalues --  -19.10655 -14.38155 -14.36146 -14.35622 -14.27773
 Alpha  occ. eigenvalues --  -10.32544 -10.30471 -10.29278 -10.25782 -10.25646
 Alpha  occ. eigenvalues --  -10.24747 -10.24289 -10.23962 -10.22739 -10.22350
 Alpha  occ. eigenvalues --  -10.22221 -10.22081 -10.22057 -10.22050 -10.22004
 Alpha  occ. eigenvalues --  -10.21980 -10.21921 -10.21718 -10.21589 -10.21585
 Alpha  occ. eigenvalues --  -10.21002 -10.20559 -10.20180 -10.19845 -10.19641
 Alpha  occ. eigenvalues --  -10.19621 -10.19440 -10.19085 -10.18920 -10.18750
 Alpha  occ. eigenvalues --  -10.18620 -10.18434 -10.17065  -1.15302  -1.08481
 Alpha  occ. eigenvalues --   -1.03803  -1.02112  -0.99953  -0.99779  -0.98436
 Alpha  occ. eigenvalues --   -0.97915  -0.93793  -0.89895  -0.83064  -0.82923
 Alpha  occ. eigenvalues --   -0.82184  -0.81110  -0.79682  -0.79281  -0.77898
 Alpha  occ. eigenvalues --   -0.77148  -0.76419  -0.75254  -0.73886  -0.72878
 Alpha  occ. eigenvalues --   -0.72227  -0.71350  -0.70031  -0.69285  -0.68479
 Alpha  occ. eigenvalues --   -0.66756  -0.65951  -0.63735  -0.61607  -0.60709
 Alpha  occ. eigenvalues --   -0.60440  -0.59704  -0.58230  -0.57172  -0.56907
 Alpha  occ. eigenvalues --   -0.55868  -0.55313  -0.55007  -0.53748  -0.53263
 Alpha  occ. eigenvalues --   -0.51628  -0.51300  -0.50855  -0.50482  -0.50024
 Alpha  occ. eigenvalues --   -0.49647  -0.49282  -0.48888  -0.48092  -0.47819
 Alpha  occ. eigenvalues --   -0.47577  -0.47235  -0.46766  -0.46519  -0.46369
 Alpha  occ. eigenvalues --   -0.45165  -0.44829  -0.44224  -0.43999  -0.43611
 Alpha  occ. eigenvalues --   -0.43509  -0.43041  -0.42807  -0.42391  -0.42212
 Alpha  occ. eigenvalues --   -0.42076  -0.41946  -0.41762  -0.41659  -0.41364
 Alpha  occ. eigenvalues --   -0.40726  -0.40402  -0.40167  -0.39938  -0.39750
 Alpha  occ. eigenvalues --   -0.39641  -0.39473  -0.39152  -0.38713  -0.38489
 Alpha  occ. eigenvalues --   -0.38008  -0.37529  -0.37192  -0.36844  -0.36509
 Alpha  occ. eigenvalues --   -0.36192  -0.36037  -0.35439  -0.35170  -0.34800
 Alpha  occ. eigenvalues --   -0.33907  -0.33144  -0.32748  -0.32476  -0.31483
 Alpha  occ. eigenvalues --   -0.31050  -0.30992  -0.28153  -0.28125  -0.27448
 Alpha  occ. eigenvalues --   -0.27183  -0.26779  -0.26450  -0.25907  -0.25320
 Alpha  occ. eigenvalues --   -0.25172  -0.23446  -0.23071  -0.21240  -0.18876
 Alpha virt. eigenvalues --   -0.10853  -0.06508  -0.06048  -0.00987  -0.00347
 Alpha virt. eigenvalues --    0.00039   0.00269   0.01715   0.01985   0.02917
 Alpha virt. eigenvalues --    0.03148   0.04089   0.04237   0.04943   0.05246

 Mulliken charges:
               1
     1  O   -0.224624
     2  O   -0.190099
     3  O   -0.204839
     4  O   -0.076806
     5  O   -0.279519
     6  O   -0.142128
     7  N   -0.139314
     8  N   -0.284665
     9  N   -0.037883
    10  N   -0.397219
    11  C    0.166437
    12  C    0.054044
    13  C   -0.113663
    14  C   -0.064335
    15  C   -0.110684
    16  C    0.042657
    17  C   -0.146206
    18  C    0.221770
    19  C   -0.048280
    20  C   -0.168768
    21  C    0.169548
    22  C    0.181933
    23  C   -0.119238
    24  C    0.006055
    25  C    0.035206
    26  C   -0.128583
    27  C    0.034476
    28  C    0.020644
    29  C    0.124258
    30  C   -0.032632
    31  C   -0.061469
    32  C    0.164086
    33  C   -0.112891
    34  C    0.116227
    35  C    0.130971
    36  C   -0.052815
    37  C    0.101543
    38  C    0.103645
    39  C   -0.170577
    40  C    0.158926
    41  C   -0.062937
    42  C   -0.003873
    43  C    0.047175
    44  H    0.025905
    45  H    0.024609
    46  H    0.060051
    47  H    0.173422
    48  H    0.128711
    49  H   -0.033327
    50  H   -0.044271
    51  H    0.035192
    52  H    0.006488
    53  H    0.027493
    54  H    0.057808
    55  H    0.020877
    56  H    0.055042
    57  H    0.028962
    58  H    0.055443
    59  H    0.010304
    60  H    0.128748
    61  H    0.007957
    62  H    0.059578
    63  H    0.048581
    64  H    0.034273
    65  H    0.039694
    66  H   -0.026316
    67  H    0.027153
    68  H    0.041144
    69  H   -0.004158
    70  H    0.041751
    71  H    0.033769
    72  H    0.136425
    73  H   -0.013970
    74  H    0.044494
    75  H    0.058042
    76  H    0.026730
    77  H    0.191720
    78  H   -0.046652
    79  H    0.032771
 Sum of Mulliken charges =  -0.00000

 Dipole moment (field-independent basis, Debye):
    X=              0.8055    Y=              1.9638    Z=              2.8814  Tot=              3.5788
 Quadrupole moment (field-independent basis, Debye-Ang):
   XX=           -217.5211   YY=           -247.3609   ZZ=           -258.2681
   XY=            -17.9798   XZ=             31.9345   YZ=              9.8832

 Normal termination of Gaussian 16 at Wed Oct  9 23:59:47 2019.
