 Gaussian 16, Revision A.03,
 Gaussian 16:  ES64L-G16RevA.03 25-Dec-2016

 --------------------------
 # td=(NStates=1) B3LYP/SVP
 --------------------------

 --
 TD
 --
 Symbolic Z-matrix:
 Charge =  0 Multiplicity = 1

                         Standard orientation:
 ---------------------------------------------------------------------
 Center     Atomic      Atomic             Coordinates (Angstroms)
 Number     Number       Type             X           Y           Z
 ---------------------------------------------------------------------
      1          8           0       -3.245462   -1.532645   -2.814388
      2          8           0        3.706634    2.952164    2.781133
      3          8           0        3.722791    1.305114    4.506926
      4          8           0        7.705842   -1.345601   -1.127529
      5          8           0        6.504391   -3.083728   -2.057463
      6          8           0       -2.487299    1.672219    1.588520
      7          7           0       -0.298139   -2.268500    0.926761
      8          7           0       -2.815622   -1.086501   -0.551008
      9          7           0        1.149874    0.108620   -0.629910
     10          7           0       -0.870901    1.517937   -0.155226
     11          6           0       -3.453124   -1.223600    0.685138
     12          6           0       -2.702152   -2.230582    1.616547
     13          6           0       -1.295376   -1.959299    1.844836
     14          6           0       -0.654885   -1.187127    2.927568
     15          6           0        0.708588   -1.102464    2.491271
     16          6           0        0.962089   -1.773026    1.351029
     17          6           0       -4.871971   -1.762616    0.270639
     18          6           0        1.849826   -0.395185    3.288478
     19          6           0       -4.738679   -2.055133   -1.050536
     20          6           0        2.064648   -1.934964    0.442295
     21          6           0        2.106359   -0.891461   -0.519518
     22          6           0       -3.519867   -1.523984   -1.586252
     23          6           0        2.988030   -0.666807   -1.760472
     24          6           0       -1.210003   -0.337524    3.914322
     25          6           0       -5.834473   -1.909185    1.285189
     26          6           0        2.555788    0.391003   -2.443473
     27          6           0        2.227398    1.043088    2.548782
     28          6           0        1.372094    0.910228   -1.782694
     29          6           0        4.072431   -1.627837   -1.966025
     30          6           0       -5.771976   -2.711475   -1.908434
     31          6           0        5.335343   -1.092870   -1.178584
     32          6           0        3.092481    1.031298   -3.643079
     33          6           0        0.563481    1.961815   -2.007928
     34          6           0        3.220405    1.694498    3.416965
     35          6           0       -0.580272    2.372997   -1.243088
     36          6           0       -6.893325   -3.435251   -1.677990
     37          6           0        6.575356   -2.020144   -1.520051
     38          6           0       -1.492415    3.500693   -1.304376
     39          6           0       -2.375485    3.385378   -0.229111
     40          6           0       -1.970827    2.164535    0.496181
     41          6           0       -1.452102    4.547857   -2.269284
     42          6           0       -3.474996    4.277061    0.263804
     43          6           0       -2.256923    5.624289   -2.389964
     44          1           0       -3.655468   -0.145280    1.237905
     45          1           0       -2.896716   -3.252201    1.136178
     46          1           0       -3.224671   -2.364240    2.602542
     47          1           0       -0.358254   -2.685998   -0.001496
     48          1           0       -2.037652   -0.386866   -0.689863
     49          1           0        1.632344   -0.238487    4.541957
     50          1           0        2.813746   -0.950459    3.209507
     51          1           0        2.852925   -2.679313    0.580882
     52          1           0       -2.118280   -0.918247    4.209934
     53          1           0       -0.504844   -0.099714    4.664968
     54          1           0       -1.585616    0.540710    3.358754
     55          1           0       -5.591839   -1.171350    2.112869
     56          1           0       -5.902435   -3.122130    1.445929
     57          1           0       -6.841230   -1.450267    0.928018
     58          1           0        2.451847    0.967322    1.429371
     59          1           0        1.471473    1.643205    2.714075
     60          1           0        0.393138    0.254402    0.072810
     61          1           0        4.438455   -1.833262   -2.973093
     62          1           0        3.726701   -2.593011   -1.629186
     63          1           0       -5.598936   -2.448065   -2.893645
     64          1           0        5.224598   -1.133834   -0.203442
     65          1           0        5.664487   -0.074799   -1.392315
     66          1           0        4.004795    0.356986   -4.107682
     67          1           0        3.638611    2.032433   -3.470112
     68          1           0        2.149123    0.960953   -4.353606
     69          1           0        0.565989    2.549512   -2.903733
     70          1           0       -7.227036   -3.712785   -0.544908
     71          1           0       -7.574801   -3.676932   -2.429677
     72          1           0        4.566217    3.249109    3.267162
     73          1           0       -0.487738    4.670536   -2.863315
     74          1           0       -4.319437    4.320043   -0.557124
     75          1           0       -3.905551    4.115634    1.064248
     76          1           0       -3.085709    5.405704    0.350689
     77          1           0        8.327173   -2.208381   -1.338593
     78          1           0       -2.096918    6.331965   -3.242764
     79          1           0       -3.192953    5.720784   -1.658254
 ---------------------------------------------------------------------

 SCF Done:  E(RB3LYP) =  -1947.81023911     A.U. after   20 cycles

 Excitation energies and oscillator strengths:

 Excited State   1:      Singlet-A      0.7100 eV 1746.20 nm  f=0.0007  <S**2>=0.000
     155 ->156         0.70523
 This state for optimization and/or second-order correction.
 Total Energy, E(TD-HF/TD-DFT) =  -1947.78414629
 Copying the excited state density for this state as the 1-particle RhoCI density.

 The electronic state is 1-A.
 Alpha  occ. eigenvalues --  -19.20832 -19.16192 -19.15659 -19.13391 -19.12923
 Alpha  occ. eigenvalues --  -19.07155 -14.37332 -14.36285 -14.33631 -14.31617
 Alpha  occ. eigenvalues --  -10.33863 -10.32506 -10.29076 -10.26957 -10.26297
 Alpha  occ. eigenvalues --  -10.26134 -10.25843 -10.23591 -10.23029 -10.22943
 Alpha  occ. eigenvalues --  -10.22904 -10.22704 -10.22676 -10.22292 -10.22262
 Alpha  occ. eigenvalues --  -10.22106 -10.21518 -10.21514 -10.21339 -10.21265
 Alpha  occ. eigenvalues --  -10.21114 -10.21071 -10.20873 -10.20200 -10.20132
 Alpha  occ. eigenvalues --  -10.20072 -10.19888 -10.18617 -10.17947 -10.17882
 Alpha  occ. eigenvalues --  -10.16912 -10.16763 -10.16078  -1.11007  -1.03779
 Alpha  occ. eigenvalues --   -1.02903  -0.99802  -0.99550  -0.98443  -0.96596
 Alpha  occ. eigenvalues --   -0.95164  -0.92762  -0.92339  -0.84433  -0.83120
 Alpha  occ. eigenvalues --   -0.82073  -0.80872  -0.79636  -0.79031  -0.78845
 Alpha  occ. eigenvalues --   -0.77113  -0.76706  -0.75996  -0.74389  -0.73073
 Alpha  occ. eigenvalues --   -0.72192  -0.70985  -0.70444  -0.69298  -0.67681
 Alpha  occ. eigenvalues --   -0.66627  -0.64898  -0.63565  -0.61569  -0.59607
 Alpha  occ. eigenvalues --   -0.59147  -0.58664  -0.58049  -0.56992  -0.55979
 Alpha  occ. eigenvalues --   -0.55774  -0.55543  -0.54310  -0.53560  -0.52828
 Alpha  occ. eigenvalues --   -0.52368  -0.51646  -0.51404  -0.50753  -0.50103
 Alpha  occ. eigenvalues --   -0.49653  -0.49080  -0.48207  -0.48157  -0.47830
 Alpha  occ. eigenvalues --   -0.47498  -0.46771  -0.46648  -0.45874  -0.45728
 Alpha  occ. eigenvalues --   -0.45358  -0.45306  -0.44919  -0.44893  -0.44490
 Alpha  occ. eigenvalues --   -0.43756  -0.43220  -0.43196  -0.43093  -0.42955
 Alpha  occ. eigenvalues --   -0.42462  -0.41531  -0.41449  -0.41174  -0.40945
 Alpha  occ. eigenvalues --   -0.40794  -0.40617  -0.40330  -0.39758  -0.39343
 Alpha  occ. eigenvalues --   -0.39110  -0.39029  -0.38453  -0.38062  -0.37770
 Alpha  occ. eigenvalues --   -0.37432  -0.37294  -0.36956  -0.36694  -0.36410
 Alpha  occ. eigenvalues --   -0.36021  -0.35835  -0.35324  -0.35167  -0.34696
 Alpha  occ. eigenvalues --   -0.34591  -0.33823  -0.32623  -0.32381  -0.30747
 Alpha  occ. eigenvalues --   -0.30707  -0.30510  -0.29635  -0.29091  -0.28665
 Alpha  occ. eigenvalues --   -0.27723  -0.27183  -0.26219  -0.24342  -0.24254
 Alpha  occ. eigenvalues --   -0.23254  -0.22705  -0.22571  -0.22234  -0.18882
 Alpha virt. eigenvalues --   -0.13939  -0.08164  -0.04100  -0.02579  -0.01679
 Alpha virt. eigenvalues --   -0.00895   0.01290   0.01669   0.02616   0.02759
 Alpha virt. eigenvalues --    0.03104   0.03890   0.04091   0.04590   0.04990

 Mulliken charges:
               1
     1  O   -0.289645
     2  O   -0.321875
     3  O   -0.252475
     4  O   -0.235306
     5  O   -0.202657
     6  O   -0.269396
     7  N   -0.104289
     8  N   -0.136175
     9  N   -0.150194
    10  N   -0.366693
    11  C   -0.028267
    12  C    0.177067
    13  C   -0.054535
    14  C   -0.140210
    15  C   -0.070839
    16  C    0.006541
    17  C   -0.178387
    18  C   -0.028101
    19  C   -0.034197
    20  C   -0.095852
    21  C    0.081637
    22  C    0.111492
    23  C   -0.069977
    24  C    0.143174
    25  C    0.039235
    26  C   -0.068604
    27  C    0.071860
    28  C    0.205468
    29  C    0.116283
    30  C    0.023503
    31  C    0.049346
    32  C   -0.008814
    33  C   -0.095573
    34  C    0.178458
    35  C    0.064388
    36  C   -0.047126
    37  C    0.143363
    38  C    0.120907
    39  C   -0.158352
    40  C    0.208869
    41  C   -0.072586
    42  C    0.153097
    43  C   -0.061464
    44  H    0.073610
    45  H   -0.015052
    46  H    0.000860
    47  H    0.115448
    48  H    0.151985
    49  H    0.065296
    50  H    0.013288
    51  H    0.019767
    52  H   -0.006565
    53  H   -0.009341
    54  H    0.045618
    55  H    0.029755
    56  H    0.080625
    57  H    0.045901
    58  H    0.078684
    59  H   -0.003011
    60  H    0.206433
    61  H    0.012903
    62  H    0.017568
    63  H   -0.022436
    64  H   -0.009205
    65  H    0.032915
    66  H    0.036035
    67  H    0.063864
    68  H    0.069004
    69  H   -0.028824
    70  H    0.017901
    71  H    0.009194
    72  H    0.204466
    73  H    0.016606
    74  H    0.052971
    75  H   -0.065692
    76  H    0.049147
    77  H    0.210989
    78  H    0.044862
    79  H    0.041332
 Sum of Mulliken charges =  -0.00000

 Dipole moment (field-independent basis, Debye):
    X=              3.1772    Y=              3.7883    Z=             -2.0719  Tot=              5.3608
 Quadrupole moment (field-independent basis, Debye-Ang):
   XX=           -228.0538   YY=           -239.1787   ZZ=           -274.8583
   XY=             -9.0633   XZ=            -24.8812   YZ=            -18.1326

 Normal termination of Gaussian 16 at Mon Jul 29 04:23:14 2019.
