 Gaussian 16, Revision A.03,
 Gaussian 16:  ES64L-G16RevA.03 25-Dec-2016

 --------------------------
 # td=(NStates=1) B3LYP/SVP
 --------------------------

 --
 TD
 --
 Symbolic Z-matrix:
 Charge =  0 Multiplicity = 1

                         Standard orientation:
 ---------------------------------------------------------------------
 Center     Atomic      Atomic             Coordinates (Angstroms)
 Number     Number       Type             X           Y           Z
 ---------------------------------------------------------------------
      1          8           0        5.244432   -0.088446   -3.229105
      2          8           0       -2.938580   -2.741951    3.259537
      3          8           0       -3.281469   -0.497053    3.364438
      4          8           0       -1.694558    7.134379    1.298488
      5          8           0       -0.874192    7.043714   -0.738139
      6          8           0       -1.600866   -4.100717    0.120792
      7          7           0        2.376313    1.028896    0.470577
      8          7           0        4.311099   -0.656755   -1.255210
      9          7           0       -1.807856    0.662619   -0.403042
     10          7           0       -2.491955   -2.015972   -0.524383
     11          6           0        4.789923   -1.205787    0.017792
     12          6           0        4.427456   -0.170445    1.305600
     13          6           0        2.987941    0.125327    1.334866
     14          6           0        2.007155   -0.505160    2.122166
     15          6           0        0.784562    0.088947    1.784787
     16          6           0        1.043765    0.937331    0.742764
     17          6           0        6.249015   -1.222134   -0.126239
     18          6           0       -0.539417   -0.032121    2.557669
     19          6           0        6.641625   -0.838325   -1.337489
     20          6           0        0.170550    1.962342    0.018994
     21          6           0       -1.152093    1.844691   -0.413569
     22          6           0        5.402497   -0.456961   -2.112405
     23          6           0       -2.013776    2.836604   -1.054016
     24          6           0        2.157097   -1.470954    3.296032
     25          6           0        7.078692   -1.794589    0.863698
     26          6           0       -3.209432    2.240712   -1.395156
     27          6           0       -1.126442   -1.470994    2.653758
     28          6           0       -3.087036    0.802385   -1.064674
     29          6           0       -1.739302    4.322230   -1.009657
     30          6           0        7.913493   -0.712620   -2.009009
     31          6           0       -2.079668    5.040823    0.250389
     32          6           0       -4.490964    2.871123   -1.892348
     33          6           0       -4.001528   -0.319850   -1.207960
     34          6           0       -2.538756   -1.492562    3.103218
     35          6           0       -3.625652   -1.655357   -0.969375
     36          6           0        9.140314   -0.734631   -1.419877
     37          6           0       -1.494543    6.538461    0.232793
     38          6           0       -4.436015   -2.809789   -1.364962
     39          6           0       -3.700278   -3.937462   -1.034091
     40          6           0       -2.414212   -3.426334   -0.454032
     41          6           0       -5.743756   -2.726425   -2.044896
     42          6           0       -4.063702   -5.396227   -1.267665
     43          6           0       -6.587748   -3.673648   -2.441731
     44          1           0        4.342353   -2.234279    0.406231
     45          1           0        5.075167    0.602693    1.097195
     46          1           0        4.789069   -0.533451    2.139235
     47          1           0        2.752514    1.568081   -0.248484
     48          1           0        3.292190   -0.765265   -1.461200
     49          1           0       -0.375099    0.213667    3.681326
     50          1           0       -1.359674    0.658264    2.106860
     51          1           0        0.907348    2.897211   -0.171435
     52          1           0        3.359407   -1.541623    3.589540
     53          1           0        1.605201   -1.012877    4.156703
     54          1           0        1.656462   -2.407634    2.831291
     55          1           0        6.619499   -2.547729    1.667144
     56          1           0        7.746363   -1.202354    1.466425
     57          1           0        7.858239   -2.379529    0.332508
     58          1           0       -1.069290   -1.954314    1.725135
     59          1           0       -0.488212   -2.247708    3.332059
     60          1           0       -1.155705   -0.231619   -0.397033
     61          1           0       -2.396468    4.838788   -1.777795
     62          1           0       -0.617551    4.642076   -1.147548
     63          1           0        8.201657   -0.283944   -3.058802
     64          1           0       -1.628426    4.686858    1.297118
     65          1           0       -3.243801    5.176435    0.448582
     66          1           0       -4.356197    3.897088   -2.375042
     67          1           0       -5.281512    2.759652   -0.979789
     68          1           0       -5.003510    2.170947   -2.682228
     69          1           0       -5.038091    0.129571   -1.531065
     70          1           0        9.258794   -0.896986   -0.426041
     71          1           0       10.062806   -0.458614   -1.988574
     72          1           0       -3.841313   -2.756800    3.464381
     73          1           0       -6.108281   -1.649758   -2.479919
     74          1           0       -5.050103   -5.548900   -0.893570
     75          1           0       -3.872163   -5.837805   -2.354390
     76          1           0       -3.419499   -5.968780   -0.621801
     77          1           0       -1.244033    7.994218    1.348791
     78          1           0       -7.480243   -3.280680   -2.706936
     79          1           0       -6.547836   -4.977430   -2.404824
 ---------------------------------------------------------------------

 SCF Done:  E(RB3LYP) =  -1947.85061846     A.U. after   17 cycles

 Excitation energies and oscillator strengths:

 Excited State   1:      Singlet-A      2.0089 eV  617.16 nm  f=0.4388  <S**2>=0.000
     155 ->156         0.69760
     155 <-156        -0.11030
 This state for optimization and/or second-order correction.
 Total Energy, E(TD-HF/TD-DFT) =  -1947.77679147
 Copying the excited state density for this state as the 1-particle RhoCI density.

 The electronic state is 1-A.
 Alpha  occ. eigenvalues --  -19.21137 -19.17354 -19.11858 -19.11091 -19.10715
 Alpha  occ. eigenvalues --  -19.09955 -14.38179 -14.36969 -14.35100 -14.28219
 Alpha  occ. eigenvalues --  -10.32698 -10.30857 -10.28410 -10.26660 -10.25992
 Alpha  occ. eigenvalues --  -10.25325 -10.24224 -10.23169 -10.23027 -10.22947
 Alpha  occ. eigenvalues --  -10.22930 -10.22810 -10.22727 -10.22049 -10.21785
 Alpha  occ. eigenvalues --  -10.21723 -10.21592 -10.21527 -10.21034 -10.20967
 Alpha  occ. eigenvalues --  -10.20961 -10.20551 -10.20321 -10.20256 -10.19914
 Alpha  occ. eigenvalues --  -10.19789 -10.19631 -10.19335 -10.19308 -10.19092
 Alpha  occ. eigenvalues --  -10.18893 -10.18779 -10.18686  -1.14912  -1.09464
 Alpha  occ. eigenvalues --   -1.03834  -1.02560  -0.99124  -0.98919  -0.97182
 Alpha  occ. eigenvalues --   -0.96870  -0.93584  -0.93466  -0.83404  -0.82351
 Alpha  occ. eigenvalues --   -0.81699  -0.80494  -0.79581  -0.79187  -0.77397
 Alpha  occ. eigenvalues --   -0.76928  -0.76380  -0.75158  -0.73815  -0.72384
 Alpha  occ. eigenvalues --   -0.72024  -0.70874  -0.69460  -0.69106  -0.68725
 Alpha  occ. eigenvalues --   -0.67521  -0.66225  -0.64034  -0.61807  -0.61202
 Alpha  occ. eigenvalues --   -0.60485  -0.59238  -0.58079  -0.57536  -0.56976
 Alpha  occ. eigenvalues --   -0.56027  -0.54917  -0.54432  -0.54297  -0.52854
 Alpha  occ. eigenvalues --   -0.51864  -0.51403  -0.50646  -0.50104  -0.49947
 Alpha  occ. eigenvalues --   -0.49289  -0.48792  -0.48663  -0.48201  -0.47190
 Alpha  occ. eigenvalues --   -0.47080  -0.46678  -0.46564  -0.46383  -0.45298
 Alpha  occ. eigenvalues --   -0.44856  -0.44564  -0.44083  -0.43840  -0.43562
 Alpha  occ. eigenvalues --   -0.43163  -0.42825  -0.42650  -0.42456  -0.42071
 Alpha  occ. eigenvalues --   -0.41819  -0.41555  -0.41459  -0.41209  -0.41118
 Alpha  occ. eigenvalues --   -0.40833  -0.40290  -0.40200  -0.39694  -0.39459
 Alpha  occ. eigenvalues --   -0.39138  -0.38846  -0.38537  -0.38451  -0.38244
 Alpha  occ. eigenvalues --   -0.37993  -0.37713  -0.37491  -0.36677  -0.36495
 Alpha  occ. eigenvalues --   -0.35749  -0.35227  -0.35032  -0.34757  -0.34555
 Alpha  occ. eigenvalues --   -0.34293  -0.33516  -0.32752  -0.32176  -0.32032
 Alpha  occ. eigenvalues --   -0.30381  -0.30133  -0.28430  -0.27728  -0.27314
 Alpha  occ. eigenvalues --   -0.26395  -0.26251  -0.26067  -0.25772  -0.25044
 Alpha  occ. eigenvalues --   -0.24505  -0.23592  -0.23136  -0.22041  -0.18860
 Alpha virt. eigenvalues --   -0.10925  -0.06557  -0.06030  -0.00389   0.00332
 Alpha virt. eigenvalues --    0.00626   0.00773   0.01503   0.02462   0.03083
 Alpha virt. eigenvalues --    0.03452   0.03974   0.04145   0.04840   0.04984

 Mulliken charges:
               1
     1  O   -0.172810
     2  O   -0.116594
     3  O   -0.294781
     4  O   -0.059044
     5  O   -0.292961
     6  O   -0.179764
     7  N   -0.037647
     8  N   -0.220677
     9  N   -0.135185
    10  N   -0.225057
    11  C   -0.004776
    12  C    0.324867
    13  C   -0.092054
    14  C   -0.153185
    15  C   -0.049341
    16  C   -0.050909
    17  C   -0.093865
    18  C    0.053119
    19  C    0.005768
    20  C   -0.113894
    21  C    0.089880
    22  C    0.141027
    23  C   -0.037142
    24  C    0.024907
    25  C    0.022851
    26  C   -0.092473
    27  C   -0.033847
    28  C    0.062938
    29  C    0.073565
    30  C   -0.052819
    31  C   -0.105027
    32  C    0.011847
    33  C   -0.131624
    34  C    0.145070
    35  C    0.100605
    36  C   -0.040493
    37  C    0.089284
    38  C    0.052673
    39  C   -0.233992
    40  C    0.154440
    41  C   -0.064400
    42  C    0.099878
    43  C   -0.054490
    44  H    0.045175
    45  H   -0.057113
    46  H   -0.067358
    47  H    0.098821
    48  H    0.145354
    49  H    0.021555
    50  H    0.054581
    51  H    0.030533
    52  H    0.031842
    53  H    0.042906
    54  H    0.075325
    55  H    0.033163
    56  H    0.029206
    57  H    0.032740
    58  H    0.033891
    59  H    0.049022
    60  H    0.198468
    61  H    0.022527
    62  H    0.045792
    63  H    0.041788
    64  H    0.058954
    65  H    0.052869
    66  H    0.048862
    67  H    0.062337
    68  H    0.041116
    69  H    0.008992
    70  H   -0.031262
    71  H    0.035044
    72  H    0.153306
    73  H    0.030013
    74  H    0.015123
    75  H    0.052945
    76  H    0.003986
    77  H    0.191792
    78  H   -0.005599
    79  H    0.059437
 Sum of Mulliken charges =  -0.00000

 Dipole moment (field-independent basis, Debye):
    X=              0.8430    Y=              2.6813    Z=              3.4203  Tot=              4.4270
 Quadrupole moment (field-independent basis, Debye-Ang):
   XX=           -215.8217   YY=           -241.2990   ZZ=           -266.3806
   XY=             -7.5174   XZ=             31.1652   YZ=              8.9617

 Normal termination of Gaussian 16 at Sat Sep 28 22:32:22 2019.
