 Gaussian 16, Revision A.03,
 Gaussian 16:  ES64L-G16RevA.03 25-Dec-2016

 --------------------------
 # td=(NStates=1) B3LYP/SVP
 --------------------------

 --
 TD
 --
 Symbolic Z-matrix:
 Charge =  0 Multiplicity = 1

                         Standard orientation:
 ---------------------------------------------------------------------
 Center     Atomic      Atomic             Coordinates (Angstroms)
 Number     Number       Type             X           Y           Z
 ---------------------------------------------------------------------
      1          8           0       -3.075123   -1.682240   -2.686990
      2          8           0        3.119480    3.550010    2.589720
      3          8           0        3.703264    2.052069    4.154702
      4          8           0        7.548362   -1.584139   -0.578789
      5          8           0        6.691873   -3.159580   -1.928976
      6          8           0       -2.819391    1.646125    1.372111
      7          7           0       -0.184801   -2.359909    1.217290
      8          7           0       -2.621332   -1.326332   -0.432758
      9          7           0        1.154760    0.093809   -0.581390
     10          7           0       -1.108480    1.489846   -0.251892
     11          6           0       -3.226046   -1.354160    0.813206
     12          6           0       -2.587029   -2.236897    1.875661
     13          6           0       -1.132408   -1.916675    2.059129
     14          6           0       -0.513950   -0.918615    2.944740
     15          6           0        0.879290   -0.847383    2.555444
     16          6           0        1.010631   -1.747912    1.460126
     17          6           0       -4.584204   -1.876107    0.447150
     18          6           0        1.980023   -0.038724    3.108727
     19          6           0       -4.589552   -2.250434   -0.898360
     20          6           0        2.133275   -1.738951    0.580424
     21          6           0        2.124733   -0.925787   -0.476233
     22          6           0       -3.393752   -1.707756   -1.509202
     23          6           0        2.937286   -0.816753   -1.696143
     24          6           0       -1.183603   -0.094172    3.823944
     25          6           0       -5.591663   -2.134839    1.483495
     26          6           0        2.492508    0.224576   -2.474687
     27          6           0        1.980937    1.384387    2.631270
     28          6           0        1.282966    0.815136   -1.738085
     29          6           0        4.176330   -1.646956   -1.986026
     30          6           0       -5.683052   -2.664272   -1.757843
     31          6           0        5.359182   -1.243290   -1.058343
     32          6           0        3.051169    0.799347   -3.740724
     33          6           0        0.369279    1.769477   -2.072270
     34          6           0        3.020874    2.373279    3.115911
     35          6           0       -0.756127    2.143516   -1.355100
     36          6           0       -6.702341   -3.570984   -1.500776
     37          6           0        6.595851   -2.133467   -1.307229
     38          6           0       -1.642297    3.278824   -1.591520
     39          6           0       -2.550682    3.220725   -0.567811
     40          6           0       -2.267509    2.061057    0.358318
     41          6           0       -1.340189    4.370572   -2.549654
     42          6           0       -3.559592    4.223315   -0.052714
     43          6           0       -2.224692    5.400705   -2.830199
     44          1           0       -3.359329   -0.268215    1.303177
     45          1           0       -2.813339   -3.247471    1.575114
     46          1           0       -2.997852   -2.000200    2.717147
     47          1           0       -0.527009   -2.845086    0.311742
     48          1           0       -1.827586   -0.936744   -0.745886
     49          1           0        1.879743    0.080327    4.184555
     50          1           0        2.930928   -0.448791    2.678528
     51          1           0        2.990977   -2.519187    0.671745
     52          1           0       -1.949775   -0.687665    4.367448
     53          1           0       -0.594517    0.365657    4.457225
     54          1           0       -1.611888    0.690164    3.354668
     55          1           0       -5.470894   -1.395182    2.054120
     56          1           0       -5.774209   -3.052016    2.130209
     57          1           0       -6.631723   -1.913153    1.001013
     58          1           0        2.255553    1.316003    1.567810
     59          1           0        0.925395    1.980683    2.683096
     60          1           0        0.419345    0.368353   -0.028866
     61          1           0        4.706988   -1.366174   -2.877054
     62          1           0        3.878573   -2.641656   -1.881084
     63          1           0       -5.698883   -2.124186   -2.867693
     64          1           0        5.226374   -1.166709    0.026020
     65          1           0        5.850939   -0.273025   -1.489957
     66          1           0        4.006043    0.381553   -3.940299
     67          1           0        3.322848    1.930225   -3.576282
     68          1           0        2.389953    0.792967   -4.608195
     69          1           0        0.703731    2.454552   -3.031791
     70          1           0       -6.806177   -4.060504   -0.455089
     71          1           0       -7.406980   -3.587139   -2.398637
     72          1           0        3.761758    4.042913    3.268824
     73          1           0       -0.527428    3.993714   -3.207609
     74          1           0       -4.425756    4.307360   -0.633630
     75          1           0       -3.970082    4.038961    0.934424
     76          1           0       -2.891479    5.292082   -0.126567
     77          1           0        8.253399   -2.081885   -1.025353
     78          1           0       -2.120247    6.043086   -3.758156
     79          1           0       -3.320031    5.471838   -2.235426
 ---------------------------------------------------------------------

 SCF Done:  E(RB3LYP) =  -1947.82079839     A.U. after   16 cycles

 Excitation energies and oscillator strengths:

 Excited State   1:      Singlet-A      1.0871 eV 1140.48 nm  f=0.0004  <S**2>=0.000
     155 ->156         0.70384
 This state for optimization and/or second-order correction.
 Total Energy, E(TD-HF/TD-DFT) =  -1947.78084742
 Copying the excited state density for this state as the 1-particle RhoCI density.

 The electronic state is 1-A.
 Alpha  occ. eigenvalues --  -19.20211 -19.20191 -19.14710 -19.13455 -19.10660
 Alpha  occ. eigenvalues --  -19.08317 -14.37716 -14.36915 -14.32542 -14.29677
 Alpha  occ. eigenvalues --  -10.33350 -10.31618 -10.28783 -10.26565 -10.26053
 Alpha  occ. eigenvalues --  -10.25540 -10.24524 -10.23326 -10.23015 -10.22837
 Alpha  occ. eigenvalues --  -10.22795 -10.22314 -10.22272 -10.22054 -10.21968
 Alpha  occ. eigenvalues --  -10.21604 -10.21234 -10.21209 -10.21112 -10.20787
 Alpha  occ. eigenvalues --  -10.20709 -10.20527 -10.20346 -10.20226 -10.20008
 Alpha  occ. eigenvalues --  -10.19536 -10.19016 -10.18557 -10.18420 -10.18195
 Alpha  occ. eigenvalues --  -10.17381 -10.16684 -10.14583  -1.13596  -1.10696
 Alpha  occ. eigenvalues --   -1.03347  -1.03173  -1.01200  -0.99399  -0.97123
 Alpha  occ. eigenvalues --   -0.96451  -0.93920  -0.93501  -0.84296  -0.82892
 Alpha  occ. eigenvalues --   -0.81144  -0.81019  -0.80518  -0.79395  -0.79137
 Alpha  occ. eigenvalues --   -0.77454  -0.77156  -0.75208  -0.74390  -0.73541
 Alpha  occ. eigenvalues --   -0.71624  -0.70896  -0.70374  -0.69972  -0.68172
 Alpha  occ. eigenvalues --   -0.66944  -0.66614  -0.64295  -0.60578  -0.60289
 Alpha  occ. eigenvalues --   -0.59360  -0.59175  -0.59055  -0.57912  -0.56978
 Alpha  occ. eigenvalues --   -0.56741  -0.55663  -0.54575  -0.54073  -0.52970
 Alpha  occ. eigenvalues --   -0.52729  -0.52217  -0.51476  -0.51149  -0.50219
 Alpha  occ. eigenvalues --   -0.49961  -0.49057  -0.48839  -0.48538  -0.48239
 Alpha  occ. eigenvalues --   -0.47689  -0.47140  -0.46859  -0.46160  -0.45744
 Alpha  occ. eigenvalues --   -0.45529  -0.45335  -0.44985  -0.44594  -0.44369
 Alpha  occ. eigenvalues --   -0.44133  -0.43663  -0.43433  -0.43250  -0.42563
 Alpha  occ. eigenvalues --   -0.42385  -0.42254  -0.42096  -0.41323  -0.41020
 Alpha  occ. eigenvalues --   -0.40722  -0.40609  -0.40313  -0.40058  -0.39750
 Alpha  occ. eigenvalues --   -0.39465  -0.39407  -0.39261  -0.38983  -0.38494
 Alpha  occ. eigenvalues --   -0.38092  -0.37859  -0.37576  -0.37366  -0.37192
 Alpha  occ. eigenvalues --   -0.36590  -0.36426  -0.36126  -0.35527  -0.34676
 Alpha  occ. eigenvalues --   -0.34508  -0.34133  -0.32966  -0.32207  -0.31539
 Alpha  occ. eigenvalues --   -0.30348  -0.29996  -0.29190  -0.29045  -0.28769
 Alpha  occ. eigenvalues --   -0.27453  -0.25942  -0.25192  -0.24520  -0.24118
 Alpha  occ. eigenvalues --   -0.23696  -0.22745  -0.22361  -0.21952  -0.18763
 Alpha virt. eigenvalues --   -0.12364  -0.07323  -0.04777  -0.02570  -0.00758
 Alpha virt. eigenvalues --   -0.00173   0.01350   0.01901   0.02349   0.02870
 Alpha virt. eigenvalues --    0.03217   0.03826   0.04731   0.04825   0.05275

 Mulliken charges:
               1
     1  O   -0.240524
     2  O   -0.161407
     3  O   -0.324991
     4  O   -0.139208
     5  O   -0.213910
     6  O   -0.203830
     7  N   -0.043202
     8  N   -0.114246
     9  N   -0.060347
    10  N   -0.322656
    11  C    0.007155
    12  C    0.389910
    13  C   -0.172099
    14  C   -0.150677
    15  C   -0.116839
    16  C    0.005595
    17  C   -0.186555
    18  C    0.203957
    19  C   -0.035070
    20  C   -0.205011
    21  C    0.180748
    22  C    0.086916
    23  C   -0.079986
    24  C    0.250929
    25  C    0.158708
    26  C   -0.103850
    27  C   -0.064062
    28  C    0.052597
    29  C    0.184350
    30  C   -0.099773
    31  C   -0.080342
    32  C    0.107410
    33  C   -0.112524
    34  C    0.128557
    35  C    0.095045
    36  C   -0.056639
    37  C    0.112676
    38  C    0.025243
    39  C   -0.207849
    40  C    0.214979
    41  C    0.017499
    42  C    0.055676
    43  C   -0.091025
    44  H    0.087654
    45  H   -0.035684
    46  H   -0.094780
    47  H    0.147292
    48  H    0.070627
    49  H    0.008882
    50  H   -0.001297
    51  H    0.023658
    52  H    0.000298
    53  H   -0.072743
    54  H   -0.013823
    55  H   -0.062314
    56  H    0.051355
    57  H    0.025690
    58  H    0.015657
    59  H    0.067532
    60  H    0.121801
    61  H    0.002517
    62  H    0.016023
    63  H    0.052939
    64  H    0.058509
    65  H    0.046613
    66  H   -0.004186
    67  H    0.035840
    68  H    0.045628
    69  H    0.019244
    70  H    0.041206
    71  H    0.039912
    72  H    0.224813
    73  H    0.007801
    74  H    0.021444
    75  H    0.023491
    76  H    0.054388
    77  H    0.160448
    78  H    0.049700
    79  H    0.072538
 Sum of Mulliken charges =  -0.00000

 Dipole moment (field-independent basis, Debye):
    X=              2.7701    Y=              3.5521    Z=             -1.9730  Tot=              4.9177
 Quadrupole moment (field-independent basis, Debye-Ang):
   XX=           -232.3112   YY=           -243.9689   ZZ=           -266.7469
   XY=              3.2049   XZ=            -27.5686   YZ=            -17.3448

 Normal termination of Gaussian 16 at Sun Jul 28 16:51:09 2019.
