 Gaussian 16, Revision A.03,
 Gaussian 16:  ES64L-G16RevA.03 25-Dec-2016

 --------------------------
 # td=(NStates=1) B3LYP/SVP
 --------------------------

 --
 TD
 --
 Symbolic Z-matrix:
 Charge =  0 Multiplicity = 1

                         Standard orientation:
 ---------------------------------------------------------------------
 Center     Atomic      Atomic             Coordinates (Angstroms)
 Number     Number       Type             X           Y           Z
 ---------------------------------------------------------------------
      1          8           0       -3.261535   -1.447442   -2.932737
      2          8           0        3.205575    3.031862    3.272969
      3          8           0        3.900659    1.114670    4.275258
      4          8           0        7.650703   -1.516598   -0.746658
      5          8           0        6.674625   -3.135786   -1.945144
      6          8           0       -2.639392    1.701792    1.485793
      7          7           0       -0.305604   -2.290151    0.785155
      8          7           0       -2.682721   -1.214780   -0.677017
      9          7           0        1.190260    0.148663   -0.712678
     10          7           0       -1.013531    1.497520   -0.181511
     11          6           0       -3.418223   -1.312732    0.649142
     12          6           0       -2.709511   -2.312077    1.659524
     13          6           0       -1.271637   -1.998587    1.770658
     14          6           0       -0.480158   -1.300402    2.835210
     15          6           0        0.771578   -1.266566    2.414434
     16          6           0        0.893227   -1.836014    1.124836
     17          6           0       -4.790068   -1.853797    0.242378
     18          6           0        1.928925   -0.459563    3.110688
     19          6           0       -4.820271   -2.048440   -1.084228
     20          6           0        2.033595   -1.869748    0.259636
     21          6           0        2.090770   -0.875907   -0.720198
     22          6           0       -3.527956   -1.557889   -1.759884
     23          6           0        3.029600   -0.565829   -1.847676
     24          6           0       -1.248014   -0.670761    3.857735
     25          6           0       -5.808541   -1.990409    1.228498
     26          6           0        2.598205    0.600601   -2.424742
     27          6           0        1.913539    1.015639    2.783320
     28          6           0        1.445388    1.117941   -1.736020
     29          6           0        4.215734   -1.369217   -2.178067
     30          6           0       -5.864872   -2.639515   -1.969426
     31          6           0        5.407230   -1.118294   -1.211904
     32          6           0        3.144674    1.181604   -3.608429
     33          6           0        0.565822    2.206220   -1.984252
     34          6           0        3.100629    1.713592    3.558512
     35          6           0       -0.608488    2.317679   -1.205079
     36          6           0       -6.931466   -3.339259   -1.605099
     37          6           0        6.601886   -2.071265   -1.462090
     38          6           0       -1.479309    3.575612   -1.168103
     39          6           0       -2.299342    3.482007   -0.142653
     40          6           0       -2.056902    2.134179    0.410862
     41          6           0       -1.317853    4.650580   -2.130226
     42          6           0       -3.469466    4.284070    0.353553
     43          6           0       -1.976230    5.738494   -2.179246
     44          1           0       -3.446819   -0.376734    1.069143
     45          1           0       -2.695739   -3.342409    1.259841
     46          1           0       -3.372528   -2.177126    2.595190
     47          1           0       -0.538879   -2.681678   -0.188347
     48          1           0       -2.057414   -0.459023   -0.660218
     49          1           0        1.941289   -0.364176    4.276380
     50          1           0        2.811903   -0.834159    2.703969
     51          1           0        2.768426   -2.728678    0.239876
     52          1           0       -1.892968   -1.501286    4.341326
     53          1           0       -0.700440   -0.417651    4.908159
     54          1           0       -1.971598    0.146320    3.584298
     55          1           0       -5.722753   -1.191201    2.111240
     56          1           0       -5.795418   -2.941587    1.821361
     57          1           0       -6.844057   -1.809109    0.952695
     58          1           0        2.081603    1.311143    1.609034
     59          1           0        0.895942    1.594059    3.351200
     60          1           0        0.244888    0.286155   -0.005407
     61          1           0        4.629905   -1.273062   -3.217426
     62          1           0        4.067055   -2.427264   -2.160813
     63          1           0       -5.695449   -2.524799   -3.082252
     64          1           0        5.313910   -1.361974   -0.084273
     65          1           0        5.965865   -0.132629   -1.483377
     66          1           0        4.002453    0.642175   -4.085741
     67          1           0        3.496717    2.179485   -3.548298
     68          1           0        2.432176    0.930533   -4.414116
     69          1           0        0.772335    2.758844   -2.940726
     70          1           0       -7.258117   -3.549540   -0.511834
     71          1           0       -7.668601   -3.616740   -2.387420
     72          1           0        3.906555    3.432877    3.740527
     73          1           0       -0.608790    4.244459   -2.900187
     74          1           0       -4.095173    4.501393   -0.538378
     75          1           0       -4.273417    3.607560    0.862151
     76          1           0       -3.328980    5.112989    1.016982
     77          1           0        8.454207   -2.050045   -0.896111
     78          1           0       -1.687402    6.554966   -2.833623
     79          1           0       -2.669568    6.109499   -1.328328
 ---------------------------------------------------------------------

 SCF Done:  E(RB3LYP) =  -1947.89666456     A.U. after   19 cycles

 Excitation energies and oscillator strengths:

 Excited State   1:      Singlet-A      0.7805 eV 1588.61 nm  f=0.0061  <S**2>=0.000
     155 ->156         0.70510
 This state for optimization and/or second-order correction.
 Total Energy, E(TD-HF/TD-DFT) =  -1947.86798320
 Copying the excited state density for this state as the 1-particle RhoCI density.

 The electronic state is 1-A.
 Alpha  occ. eigenvalues --  -19.17904 -19.17676 -19.14586 -19.11987 -19.11032
 Alpha  occ. eigenvalues --  -19.09445 -14.37955 -14.37325 -14.32325 -14.32040
 Alpha  occ. eigenvalues --  -10.32892 -10.31633 -10.27633 -10.27530 -10.27185
 Alpha  occ. eigenvalues --  -10.26149 -10.25589 -10.23451 -10.23007 -10.22933
 Alpha  occ. eigenvalues --  -10.22272 -10.22234 -10.22177 -10.22147 -10.21522
 Alpha  occ. eigenvalues --  -10.20807 -10.20734 -10.20460 -10.20426 -10.20422
 Alpha  occ. eigenvalues --  -10.20335 -10.20163 -10.20146 -10.20018 -10.19841
 Alpha  occ. eigenvalues --  -10.19737 -10.19093 -10.18948 -10.18680 -10.18611
 Alpha  occ. eigenvalues --  -10.18256 -10.16737 -10.16408  -1.10772  -1.08927
 Alpha  occ. eigenvalues --   -1.02176  -1.01407  -0.99801  -0.99507  -0.98209
 Alpha  occ. eigenvalues --   -0.96881  -0.92966  -0.90748  -0.84164  -0.82708
 Alpha  occ. eigenvalues --   -0.82329  -0.80801  -0.79948  -0.79165  -0.78607
 Alpha  occ. eigenvalues --   -0.76819  -0.76187  -0.75547  -0.74461  -0.73543
 Alpha  occ. eigenvalues --   -0.70866  -0.70159  -0.69930  -0.69397  -0.67435
 Alpha  occ. eigenvalues --   -0.66118  -0.65900  -0.63308  -0.61337  -0.59519
 Alpha  occ. eigenvalues --   -0.59377  -0.58804  -0.58625  -0.57074  -0.56580
 Alpha  occ. eigenvalues --   -0.56077  -0.55414  -0.55169  -0.52917  -0.52179
 Alpha  occ. eigenvalues --   -0.51716  -0.51273  -0.50471  -0.50187  -0.49208
 Alpha  occ. eigenvalues --   -0.48742  -0.48595  -0.47907  -0.47664  -0.47316
 Alpha  occ. eigenvalues --   -0.47163  -0.46759  -0.46632  -0.46456  -0.46068
 Alpha  occ. eigenvalues --   -0.45458  -0.45366  -0.45093  -0.44652  -0.44178
 Alpha  occ. eigenvalues --   -0.43510  -0.43204  -0.43094  -0.42740  -0.42154
 Alpha  occ. eigenvalues --   -0.41808  -0.41528  -0.41383  -0.41051  -0.40879
 Alpha  occ. eigenvalues --   -0.40592  -0.40294  -0.40068  -0.39491  -0.39418
 Alpha  occ. eigenvalues --   -0.39102  -0.38886  -0.38717  -0.38320  -0.38065
 Alpha  occ. eigenvalues --   -0.37777  -0.37598  -0.37182  -0.36567  -0.36462
 Alpha  occ. eigenvalues --   -0.36169  -0.35360  -0.34722  -0.34133  -0.33642
 Alpha  occ. eigenvalues --   -0.33458  -0.33255  -0.32625  -0.32322  -0.31731
 Alpha  occ. eigenvalues --   -0.30597  -0.30307  -0.29428  -0.29247  -0.28920
 Alpha  occ. eigenvalues --   -0.27140  -0.26689  -0.25615  -0.25253  -0.24671
 Alpha  occ. eigenvalues --   -0.24427  -0.23623  -0.23069  -0.22579  -0.18250
 Alpha virt. eigenvalues --   -0.12916  -0.07346  -0.04112  -0.01228  -0.00215
 Alpha virt. eigenvalues --    0.00559   0.01340   0.02627   0.02775   0.03614
 Alpha virt. eigenvalues --    0.03988   0.04362   0.05247   0.05410   0.05655

 Mulliken charges:
               1
     1  O   -0.209966
     2  O   -0.160247
     3  O   -0.248201
     4  O   -0.229906
     5  O   -0.167521
     6  O   -0.282848
     7  N   -0.055427
     8  N   -0.248365
     9  N   -0.225453
    10  N   -0.290636
    11  C    0.076627
    12  C    0.204473
    13  C   -0.131959
    14  C   -0.039154
    15  C   -0.081152
    16  C   -0.033388
    17  C   -0.114588
    18  C    0.165198
    19  C   -0.065444
    20  C   -0.127408
    21  C    0.101575
    22  C    0.173741
    23  C   -0.005136
    24  C    0.006437
    25  C    0.029375
    26  C   -0.113155
    27  C   -0.150871
    28  C    0.120598
    29  C    0.105654
    30  C   -0.006777
    31  C   -0.074969
    32  C    0.099906
    33  C   -0.121421
    34  C    0.144819
    35  C    0.150135
    36  C   -0.065793
    37  C    0.106803
    38  C    0.010709
    39  C   -0.180639
    40  C    0.169113
    41  C    0.047458
    42  C    0.068344
    43  C   -0.040684
    44  H    0.010793
    45  H   -0.012429
    46  H    0.015045
    47  H    0.145410
    48  H    0.115733
    49  H    0.031669
    50  H   -0.026658
    51  H    0.025011
    52  H    0.003560
    53  H    0.002520
    54  H    0.062988
    55  H    0.026223
    56  H    0.037979
    57  H    0.027959
    58  H    0.066017
    59  H    0.076091
    60  H    0.282916
    61  H    0.013647
    62  H    0.008075
    63  H    0.020279
    64  H    0.083470
    65  H    0.058062
    66  H   -0.002673
    67  H    0.028578
    68  H    0.035523
    69  H    0.022296
    70  H    0.026561
    71  H    0.024404
    72  H    0.160268
    73  H   -0.013781
    74  H    0.026115
    75  H    0.031226
    76  H    0.037358
    77  H    0.179236
    78  H    0.020945
    79  H    0.039725
 Sum of Mulliken charges =  -0.00000

 Dipole moment (field-independent basis, Debye):
    X=              2.9487    Y=              3.1542    Z=             -2.0712  Tot=              4.7889
 Quadrupole moment (field-independent basis, Debye-Ang):
   XX=           -230.5583   YY=           -239.7445   ZZ=           -263.5778
   XY=              6.2390   XZ=            -27.0156   YZ=            -10.3320

 Normal termination of Gaussian 16 at Mon Jul 29 17:17:40 2019.
