 Gaussian 16, Revision A.03,
 Gaussian 16:  ES64L-G16RevA.03 25-Dec-2016

 --------------------------
 # td=(NStates=1) B3LYP/SVP
 --------------------------

 --
 TD
 --
 Symbolic Z-matrix:
 Charge =  0 Multiplicity = 1

                         Standard orientation:
 ---------------------------------------------------------------------
 Center     Atomic      Atomic             Coordinates (Angstroms)
 Number     Number       Type             X           Y           Z
 ---------------------------------------------------------------------
      1          8           0        5.527164    0.264450   -3.257817
      2          8           0       -2.847226   -3.163556    3.345523
      3          8           0       -3.198386   -0.956153    3.069787
      4          8           0       -1.942884    7.084961    1.638378
      5          8           0       -1.073805    7.186893   -0.436565
      6          8           0       -1.681418   -3.858392    0.138037
      7          7           0        2.350142    1.038376    0.642955
      8          7           0        4.438089   -0.313968   -1.315785
      9          7           0       -2.010169    0.739925   -0.339566
     10          7           0       -2.615056   -1.879065   -0.427083
     11          6           0        4.823079   -1.111111   -0.126435
     12          6           0        4.431123   -0.287266    1.196538
     13          6           0        2.886452   -0.052177    1.342433
     14          6           0        1.920648   -0.691192    2.091043
     15          6           0        0.648675   -0.064390    1.855588
     16          6           0        0.956569    1.056764    0.849092
     17          6           0        6.293268   -1.335779   -0.249069
     18          6           0       -0.640785   -0.278061    2.543121
     19          6           0        6.704750   -0.700582   -1.354770
     20          6           0        0.118072    2.005411    0.303742
     21          6           0       -1.216797    1.840173   -0.235684
     22          6           0        5.535483   -0.136005   -2.161885
     23          6           0       -2.037281    2.955084   -0.803350
     24          6           0        2.131769   -1.742576    3.073307
     25          6           0        7.040048   -2.082161    0.750541
     26          6           0       -3.200231    2.375421   -1.308542
     27          6           0       -0.996006   -1.837742    2.656783
     28          6           0       -3.130338    0.869340   -1.053457
     29          6           0       -1.682934    4.419299   -0.825682
     30          6           0        8.123541   -0.603602   -1.897989
     31          6           0       -1.771027    5.013619    0.525736
     32          6           0       -4.377243    2.954795   -2.088616
     33          6           0       -3.965831   -0.169729   -1.461365
     34          6           0       -2.420133   -1.851387    3.162822
     35          6           0       -3.688736   -1.595586   -1.182816
     36          6           0        9.334620   -0.547715   -1.386371
     37          6           0       -1.481723    6.496673    0.482983
     38          6           0       -4.466478   -2.648150   -1.587306
     39          6           0       -3.868044   -3.755453   -1.120365
     40          6           0       -2.637731   -3.390639   -0.439533
     41          6           0       -5.701635   -2.578061   -2.273553
     42          6           0       -4.018057   -5.253796   -1.393229
     43          6           0       -6.559291   -3.633346   -2.685608
     44          1           0        4.199783   -1.991180   -0.120848
     45          1           0        4.938616    0.742075    1.119918
     46          1           0        4.777357   -0.947766    1.978553
     47          1           0        2.890855    1.413415   -0.161639
     48          1           0        3.406920   -0.716124   -1.721791
     49          1           0       -0.711914   -0.058872    3.720566
     50          1           0       -1.332554    0.146640    1.848815
     51          1           0        0.562264    2.997447   -0.090505
     52          1           0        3.118052   -2.195735    3.104905
     53          1           0        1.674291   -1.456246    4.114605
     54          1           0        1.524797   -2.708801    2.690201
     55          1           0        6.350670   -3.004307    1.304777
     56          1           0        7.344042   -1.720744    1.859914
     57          1           0        8.076878   -2.407428    0.310859
     58          1           0       -0.988344   -2.427116    1.612000
     59          1           0       -0.318916   -2.268373    3.417460
     60          1           0       -1.746317   -0.281709   -0.136361
     61          1           0       -2.306175    4.843877   -1.666482
     62          1           0       -0.557660    4.537467   -1.225528
     63          1           0        8.144571   -0.451573   -2.927119
     64          1           0       -1.109166    4.420852    1.377119
     65          1           0       -2.799683    5.002576    0.795623
     66          1           0       -4.449600    4.048109   -2.043067
     67          1           0       -5.287904    2.661204   -1.724830
     68          1           0       -4.329205    2.737191   -3.242733
     69          1           0       -4.864339    0.157439   -2.062140
     70          1           0        9.615779   -0.602257   -0.257147
     71          1           0       10.195671   -0.393398   -2.014901
     72          1           0       -3.855283   -3.098312    3.686321
     73          1           0       -5.862110   -1.468590   -2.661841
     74          1           0       -4.974100   -5.482424   -0.755531
     75          1           0       -3.956498   -5.482625   -2.409110
     76          1           0       -3.304256   -6.026838   -0.971580
     77          1           0       -1.894859    8.081966    1.591774
     78          1           0       -7.534279   -3.376315   -3.116767
     79          1           0       -6.572763   -4.626467   -2.314504
 ---------------------------------------------------------------------

 SCF Done:  E(RB3LYP) =  -1947.85574490     A.U. after   19 cycles

 Excitation energies and oscillator strengths:

 Excited State   1:      Singlet-A      1.6614 eV  746.27 nm  f=0.3649  <S**2>=0.000
     155 ->156         0.70514
     155 <-156        -0.14706
 This state for optimization and/or second-order correction.
 Total Energy, E(TD-HF/TD-DFT) =  -1947.79469015
 Copying the excited state density for this state as the 1-particle RhoCI density.

 The electronic state is 1-A.
 Alpha  occ. eigenvalues --  -19.17635 -19.15847 -19.13029 -19.11678 -19.11323
 Alpha  occ. eigenvalues --  -19.11245 -14.38393 -14.36418 -14.36084 -14.28104
 Alpha  occ. eigenvalues --  -10.32340 -10.29713 -10.29506 -10.26600 -10.24788
 Alpha  occ. eigenvalues --  -10.24366 -10.24002 -10.23782 -10.23771 -10.23408
 Alpha  occ. eigenvalues --  -10.22675 -10.22549 -10.22133 -10.22050 -10.21983
 Alpha  occ. eigenvalues --  -10.21807 -10.21439 -10.21400 -10.20839 -10.20704
 Alpha  occ. eigenvalues --  -10.20625 -10.20509 -10.20385 -10.20327 -10.20247
 Alpha  occ. eigenvalues --  -10.20121 -10.19802 -10.19785 -10.19774 -10.19517
 Alpha  occ. eigenvalues --  -10.19513 -10.19222 -10.19083  -1.08310  -1.06581
 Alpha  occ. eigenvalues --   -1.06013  -1.02250  -0.99580  -0.98093  -0.97756
 Alpha  occ. eigenvalues --   -0.96695  -0.94125  -0.91856  -0.82426  -0.82234
 Alpha  occ. eigenvalues --   -0.81192  -0.80587  -0.80088  -0.78319  -0.77487
 Alpha  occ. eigenvalues --   -0.77087  -0.75737  -0.75309  -0.73937  -0.71440
 Alpha  occ. eigenvalues --   -0.70876  -0.70411  -0.70311  -0.68256  -0.67317
 Alpha  occ. eigenvalues --   -0.66275  -0.65751  -0.63731  -0.60659  -0.60606
 Alpha  occ. eigenvalues --   -0.59402  -0.58545  -0.57182  -0.56993  -0.55736
 Alpha  occ. eigenvalues --   -0.55184  -0.54912  -0.54562  -0.53842  -0.53361
 Alpha  occ. eigenvalues --   -0.51680  -0.51002  -0.50975  -0.49483  -0.49017
 Alpha  occ. eigenvalues --   -0.48502  -0.48031  -0.47662  -0.47409  -0.47298
 Alpha  occ. eigenvalues --   -0.46954  -0.46312  -0.45618  -0.45423  -0.45088
 Alpha  occ. eigenvalues --   -0.44785  -0.44604  -0.44261  -0.44013  -0.43794
 Alpha  occ. eigenvalues --   -0.43450  -0.43117  -0.42720  -0.42352  -0.41947
 Alpha  occ. eigenvalues --   -0.41792  -0.41661  -0.41288  -0.41087  -0.40919
 Alpha  occ. eigenvalues --   -0.40570  -0.40537  -0.40380  -0.40031  -0.39387
 Alpha  occ. eigenvalues --   -0.39217  -0.39068  -0.38828  -0.38377  -0.38266
 Alpha  occ. eigenvalues --   -0.38017  -0.37679  -0.37223  -0.36849  -0.36629
 Alpha  occ. eigenvalues --   -0.35716  -0.35146  -0.34997  -0.34346  -0.34208
 Alpha  occ. eigenvalues --   -0.33995  -0.33360  -0.32435  -0.32101  -0.31623
 Alpha  occ. eigenvalues --   -0.30494  -0.30263  -0.28441  -0.28343  -0.28026
 Alpha  occ. eigenvalues --   -0.27854  -0.26647  -0.26491  -0.25577  -0.25163
 Alpha  occ. eigenvalues --   -0.24546  -0.23868  -0.23471  -0.21865  -0.17573
 Alpha virt. eigenvalues --   -0.11192  -0.07174  -0.06020  -0.01511  -0.00832
 Alpha virt. eigenvalues --   -0.00551   0.00811   0.01297   0.01940   0.03136
 Alpha virt. eigenvalues --    0.03577   0.03770   0.04742   0.04928   0.05177

 Mulliken charges:
               1
     1  O   -0.140418
     2  O   -0.265469
     3  O   -0.206557
     4  O   -0.229024
     5  O   -0.225603
     6  O   -0.168250
     7  N   -0.107541
     8  N   -0.291581
     9  N   -0.050354
    10  N   -0.340057
    11  C    0.046211
    12  C    0.188963
    13  C   -0.088229
    14  C   -0.101038
    15  C   -0.083547
    16  C    0.105533
    17  C   -0.027608
    18  C    0.107794
    19  C   -0.094798
    20  C   -0.121174
    21  C    0.055013
    22  C    0.163145
    23  C   -0.110650
    24  C    0.034600
    25  C   -0.078772
    26  C   -0.121024
    27  C   -0.113779
    28  C    0.044041
    29  C    0.037612
    30  C    0.029861
    31  C    0.005777
    32  C    0.102248
    33  C   -0.113691
    34  C    0.152477
    35  C    0.113775
    36  C   -0.061942
    37  C    0.146154
    38  C    0.076924
    39  C   -0.221908
    40  C    0.173222
    41  C   -0.061786
    42  C    0.059157
    43  C   -0.011874
    44  H    0.008762
    45  H    0.018621
    46  H   -0.012634
    47  H    0.138975
    48  H    0.184122
    49  H    0.037216
    50  H    0.001937
    51  H    0.011506
    52  H   -0.008498
    53  H    0.048484
    54  H    0.054947
    55  H    0.036371
    56  H    0.064197
    57  H    0.061241
    58  H    0.130118
    59  H    0.021268
    60  H    0.167087
    61  H    0.031328
    62  H    0.035304
    63  H   -0.009671
    64  H    0.091513
    65  H    0.028185
    66  H   -0.001771
    67  H    0.003692
    68  H    0.042157
    69  H   -0.016191
    70  H    0.027131
    71  H    0.026008
    72  H    0.206529
    73  H    0.023283
    74  H    0.043107
    75  H    0.029091
    76  H    0.029127
    77  H    0.195987
    78  H    0.028428
    79  H    0.017213
 Sum of Mulliken charges =  -0.00000

 Dipole moment (field-independent basis, Debye):
    X=              0.9174    Y=             -0.5639    Z=              2.2466  Tot=              2.4914
 Quadrupole moment (field-independent basis, Debye-Ang):
   XX=           -216.6160   YY=           -248.3163   ZZ=           -258.5728
   XY=            -10.3682   XZ=             26.8727   YZ=              7.3429

 Normal termination of Gaussian 16 at Sat Sep 14 20:21:32 2019.
