 Gaussian 16, Revision A.03,
 Gaussian 16:  ES64L-G16RevA.03 25-Dec-2016

 --------------------------
 # td=(NStates=1) B3LYP/SVP
 --------------------------

 --
 TD
 --
 Symbolic Z-matrix:
 Charge =  0 Multiplicity = 1

                         Standard orientation:
 ---------------------------------------------------------------------
 Center     Atomic      Atomic             Coordinates (Angstroms)
 Number     Number       Type             X           Y           Z
 ---------------------------------------------------------------------
      1          8           0        5.489787    0.020723   -3.232293
      2          8           0       -3.294843   -2.560532    3.123349
      3          8           0       -3.359308   -0.329489    3.163746
      4          8           0       -1.912055    6.967531    1.290570
      5          8           0       -0.908782    6.917814   -0.675453
      6          8           0       -1.511009   -4.050314    0.017804
      7          7           0        2.322516    1.119653    0.676382
      8          7           0        4.436368   -0.425513   -1.164801
      9          7           0       -1.656196    0.546958   -0.642443
     10          7           0       -2.485996   -1.982340   -0.482001
     11          6           0        4.804374   -1.123777    0.029876
     12          6           0        4.380341   -0.162866    1.337380
     13          6           0        2.890898    0.080777    1.506257
     14          6           0        1.803791   -0.424576    2.313866
     15          6           0        0.633242    0.219500    1.869150
     16          6           0        0.955306    1.122889    0.846100
     17          6           0        6.259306   -1.348704   -0.058104
     18          6           0       -0.639377    0.083291    2.549043
     19          6           0        6.675329   -0.944569   -1.302179
     20          6           0        0.137238    2.025375    0.155211
     21          6           0       -1.114076    1.855615   -0.440681
     22          6           0        5.503947   -0.256372   -2.088979
     23          6           0       -1.949846    2.779018   -1.062097
     24          6           0        2.122406   -1.459291    3.220046
     25          6           0        7.045636   -1.935005    1.015335
     26          6           0       -3.109082    2.154997   -1.469969
     27          6           0       -1.164364   -1.388936    2.660743
     28          6           0       -2.894159    0.715904   -1.194593
     29          6           0       -1.732627    4.307185   -1.192825
     30          6           0        8.012479   -0.829355   -1.984940
     31          6           0       -1.852441    4.868275    0.170832
     32          6           0       -4.364511    2.670740   -2.057322
     33          6           0       -3.898850   -0.243791   -1.290739
     34          6           0       -2.750001   -1.268166    3.100172
     35          6           0       -3.605753   -1.605691   -1.028831
     36          6           0        9.267752   -0.887121   -1.433674
     37          6           0       -1.470373    6.329675    0.184325
     38          6           0       -4.509608   -2.861385   -1.347794
     39          6           0       -3.719920   -3.876894   -0.961398
     40          6           0       -2.430710   -3.281057   -0.348808
     41          6           0       -5.755719   -2.803059   -2.126910
     42          6           0       -3.875666   -5.398431   -0.947821
     43          6           0       -6.572342   -3.826507   -2.489663
     44          1           0        4.182170   -2.076347    0.143069
     45          1           0        5.112436    0.737950    1.404002
     46          1           0        4.666032   -0.875594    2.287866
     47          1           0        2.742263    1.620533   -0.197165
     48          1           0        3.580253   -0.496442   -1.561183
     49          1           0       -0.376926    0.407578    3.638119
     50          1           0       -1.483629    0.820113    2.156914
     51          1           0        0.560109    3.061267   -0.023293
     52          1           0        3.109573   -1.377454    3.525634
     53          1           0        1.398637   -1.487490    4.191746
     54          1           0        1.667076   -2.475088    3.094603
     55          1           0        6.154993   -2.652922    1.506088
     56          1           0        7.509180   -1.333380    1.660456
     57          1           0        7.843621   -2.284225    0.609939
     58          1           0       -1.266991   -1.711331    1.707885
     59          1           0       -0.630299   -1.932481    3.371138
     60          1           0       -1.223576   -0.462190   -0.628580
     61          1           0       -2.368581    4.686185   -2.087914
     62          1           0       -0.539314    4.328732   -1.549931
     63          1           0        7.792662   -0.402820   -2.947454
     64          1           0       -1.120471    4.341544    0.761970
     65          1           0       -2.842773    4.895193    0.604804
     66          1           0       -4.347374    3.836869   -2.243264
     67          1           0       -5.212576    2.456445   -1.174182
     68          1           0       -4.894458    2.047220   -2.874892
     69          1           0       -4.823030    0.044071   -1.793901
     70          1           0        9.661254   -0.969162   -0.369027
     71          1           0       10.113127   -1.060217   -2.184652
     72          1           0       -4.321405   -2.378275    3.343579
     73          1           0       -6.011770   -1.832957   -2.619711
     74          1           0       -4.778150   -5.622324   -0.233196
     75          1           0       -4.167782   -5.854680   -1.871886
     76          1           0       -2.848022   -5.807433   -0.729649
     77          1           0       -1.756168    7.970894    1.366727
     78          1           0       -7.473239   -3.808746   -3.135676
     79          1           0       -6.449748   -4.616336   -2.146790
 ---------------------------------------------------------------------

 SCF Done:  E(RB3LYP) =  -1947.77786171     A.U. after   17 cycles

 Excitation energies and oscillator strengths:

 Excited State   1:      Singlet-A      2.1478 eV  577.25 nm  f=0.4867  <S**2>=0.000
     155 ->156         0.70287
     155 <-156        -0.10923
 This state for optimization and/or second-order correction.
 Total Energy, E(TD-HF/TD-DFT) =  -1947.69893042
 Copying the excited state density for this state as the 1-particle RhoCI density.

 The electronic state is 1-A.
 Alpha  occ. eigenvalues --  -19.17997 -19.16327 -19.13286 -19.12634 -19.12274
 Alpha  occ. eigenvalues --  -19.09427 -14.38606 -14.36849 -14.34995 -14.29067
 Alpha  occ. eigenvalues --  -10.31923 -10.30543 -10.29474 -10.25838 -10.25751
 Alpha  occ. eigenvalues --  -10.24686 -10.24596 -10.24142 -10.24062 -10.24016
 Alpha  occ. eigenvalues --  -10.23136 -10.23044 -10.22781 -10.22366 -10.21891
 Alpha  occ. eigenvalues --  -10.21274 -10.21254 -10.21190 -10.21066 -10.20726
 Alpha  occ. eigenvalues --  -10.20365 -10.20324 -10.19891 -10.19890 -10.19785
 Alpha  occ. eigenvalues --  -10.19731 -10.19623 -10.19173 -10.19002 -10.18824
 Alpha  occ. eigenvalues --  -10.18480 -10.18381 -10.17119  -1.10745  -1.09726
 Alpha  occ. eigenvalues --   -1.05711  -1.00803  -0.99753  -0.99509  -0.97659
 Alpha  occ. eigenvalues --   -0.96783  -0.95074  -0.93227  -0.83601  -0.82809
 Alpha  occ. eigenvalues --   -0.82130  -0.81501  -0.79729  -0.79154  -0.78498
 Alpha  occ. eigenvalues --   -0.77035  -0.75877  -0.74837  -0.74317  -0.72777
 Alpha  occ. eigenvalues --   -0.72149  -0.71714  -0.69043  -0.68526  -0.68041
 Alpha  occ. eigenvalues --   -0.66027  -0.65291  -0.63576  -0.61059  -0.60865
 Alpha  occ. eigenvalues --   -0.60430  -0.59382  -0.58301  -0.56925  -0.56189
 Alpha  occ. eigenvalues --   -0.56058  -0.55168  -0.54705  -0.54662  -0.53241
 Alpha  occ. eigenvalues --   -0.52428  -0.51523  -0.51028  -0.50857  -0.50343
 Alpha  occ. eigenvalues --   -0.49375  -0.48526  -0.47968  -0.47841  -0.47728
 Alpha  occ. eigenvalues --   -0.47561  -0.47339  -0.46653  -0.46416  -0.45860
 Alpha  occ. eigenvalues --   -0.45630  -0.44935  -0.44721  -0.44632  -0.44003
 Alpha  occ. eigenvalues --   -0.43440  -0.43287  -0.43093  -0.43048  -0.42908
 Alpha  occ. eigenvalues --   -0.42447  -0.42152  -0.42024  -0.41698  -0.41319
 Alpha  occ. eigenvalues --   -0.40912  -0.40807  -0.40356  -0.40109  -0.39852
 Alpha  occ. eigenvalues --   -0.39381  -0.39330  -0.39092  -0.38984  -0.38698
 Alpha  occ. eigenvalues --   -0.38203  -0.37607  -0.37157  -0.36727  -0.36373
 Alpha  occ. eigenvalues --   -0.36116  -0.35585  -0.35350  -0.35028  -0.34858
 Alpha  occ. eigenvalues --   -0.33987  -0.33846  -0.33166  -0.32766  -0.31707
 Alpha  occ. eigenvalues --   -0.30968  -0.30740  -0.28757  -0.28290  -0.27689
 Alpha  occ. eigenvalues --   -0.27648  -0.26896  -0.26111  -0.25661  -0.24145
 Alpha  occ. eigenvalues --   -0.23913  -0.23422  -0.23343  -0.22411  -0.19126
 Alpha virt. eigenvalues --   -0.10709  -0.06499  -0.06040  -0.01129  -0.00321
 Alpha virt. eigenvalues --    0.00160   0.01011   0.02525   0.02638   0.02927
 Alpha virt. eigenvalues --    0.03087   0.03563   0.04071   0.04440   0.04598

 Mulliken charges:
               1
     1  O   -0.170120
     2  O   -0.272407
     3  O   -0.121434
     4  O   -0.231237
     5  O   -0.189569
     6  O   -0.252823
     7  N   -0.152031
     8  N   -0.178809
     9  N   -0.134262
    10  N   -0.194496
    11  C    0.059620
    12  C    0.044739
    13  C   -0.024526
    14  C   -0.066866
    15  C   -0.048738
    16  C    0.099848
    17  C   -0.165218
    18  C   -0.025232
    19  C   -0.135124
    20  C   -0.144423
    21  C    0.081960
    22  C    0.160617
    23  C   -0.073121
    24  C    0.075048
    25  C    0.224315
    26  C   -0.095311
    27  C    0.073437
    28  C    0.097676
    29  C    0.007497
    30  C    0.042759
    31  C    0.080830
    32  C   -0.003887
    33  C   -0.090861
    34  C    0.103328
    35  C    0.048837
    36  C   -0.082005
    37  C    0.098299
    38  C    0.081001
    39  C   -0.230103
    40  C    0.137802
    41  C   -0.065137
    42  C    0.077005
    43  C    0.116408
    44  H    0.043241
    45  H    0.038179
    46  H    0.012616
    47  H    0.153891
    48  H    0.089669
    49  H    0.018734
    50  H    0.046420
    51  H    0.003475
    52  H    0.006425
    53  H   -0.006539
    54  H    0.037917
    55  H    0.049033
    56  H   -0.007789
    57  H   -0.045897
    58  H    0.025515
    59  H    0.008314
    60  H    0.197065
    61  H    0.045617
    62  H    0.044694
    63  H    0.018619
    64  H    0.032988
    65  H    0.036176
    66  H    0.045039
    67  H    0.048007
    68  H    0.053278
    69  H   -0.033993
    70  H    0.039022
    71  H    0.041254
    72  H    0.200167
    73  H   -0.007106
    74  H    0.042836
    75  H    0.007543
    76  H    0.045883
    77  H    0.211446
    78  H    0.024608
    79  H   -0.129635
 Sum of Mulliken charges =  -0.00000

 Dipole moment (field-independent basis, Debye):
    X=              0.1586    Y=              3.2958    Z=              2.8689  Tot=              4.3725
 Quadrupole moment (field-independent basis, Debye-Ang):
   XX=           -221.4643   YY=           -253.9027   ZZ=           -259.9822
   XY=            -13.5558   XZ=             28.5824   YZ=              4.8701

 Normal termination of Gaussian 16 at Mon Sep 30 18:04:32 2019.
