 Gaussian 16, Revision A.03,
 Gaussian 16:  ES64L-G16RevA.03 25-Dec-2016

 --------------------------
 # td=(NStates=1) B3LYP/SVP
 --------------------------

 --
 TD
 --
 Symbolic Z-matrix:
 Charge =  0 Multiplicity = 1

                         Standard orientation:
 ---------------------------------------------------------------------
 Center     Atomic      Atomic             Coordinates (Angstroms)
 Number     Number       Type             X           Y           Z
 ---------------------------------------------------------------------
      1          8           0       -2.973278   -1.975761   -2.512462
      2          8           0        3.367857    3.536116    2.221596
      3          8           0        3.591907    2.208027    3.944334
      4          8           0        7.722415   -1.711533   -0.631094
      5          8           0        6.592327   -3.366730   -1.629605
      6          8           0       -2.653654    1.785177    1.113846
      7          7           0       -0.380517   -2.230504    1.525552
      8          7           0       -2.524380   -1.421108   -0.311365
      9          7           0        1.030922   -0.164650   -0.671547
     10          7           0       -1.075099    1.394242   -0.522591
     11          6           0       -3.397324   -1.163912    0.871352
     12          6           0       -2.725158   -1.945013    2.033605
     13          6           0       -1.359799   -1.622269    2.252710
     14          6           0       -0.689540   -0.689023    3.085505
     15          6           0        0.654553   -0.630549    2.718158
     16          6           0        0.835040   -1.523481    1.627103
     17          6           0       -4.742529   -1.818652    0.398001
     18          6           0        1.744261    0.203516    3.163970
     19          6           0       -4.700618   -2.252283   -0.848121
     20          6           0        1.964296   -1.718961    0.775233
     21          6           0        2.050129   -0.967881   -0.395202
     22          6           0       -3.261827   -1.821857   -1.397969
     23          6           0        2.903487   -1.004428   -1.480773
     24          6           0       -1.315659    0.369932    3.961264
     25          6           0       -5.945234   -1.869917    1.254786
     26          6           0        2.615545    0.032366   -2.348510
     27          6           0        2.069334    1.556943    2.336005
     28          6           0        1.379429    0.547686   -1.860862
     29          6           0        4.200744   -1.904019   -1.542779
     30          6           0       -5.750678   -2.807670   -1.747211
     31          6           0        5.360687   -1.404448   -0.841551
     32          6           0        3.218711    0.336657   -3.739757
     33          6           0        0.536800    1.627137   -2.315375
     34          6           0        3.048077    2.446841    2.992046
     35          6           0       -0.580579    1.976950   -1.569118
     36          6           0       -6.883380   -3.452769   -1.418220
     37          6           0        6.605563   -2.328946   -0.992356
     38          6           0       -1.351598    3.284825   -1.757260
     39          6           0       -2.277874    3.357254   -0.679982
     40          6           0       -2.064350    2.087265    0.054603
     41          6           0       -1.189396    4.275373   -2.840946
     42          6           0       -3.313294    4.345006   -0.295973
     43          6           0       -1.907785    5.356707   -2.951225
     44          1           0       -3.493126   -0.116185    1.024900
     45          1           0       -2.738659   -3.003253    1.602752
     46          1           0       -3.360697   -1.786019    2.963696
     47          1           0       -0.626325   -2.736047    0.581532
     48          1           0       -1.956252   -0.504149   -0.438698
     49          1           0        1.661075    0.309079    4.237426
     50          1           0        2.710293   -0.534928    3.455881
     51          1           0        2.917100   -2.340881    1.124354
     52          1           0       -2.044333   -0.002023    4.598341
     53          1           0       -0.689730    1.052204    4.618912
     54          1           0       -1.719834    1.081798    3.248110
     55          1           0       -6.108007   -0.942288    2.079510
     56          1           0       -6.204531   -2.819130    1.708248
     57          1           0       -6.891575   -1.659169    0.733729
     58          1           0        2.404830    1.248287    1.311647
     59          1           0        1.137046    2.145898    2.284833
     60          1           0        0.118876    0.128869   -0.131069
     61          1           0        4.306628   -1.856122   -2.638557
     62          1           0        3.903213   -2.946323   -1.559706
     63          1           0       -5.621699   -2.701565   -2.755669
     64          1           0        5.155555   -1.147899    0.116462
     65          1           0        5.628626   -0.476344   -1.262092
     66          1           0        3.825193   -0.297385   -4.148768
     67          1           0        3.601404    1.352065   -3.625183
     68          1           0        2.308319    0.439644   -4.356631
     69          1           0        0.750029    2.201688   -3.280852
     70          1           0       -6.968605   -3.755446   -0.323272
     71          1           0       -7.433108   -3.788480   -2.049966
     72          1           0        3.950390    3.974298    2.885789
     73          1           0       -0.480029    4.067754   -3.675280
     74          1           0       -4.210606    4.448655   -0.967857
     75          1           0       -3.959501    3.748577    0.353519
     76          1           0       -2.909946    5.395328    0.104780
     77          1           0        8.277410   -2.248662   -0.897170
     78          1           0       -1.746615    6.040111   -3.973418
     79          1           0       -2.410091    5.909506   -2.150373
 ---------------------------------------------------------------------

 SCF Done:  E(RB3LYP) =  -1947.78623944     A.U. after   17 cycles

 Excitation energies and oscillator strengths:

 Excited State   1:      Singlet-A      0.8419 eV 1472.63 nm  f=0.0028  <S**2>=0.000
     155 ->156         0.70366
 This state for optimization and/or second-order correction.
 Total Energy, E(TD-HF/TD-DFT) =  -1947.75529924
 Copying the excited state density for this state as the 1-particle RhoCI density.

 The electronic state is 1-A.
 Alpha  occ. eigenvalues --  -19.19630 -19.17034 -19.14488 -19.13001 -19.11735
 Alpha  occ. eigenvalues --  -19.09397 -14.37154 -14.36665 -14.32896 -14.31018
 Alpha  occ. eigenvalues --  -10.34013 -10.30740 -10.27888 -10.27180 -10.26926
 Alpha  occ. eigenvalues --  -10.25266 -10.24450 -10.23567 -10.23024 -10.22512
 Alpha  occ. eigenvalues --  -10.21946 -10.21860 -10.21496 -10.21161 -10.21147
 Alpha  occ. eigenvalues --  -10.21137 -10.21014 -10.20772 -10.20653 -10.20650
 Alpha  occ. eigenvalues --  -10.20239 -10.20180 -10.19886 -10.19688 -10.19639
 Alpha  occ. eigenvalues --  -10.19450 -10.19441 -10.18404 -10.18019 -10.16881
 Alpha  occ. eigenvalues --  -10.16856 -10.16760 -10.16326  -1.15728  -1.12473
 Alpha  occ. eigenvalues --   -1.04019  -1.03282  -1.02352  -1.02275  -1.00322
 Alpha  occ. eigenvalues --   -0.95903  -0.95111  -0.91805  -0.84311  -0.82839
 Alpha  occ. eigenvalues --   -0.81287  -0.80293  -0.80156  -0.79919  -0.78354
 Alpha  occ. eigenvalues --   -0.76589  -0.75790  -0.75676  -0.74924  -0.74322
 Alpha  occ. eigenvalues --   -0.71206  -0.70625  -0.69833  -0.68817  -0.68014
 Alpha  occ. eigenvalues --   -0.66285  -0.65946  -0.63740  -0.63333  -0.60201
 Alpha  occ. eigenvalues --   -0.60033  -0.59327  -0.58045  -0.57600  -0.57126
 Alpha  occ. eigenvalues --   -0.55224  -0.54607  -0.54165  -0.53450  -0.53173
 Alpha  occ. eigenvalues --   -0.52296  -0.51978  -0.51429  -0.51120  -0.50632
 Alpha  occ. eigenvalues --   -0.50103  -0.49346  -0.49069  -0.48691  -0.48599
 Alpha  occ. eigenvalues --   -0.48482  -0.47882  -0.47155  -0.46779  -0.45942
 Alpha  occ. eigenvalues --   -0.45691  -0.44990  -0.44893  -0.44513  -0.44062
 Alpha  occ. eigenvalues --   -0.43939  -0.43675  -0.43478  -0.42939  -0.42506
 Alpha  occ. eigenvalues --   -0.42456  -0.42160  -0.41949  -0.41870  -0.41664
 Alpha  occ. eigenvalues --   -0.41233  -0.40943  -0.40922  -0.40309  -0.40042
 Alpha  occ. eigenvalues --   -0.39661  -0.39300  -0.39082  -0.38566  -0.38349
 Alpha  occ. eigenvalues --   -0.37663  -0.37333  -0.37110  -0.36728  -0.36596
 Alpha  occ. eigenvalues --   -0.35796  -0.35263  -0.34988  -0.34865  -0.34531
 Alpha  occ. eigenvalues --   -0.33994  -0.33780  -0.33105  -0.32070  -0.31645
 Alpha  occ. eigenvalues --   -0.30589  -0.30194  -0.30158  -0.29115  -0.28794
 Alpha  occ. eigenvalues --   -0.28629  -0.27577  -0.26502  -0.26012  -0.24004
 Alpha  occ. eigenvalues --   -0.23569  -0.23080  -0.22972  -0.22425  -0.18843
 Alpha virt. eigenvalues --   -0.13043  -0.08024  -0.03016  -0.01829  -0.01416
 Alpha virt. eigenvalues --    0.00753   0.02189   0.02826   0.03039   0.03732
 Alpha virt. eigenvalues --    0.04403   0.04797   0.05167   0.05558   0.05789

 Mulliken charges:
               1
     1  O   -0.154509
     2  O   -0.216059
     3  O   -0.132571
     4  O   -0.035470
     5  O   -0.228148
     6  O   -0.243332
     7  N   -0.096378
     8  N   -0.270505
     9  N   -0.131886
    10  N   -0.258964
    11  C    0.068578
    12  C    0.207774
    13  C   -0.087116
    14  C   -0.114873
    15  C   -0.059325
    16  C   -0.028686
    17  C   -0.155611
    18  C    0.034300
    19  C   -0.039228
    20  C   -0.115685
    21  C    0.091076
    22  C    0.112259
    23  C   -0.149612
    24  C    0.097396
    25  C    0.013725
    26  C   -0.160392
    27  C    0.032229
    28  C    0.121778
    29  C    0.131897
    30  C   -0.014126
    31  C    0.130274
    32  C    0.194616
    33  C   -0.124889
    34  C    0.080518
    35  C    0.117291
    36  C    0.096399
    37  C    0.119007
    38  C    0.009625
    39  C   -0.184022
    40  C    0.159287
    41  C    0.004524
    42  C    0.051614
    43  C   -0.067639
    44  H    0.037253
    45  H   -0.014287
    46  H    0.009714
    47  H    0.155005
    48  H    0.175126
    49  H   -0.010788
    50  H    0.002749
    51  H    0.041627
    52  H   -0.015755
    53  H   -0.001879
    54  H    0.030185
    55  H    0.024801
    56  H    0.034392
    57  H    0.016971
    58  H    0.055497
    59  H    0.046375
    60  H    0.235193
    61  H   -0.020212
    62  H    0.015206
    63  H   -0.032503
    64  H   -0.003807
    65  H    0.010198
    66  H   -0.017809
    67  H    0.026400
    68  H    0.033387
    69  H    0.011903
    70  H    0.015629
    71  H   -0.081963
    72  H    0.165234
    73  H   -0.001949
    74  H    0.026597
    75  H    0.007860
    76  H    0.070393
    77  H    0.077258
    78  H    0.038574
    79  H    0.032288
 Sum of Mulliken charges =  -0.00000

 Dipole moment (field-independent basis, Debye):
    X=              3.6306    Y=              3.0760    Z=             -2.0466  Tot=              5.1799
 Quadrupole moment (field-independent basis, Debye-Ang):
   XX=           -230.5308   YY=           -247.7238   ZZ=           -258.8851
   XY=              1.3674   XZ=            -15.6855   YZ=            -13.2247

 Normal termination of Gaussian 16 at Wed Jul 24 04:02:57 2019.
