 Gaussian 16, Revision A.03,
 Gaussian 16:  ES64L-G16RevA.03 25-Dec-2016

 --------------------------
 # td=(NStates=1) B3LYP/SVP
 --------------------------

 --
 TD
 --
 Symbolic Z-matrix:
 Charge =  0 Multiplicity = 1

                         Standard orientation:
 ---------------------------------------------------------------------
 Center     Atomic      Atomic             Coordinates (Angstroms)
 Number     Number       Type             X           Y           Z
 ---------------------------------------------------------------------
      1          8           0       -3.284784   -1.243927   -3.039297
      2          8           0        3.263978    2.712790    3.495516
      3          8           0        3.830540    0.700540    4.376872
      4          8           0        7.689757   -1.418138   -0.924719
      5          8           0        6.712183   -2.959929   -2.242011
      6          8           0       -2.631929    1.489036    1.618871
      7          7           0       -0.306514   -2.466400    0.504628
      8          7           0       -2.739405   -1.122664   -0.785976
      9          7           0        1.130325    0.068329   -0.830655
     10          7           0       -1.065826    1.562349   -0.007999
     11          6           0       -3.412598   -1.294225    0.495795
     12          6           0       -2.708615   -2.396067    1.367888
     13          6           0       -1.215486   -2.191649    1.560554
     14          6           0       -0.559172   -1.584289    2.600857
     15          6           0        0.805073   -1.414543    2.239000
     16          6           0        0.954242   -2.024229    0.991304
     17          6           0       -4.794628   -1.899958    0.070762
     18          6           0        1.831948   -0.761198    3.149070
     19          6           0       -4.903783   -1.878559   -1.328682
     20          6           0        2.030687   -1.900761   -0.001410
     21          6           0        2.147730   -0.815193   -0.815993
     22          6           0       -3.560295   -1.407857   -1.925428
     23          6           0        3.058227   -0.397923   -1.828796
     24          6           0       -1.306891   -0.994077    3.841412
     25          6           0       -5.837543   -2.162577    1.208050
     26          6           0        2.574500    0.784341   -2.356500
     27          6           0        1.948911    0.755148    2.961860
     28          6           0        1.399371    1.183719   -1.628570
     29          6           0        4.177377   -1.263139   -2.292297
     30          6           0       -6.020871   -2.297249   -2.152130
     31          6           0        5.364560   -1.124116   -1.311111
     32          6           0        3.220074    1.607476   -3.583918
     33          6           0        0.665255    2.324137   -1.604808
     34          6           0        3.166154    1.397490    3.650828
     35          6           0       -0.614904    2.438974   -0.956250
     36          6           0       -7.023839   -3.121976   -1.693691
     37          6           0        6.660786   -1.934324   -1.579757
     38          6           0       -1.372601    3.736885   -0.862978
     39          6           0       -2.239325    3.508449    0.150455
     40          6           0       -2.085771    2.107954    0.659417
     41          6           0       -1.179633    4.887080   -1.731367
     42          6           0       -3.378558    4.340591    0.739875
     43          6           0       -2.012633    5.947535   -1.934546
     44          1           0       -3.432388   -0.516885    1.006471
     45          1           0       -2.875801   -3.336684    0.729890
     46          1           0       -3.014614   -2.574348    2.364610
     47          1           0       -0.667628   -2.926242   -0.298046
     48          1           0       -2.139713   -0.369909   -0.795512
     49          1           0        1.958742   -0.883973    4.344556
     50          1           0        2.860836   -1.219348    2.924741
     51          1           0        2.718983   -2.819308   -0.005399
     52          1           0       -1.859749   -1.715915    4.356142
     53          1           0       -0.583469   -0.513743    4.557577
     54          1           0       -2.042488   -0.210755    3.367252
     55          1           0       -5.630792   -1.748489    2.119085
     56          1           0       -5.898609   -3.330471    1.235249
     57          1           0       -6.842047   -1.895016    0.820620
     58          1           0        1.682424    1.062664    1.862316
     59          1           0        1.117157    1.354379    3.621324
     60          1           0        0.350193    0.061197   -0.186998
     61          1           0        4.468028   -0.923088   -3.199945
     62          1           0        3.845023   -2.339985   -2.188655
     63          1           0       -5.986289   -1.930388   -3.157362
     64          1           0        5.091272   -1.360698   -0.151961
     65          1           0        5.683102   -0.006537   -0.917109
     66          1           0        3.807636    0.941159   -4.219996
     67          1           0        3.590960    2.466193   -3.116504
     68          1           0        2.417584    2.139385   -4.240209
     69          1           0        0.987197    3.252272   -2.234236
     70          1           0       -7.009895   -3.153032   -0.607170
     71          1           0       -7.865313   -3.430756   -2.361256
     72          1           0        4.292614    2.985817    3.821308
     73          1           0       -0.194241    4.900601   -2.270572
     74          1           0       -4.293591    4.268512    0.070466
     75          1           0       -3.433318    3.808475    1.811681
     76          1           0       -3.009555    5.404597    0.952227
     77          1           0        8.348397   -2.103753   -0.958828
     78          1           0       -1.840446    6.837646   -2.631433
     79          1           0       -3.034732    6.356924   -1.459544
 ---------------------------------------------------------------------

 SCF Done:  E(RB3LYP) =  -1947.85910595     A.U. after   18 cycles

 Excitation energies and oscillator strengths:

 Excited State   1:      Singlet-A      1.1229 eV 1104.13 nm  f=0.0019  <S**2>=0.000
     155 ->156         0.70361
 This state for optimization and/or second-order correction.
 Total Energy, E(TD-HF/TD-DFT) =  -1947.81783980
 Copying the excited state density for this state as the 1-particle RhoCI density.

 The electronic state is 1-A.
 Alpha  occ. eigenvalues --  -19.19939 -19.19541 -19.13519 -19.12073 -19.11656
 Alpha  occ. eigenvalues --  -19.09991 -14.37099 -14.36133 -14.31710 -14.30300
 Alpha  occ. eigenvalues --  -10.33427 -10.31647 -10.27551 -10.27454 -10.26615
 Alpha  occ. eigenvalues --  -10.25830 -10.24795 -10.24037 -10.23175 -10.22624
 Alpha  occ. eigenvalues --  -10.22619 -10.22544 -10.22363 -10.22310 -10.22085
 Alpha  occ. eigenvalues --  -10.21908 -10.21604 -10.21368 -10.21275 -10.21020
 Alpha  occ. eigenvalues --  -10.20837 -10.20637 -10.20567 -10.20246 -10.20059
 Alpha  occ. eigenvalues --  -10.19571 -10.19072 -10.19067 -10.18998 -10.18572
 Alpha  occ. eigenvalues --  -10.18041 -10.17681 -10.16448  -1.12137  -1.09084
 Alpha  occ. eigenvalues --   -1.04509  -1.01522  -1.01152  -1.00438  -1.00400
 Alpha  occ. eigenvalues --   -0.94777  -0.93179  -0.91269  -0.84020  -0.82856
 Alpha  occ. eigenvalues --   -0.81028  -0.79844  -0.79390  -0.78250  -0.77806
 Alpha  occ. eigenvalues --   -0.76179  -0.75194  -0.75045  -0.73607  -0.72645
 Alpha  occ. eigenvalues --   -0.70616  -0.70110  -0.69749  -0.69401  -0.66976
 Alpha  occ. eigenvalues --   -0.66034  -0.65374  -0.63272  -0.61393  -0.60764
 Alpha  occ. eigenvalues --   -0.59613  -0.59467  -0.58334  -0.57628  -0.57213
 Alpha  occ. eigenvalues --   -0.55943  -0.55349  -0.54450  -0.53225  -0.52364
 Alpha  occ. eigenvalues --   -0.52015  -0.51351  -0.50478  -0.50071  -0.49873
 Alpha  occ. eigenvalues --   -0.49353  -0.48817  -0.48320  -0.48158  -0.47808
 Alpha  occ. eigenvalues --   -0.47525  -0.47208  -0.46555  -0.46332  -0.45958
 Alpha  occ. eigenvalues --   -0.45384  -0.45051  -0.44865  -0.44304  -0.44087
 Alpha  occ. eigenvalues --   -0.43942  -0.43485  -0.42961  -0.42471  -0.41992
 Alpha  occ. eigenvalues --   -0.41804  -0.41709  -0.41217  -0.40844  -0.40706
 Alpha  occ. eigenvalues --   -0.40531  -0.40131  -0.40041  -0.39727  -0.39328
 Alpha  occ. eigenvalues --   -0.38963  -0.38728  -0.38506  -0.38406  -0.37841
 Alpha  occ. eigenvalues --   -0.37583  -0.37130  -0.36994  -0.36327  -0.35995
 Alpha  occ. eigenvalues --   -0.35655  -0.35285  -0.34922  -0.34770  -0.34227
 Alpha  occ. eigenvalues --   -0.34018  -0.33283  -0.32759  -0.32464  -0.31993
 Alpha  occ. eigenvalues --   -0.30212  -0.30053  -0.29239  -0.28879  -0.27907
 Alpha  occ. eigenvalues --   -0.27344  -0.27109  -0.25866  -0.25762  -0.24576
 Alpha  occ. eigenvalues --   -0.23948  -0.23127  -0.22192  -0.22047  -0.19589
 Alpha virt. eigenvalues --   -0.12952  -0.07548  -0.04502  -0.02500  -0.01187
 Alpha virt. eigenvalues --   -0.00084   0.01156   0.01639   0.02220   0.02707
 Alpha virt. eigenvalues --    0.03626   0.04246   0.04944   0.05395   0.05518

 Mulliken charges:
               1
     1  O   -0.146752
     2  O   -0.229239
     3  O   -0.231141
     4  O   -0.134751
     5  O   -0.235301
     6  O   -0.244676
     7  N   -0.115143
     8  N   -0.231139
     9  N   -0.082773
    10  N   -0.256768
    11  C    0.200342
    12  C    0.196620
    13  C   -0.116917
    14  C   -0.116894
    15  C   -0.037865
    16  C   -0.020834
    17  C   -0.184206
    18  C    0.030991
    19  C   -0.078917
    20  C   -0.149707
    21  C    0.165715
    22  C    0.151977
    23  C   -0.127280
    24  C    0.071106
    25  C    0.116903
    26  C   -0.143961
    27  C   -0.101341
    28  C    0.165207
    29  C    0.288911
    30  C   -0.026720
    31  C   -0.174096
    32  C    0.111583
    33  C   -0.134797
    34  C    0.142736
    35  C    0.087295
    36  C   -0.002115
    37  C    0.145998
    38  C    0.059023
    39  C   -0.231293
    40  C    0.163915
    41  C    0.014451
    42  C    0.024621
    43  C   -0.114849
    44  H   -0.074948
    45  H   -0.021830
    46  H   -0.015108
    47  H    0.111359
    48  H    0.104637
    49  H    0.039960
    50  H    0.006839
    51  H    0.034860
    52  H   -0.004105
    53  H    0.011220
    54  H    0.064852
    55  H    0.007874
    56  H    0.047785
    57  H    0.039689
    58  H    0.047966
    59  H    0.059257
    60  H    0.172855
    61  H   -0.029789
    62  H    0.043906
    63  H   -0.012996
    64  H    0.066484
    65  H    0.045223
    66  H    0.046631
    67  H    0.017195
    68  H    0.029032
    69  H    0.011403
    70  H   -0.015807
    71  H    0.034958
    72  H    0.240063
    73  H    0.012955
    74  H    0.063754
    75  H    0.055277
    76  H    0.035432
    77  H    0.169843
    78  H    0.034660
    79  H    0.050697
 Sum of Mulliken charges =  -0.00000

 Dipole moment (field-independent basis, Debye):
    X=              3.5377    Y=              4.0548    Z=             -0.9967  Tot=              5.4727
 Quadrupole moment (field-independent basis, Debye-Ang):
   XX=           -230.3058   YY=           -236.7067   ZZ=           -269.0871
   XY=              9.8600   XZ=            -12.4327   YZ=            -12.7649

 Normal termination of Gaussian 16 at Mon Jul 29 16:24:26 2019.
