 Gaussian 16, Revision A.03,
 Gaussian 16:  ES64L-G16RevA.03 25-Dec-2016

 --------------------------
 # td=(NStates=1) B3LYP/SVP
 --------------------------

 --
 TD
 --
 Symbolic Z-matrix:
 Charge =  0 Multiplicity = 1

                         Standard orientation:
 ---------------------------------------------------------------------
 Center     Atomic      Atomic             Coordinates (Angstroms)
 Number     Number       Type             X           Y           Z
 ---------------------------------------------------------------------
      1          8           0        5.439359   -0.187869   -3.253364
      2          8           0       -3.224688   -2.680259    3.041394
      3          8           0       -3.410694   -0.472632    2.930729
      4          8           0       -1.541637    7.010399    1.587935
      5          8           0       -0.701511    7.109526   -0.568335
      6          8           0       -1.777352   -3.976612    0.204019
      7          7           0        2.383127    0.978765    0.631342
      8          7           0        4.400348   -0.559673   -1.277959
      9          7           0       -1.852878    0.651166   -0.523529
     10          7           0       -2.539729   -1.881549   -0.453800
     11          6           0        4.796834   -1.170623   -0.081045
     12          6           0        4.370078   -0.420809    1.267469
     13          6           0        2.944685   -0.028058    1.404121
     14          6           0        1.916975   -0.568149    2.182146
     15          6           0        0.721793    0.150231    1.834177
     16          6           0        1.023511    1.026036    0.863665
     17          6           0        6.353159   -1.352927   -0.133586
     18          6           0       -0.597819    0.004669    2.590088
     19          6           0        6.617963   -0.853163   -1.375649
     20          6           0        0.203501    1.973803    0.103345
     21          6           0       -1.150587    1.835059   -0.360771
     22          6           0        5.543895   -0.511015   -2.118048
     23          6           0       -1.982561    2.880996   -0.961558
     24          6           0        2.139388   -1.672521    3.144694
     25          6           0        7.037963   -2.074312    0.980879
     26          6           0       -3.083985    2.274744   -1.514400
     27          6           0       -1.216443   -1.474061    2.638788
     28          6           0       -3.015342    0.847496   -1.158510
     29          6           0       -1.585093    4.318423   -1.017975
     30          6           0        7.968581   -0.782425   -1.954102
     31          6           0       -1.792042    4.971887    0.345056
     32          6           0       -4.273502    2.950228   -2.184261
     33          6           0       -3.853852   -0.139268   -1.426256
     34          6           0       -2.685202   -1.486015    2.821067
     35          6           0       -3.661775   -1.503613   -1.087768
     36          6           0        9.128815   -0.819943   -1.356648
     37          6           0       -1.276008    6.477377    0.327596
     38          6           0       -4.469353   -2.708152   -1.340122
     39          6           0       -3.839028   -3.881697   -0.967157
     40          6           0       -2.634365   -3.315435   -0.295368
     41          6           0       -5.835581   -2.556475   -1.953984
     42          6           0       -4.241866   -5.240494   -1.017346
     43          6           0       -6.651605   -3.624718   -2.450878
     44          1           0        4.261244   -2.242121    0.052633
     45          1           0        5.041261    0.709339    1.086604
     46          1           0        5.024179   -1.036772    2.092435
     47          1           0        2.948774    1.429712   -0.085388
     48          1           0        3.401382   -0.482681   -1.681417
     49          1           0       -0.436121    0.379753    3.609994
     50          1           0       -1.155223    0.938913    2.264740
     51          1           0        0.498022    2.878955   -0.117991
     52          1           0        3.354825   -1.799837    3.148903
     53          1           0        1.815258   -1.580774    4.231512
     54          1           0        1.839000   -2.659085    2.862305
     55          1           0        6.245064   -2.963464    1.282154
     56          1           0        7.237893   -1.375982    1.772937
     57          1           0        7.817260   -2.562880    0.733256
     58          1           0       -1.113423   -2.113790    1.515515
     59          1           0       -0.687371   -2.161660    3.554413
     60          1           0       -1.541700   -0.170836   -0.124198
     61          1           0       -2.168064    4.742501   -1.617712
     62          1           0       -0.610269    4.613587   -1.506060
     63          1           0        8.079905   -0.362645   -2.966587
     64          1           0       -1.255819    4.513104    1.286925
     65          1           0       -2.897262    5.016548    0.470746
     66          1           0       -4.204303    3.959743   -2.135056
     67          1           0       -5.092385    2.641491   -1.565481
     68          1           0       -4.468211    2.368328   -3.084043
     69          1           0       -4.698304    0.101405   -1.971301
     70          1           0        9.125500   -1.049009   -0.468270
     71          1           0       10.006242   -0.591360   -1.801684
     72          1           0       -4.108003   -2.610175    3.217077
     73          1           0       -6.252311   -1.522291   -2.031680
     74          1           0       -5.129557   -5.348347   -0.453252
     75          1           0       -4.639386   -5.599165   -2.023420
     76          1           0       -3.299291   -5.850139   -0.836837
     77          1           0       -1.292822    7.889175    1.616154
     78          1           0       -7.544607   -3.241067   -2.964392
     79          1           0       -6.632065   -4.762313   -2.020888
 ---------------------------------------------------------------------

 SCF Done:  E(RB3LYP) =  -1947.77849227     A.U. after   16 cycles

 Excitation energies and oscillator strengths:

 Excited State   1:      Singlet-A      2.0162 eV  614.94 nm  f=0.3816  <S**2>=0.000
     155 ->156         0.69606
     155 <-156        -0.10006
 This state for optimization and/or second-order correction.
 Total Energy, E(TD-HF/TD-DFT) =  -1947.70439801
 Copying the excited state density for this state as the 1-particle RhoCI density.

 The electronic state is 1-A.
 Alpha  occ. eigenvalues --  -19.18285 -19.16360 -19.14525 -19.11272 -19.09850
 Alpha  occ. eigenvalues --  -19.09686 -14.37640 -14.35833 -14.34713 -14.29141
 Alpha  occ. eigenvalues --  -10.33775 -10.30399 -10.27360 -10.26715 -10.25252
 Alpha  occ. eigenvalues --  -10.24221 -10.24128 -10.24066 -10.23391 -10.23337
 Alpha  occ. eigenvalues --  -10.22938 -10.22559 -10.22502 -10.21964 -10.21905
 Alpha  occ. eigenvalues --  -10.21842 -10.21670 -10.21279 -10.20977 -10.20882
 Alpha  occ. eigenvalues --  -10.20754 -10.20127 -10.19889 -10.19718 -10.19686
 Alpha  occ. eigenvalues --  -10.19683 -10.19670 -10.19448 -10.19033 -10.18363
 Alpha  occ. eigenvalues --  -10.18172 -10.18161 -10.16445  -1.09163  -1.09153
 Alpha  occ. eigenvalues --   -1.04265  -1.03474  -1.00945  -0.99098  -0.98014
 Alpha  occ. eigenvalues --   -0.96871  -0.94274  -0.91820  -0.83688  -0.83104
 Alpha  occ. eigenvalues --   -0.81666  -0.80464  -0.80143  -0.79261  -0.78235
 Alpha  occ. eigenvalues --   -0.77787  -0.75757  -0.75171  -0.74868  -0.73934
 Alpha  occ. eigenvalues --   -0.72805  -0.71305  -0.69807  -0.69515  -0.68238
 Alpha  occ. eigenvalues --   -0.67799  -0.66337  -0.63796  -0.61448  -0.60979
 Alpha  occ. eigenvalues --   -0.60625  -0.59750  -0.58957  -0.58207  -0.57717
 Alpha  occ. eigenvalues --   -0.56689  -0.55564  -0.55003  -0.54645  -0.53809
 Alpha  occ. eigenvalues --   -0.52556  -0.52039  -0.51220  -0.50611  -0.49951
 Alpha  occ. eigenvalues --   -0.48980  -0.48799  -0.48317  -0.48154  -0.47250
 Alpha  occ. eigenvalues --   -0.46742  -0.46413  -0.46021  -0.45884  -0.45446
 Alpha  occ. eigenvalues --   -0.45409  -0.45179  -0.44950  -0.44438  -0.44226
 Alpha  occ. eigenvalues --   -0.43795  -0.43500  -0.42980  -0.42852  -0.42537
 Alpha  occ. eigenvalues --   -0.42441  -0.42269  -0.41848  -0.41670  -0.41155
 Alpha  occ. eigenvalues --   -0.40825  -0.40601  -0.40450  -0.40390  -0.39947
 Alpha  occ. eigenvalues --   -0.39922  -0.39491  -0.39460  -0.39135  -0.38383
 Alpha  occ. eigenvalues --   -0.38276  -0.38139  -0.37654  -0.37424  -0.37224
 Alpha  occ. eigenvalues --   -0.36139  -0.35905  -0.35351  -0.34892  -0.34630
 Alpha  occ. eigenvalues --   -0.33683  -0.33237  -0.32896  -0.32487  -0.31549
 Alpha  occ. eigenvalues --   -0.30305  -0.29656  -0.29270  -0.27804  -0.27594
 Alpha  occ. eigenvalues --   -0.26159  -0.26079  -0.25473  -0.25427  -0.24868
 Alpha  occ. eigenvalues --   -0.24436  -0.24227  -0.23507  -0.22113  -0.18930
 Alpha virt. eigenvalues --   -0.10888  -0.06830  -0.06624  -0.01930  -0.01650
 Alpha virt. eigenvalues --    0.00722   0.01020   0.01469   0.03018   0.03642
 Alpha virt. eigenvalues --    0.04090   0.04701   0.05024   0.05273   0.05560

 Mulliken charges:
               1
     1  O   -0.170688
     2  O   -0.122156
     3  O   -0.284179
     4  O   -0.179953
     5  O   -0.235019
     6  O   -0.169150
     7  N   -0.079480
     8  N   -0.223843
     9  N    0.007448
    10  N   -0.319759
    11  C    0.025886
    12  C   -0.032383
    13  C    0.010264
    14  C   -0.094720
    15  C   -0.126536
    16  C    0.107584
    17  C   -0.146716
    18  C    0.108613
    19  C   -0.025604
    20  C    0.006378
    21  C    0.004639
    22  C    0.117717
    23  C   -0.110136
    24  C    0.041631
    25  C    0.177405
    26  C   -0.170574
    27  C   -0.117992
    28  C    0.145661
    29  C    0.229963
    30  C   -0.049552
    31  C   -0.066021
    32  C    0.224016
    33  C   -0.092385
    34  C    0.135910
    35  C    0.102625
    36  C    0.140039
    37  C    0.161948
    38  C    0.037537
    39  C   -0.163687
    40  C    0.132728
    41  C   -0.069142
    42  C    0.083420
    43  C   -0.070497
    44  H    0.029176
    45  H    0.008346
    46  H    0.047456
    47  H    0.112535
    48  H    0.158389
    49  H    0.004012
    50  H    0.013802
    51  H   -0.083649
    52  H   -0.005161
    53  H    0.026964
    54  H    0.024620
    55  H    0.052929
    56  H    0.048689
    57  H   -0.025619
    58  H    0.135195
    59  H    0.072033
    60  H    0.108116
    61  H   -0.100451
    62  H    0.035306
    63  H    0.000391
    64  H    0.081998
    65  H    0.047715
    66  H   -0.009583
    67  H    0.009604
    68  H    0.023158
    69  H   -0.086288
    70  H   -0.108554
    71  H   -0.005144
    72  H    0.140729
    73  H    0.018943
    74  H    0.024237
    75  H    0.027222
    76  H    0.047091
    77  H    0.150091
    78  H    0.030764
    79  H    0.063696
 Sum of Mulliken charges =  -0.00000

 Dipole moment (field-independent basis, Debye):
    X=             -0.5833    Y=              1.0009    Z=              2.4254  Tot=              2.6878
 Quadrupole moment (field-independent basis, Debye-Ang):
   XX=           -213.7886   YY=           -243.0835   ZZ=           -265.7997
   XY=             -8.9066   XZ=             32.8550   YZ=              2.2903

 Normal termination of Gaussian 16 at Tue Oct  1 10:00:25 2019.
