 Gaussian 16, Revision A.03,
 Gaussian 16:  ES64L-G16RevA.03 25-Dec-2016

 --------------------------
 # td=(NStates=1) B3LYP/SVP
 --------------------------

 --
 TD
 --
 Symbolic Z-matrix:
 Charge =  0 Multiplicity = 1

                         Standard orientation:
 ---------------------------------------------------------------------
 Center     Atomic      Atomic             Coordinates (Angstroms)
 Number     Number       Type             X           Y           Z
 ---------------------------------------------------------------------
      1          8           0       -3.507551   -0.813673   -2.879479
      2          8           0        3.258635    2.575097    3.415716
      3          8           0        3.839821    0.750035    4.390436
      4          8           0        7.731430   -1.673104   -0.681912
      5          8           0        6.732127   -2.562576   -2.623138
      6          8           0       -2.596087    1.477595    1.518265
      7          7           0       -0.375078   -2.521069    0.590844
      8          7           0       -2.787971   -1.065090   -0.664595
      9          7           0        1.059473    0.113358   -0.724578
     10          7           0       -1.013979    1.444442   -0.039198
     11          6           0       -3.423113   -1.474727    0.587123
     12          6           0       -2.675612   -2.656363    1.323182
     13          6           0       -1.297436   -2.181294    1.496661
     14          6           0       -0.618981   -1.450360    2.556613
     15          6           0        0.748109   -1.335285    2.235236
     16          6           0        0.934639   -2.079370    0.949270
     17          6           0       -4.794846   -1.876249    0.113148
     18          6           0        1.947562   -0.896349    2.965971
     19          6           0       -4.869165   -1.792775   -1.212732
     20          6           0        2.023635   -1.947859    0.018896
     21          6           0        2.090823   -0.872458   -0.738478
     22          6           0       -3.657709   -1.209734   -1.793306
     23          6           0        3.041104   -0.472773   -1.882381
     24          6           0       -1.403757   -0.909181    3.624711
     25          6           0       -5.917703   -2.307786    1.032139
     26          6           0        2.541557    0.795321   -2.303621
     27          6           0        2.097178    0.725620    2.836861
     28          6           0        1.293050    1.084907   -1.723565
     29          6           0        4.265818   -1.265330   -2.166504
     30          6           0       -5.962952   -2.051453   -2.117996
     31          6           0        5.422398   -1.174547   -1.102177
     32          6           0        3.281162    1.662389   -3.380404
     33          6           0        0.498482    2.168700   -1.785300
     34          6           0        3.137675    1.313353    3.644592
     35          6           0       -0.593938    2.376136   -0.950867
     36          6           0       -7.002253   -2.971353   -1.950957
     37          6           0        6.658616   -1.811612   -1.621531
     38          6           0       -1.388852    3.665656   -0.821544
     39          6           0       -2.262293    3.517503    0.184850
     40          6           0       -2.065809    2.087936    0.608811
     41          6           0       -1.111388    4.771011   -1.665300
     42          6           0       -3.406738    4.385542    0.716314
     43          6           0       -1.740322    6.006095   -1.616554
     44          1           0       -3.404627   -0.526449    1.374062
     45          1           0       -2.637730   -3.602295    0.797212
     46          1           0       -3.008240   -2.620210    2.311635
     47          1           0       -0.677097   -3.071287   -0.197078
     48          1           0       -2.238313   -0.305567   -0.591635
     49          1           0        1.909918   -1.046590    3.972191
     50          1           0        2.999135   -1.296209    2.638784
     51          1           0        2.819883   -2.670917    0.012627
     52          1           0       -2.055794   -1.704444    4.280823
     53          1           0       -0.692919   -0.429494    4.374811
     54          1           0       -2.286027   -0.099495    3.369564
     55          1           0       -6.027606   -1.484096    1.825460
     56          1           0       -5.876102   -3.440479    1.379271
     57          1           0       -7.032522   -2.377067    0.355598
     58          1           0        2.250371    0.897431    1.725647
     59          1           0        1.138162    1.323475    3.050569
     60          1           0        0.259878    0.443242   -0.013524
     61          1           0        4.645515   -0.957111   -3.138213
     62          1           0        4.088245   -2.368436   -2.077333
     63          1           0       -5.729254   -1.815076   -3.080279
     64          1           0        5.081911   -1.504610   -0.148410
     65          1           0        5.571212   -0.004312   -0.846119
     66          1           0        4.279045    1.220050   -3.753368
     67          1           0        3.493635    2.781405   -2.997382
     68          1           0        2.869424    1.836049   -4.276750
     69          1           0        0.951609    2.999009   -2.401529
     70          1           0       -7.029725   -3.772518   -1.083325
     71          1           0       -7.578838   -3.310525   -2.770917
     72          1           0        3.970431    3.051080    4.014116
     73          1           0       -0.323093    4.452506   -2.364486
     74          1           0       -4.201421    4.843906   -0.084356
     75          1           0       -4.030531    3.828794    1.506114
     76          1           0       -3.000581    5.213393    1.328013
     77          1           0        8.452364   -2.273509   -1.109489
     78          1           0       -1.297654    6.806152   -2.265914
     79          1           0       -2.230398    6.215851   -0.739756
 ---------------------------------------------------------------------

 SCF Done:  E(RB3LYP) =  -1947.84825174     A.U. after   16 cycles

 Excitation energies and oscillator strengths:

 Excited State   1:      Singlet-A      0.8598 eV 1441.96 nm  f=0.0000  <S**2>=0.000
     155 ->156         0.70312
 This state for optimization and/or second-order correction.
 Total Energy, E(TD-HF/TD-DFT) =  -1947.81665361
 Copying the excited state density for this state as the 1-particle RhoCI density.

 The electronic state is 1-A.
 Alpha  occ. eigenvalues --  -19.19486 -19.17593 -19.15356 -19.11684 -19.10630
 Alpha  occ. eigenvalues --  -19.09566 -14.36813 -14.35649 -14.31456 -14.30995
 Alpha  occ. eigenvalues --  -10.34600 -10.29807 -10.28113 -10.26523 -10.25509
 Alpha  occ. eigenvalues --  -10.25327 -10.24767 -10.23995 -10.23585 -10.23444
 Alpha  occ. eigenvalues --  -10.22813 -10.22478 -10.22007 -10.21959 -10.21603
 Alpha  occ. eigenvalues --  -10.21518 -10.21477 -10.21453 -10.21172 -10.20863
 Alpha  occ. eigenvalues --  -10.20526 -10.20412 -10.19796 -10.19790 -10.19559
 Alpha  occ. eigenvalues --  -10.19246 -10.19130 -10.19095 -10.18827 -10.18601
 Alpha  occ. eigenvalues --  -10.18144 -10.17361 -10.16769  -1.10915  -1.07671
 Alpha  occ. eigenvalues --   -1.03953  -1.03526  -1.00597  -1.00044  -0.96904
 Alpha  occ. eigenvalues --   -0.95810  -0.93236  -0.91825  -0.83480  -0.82524
 Alpha  occ. eigenvalues --   -0.82303  -0.80489  -0.79728  -0.78749  -0.78545
 Alpha  occ. eigenvalues --   -0.76874  -0.75812  -0.75630  -0.73785  -0.72551
 Alpha  occ. eigenvalues --   -0.70728  -0.70244  -0.69345  -0.69013  -0.67107
 Alpha  occ. eigenvalues --   -0.66198  -0.65247  -0.63243  -0.61849  -0.59844
 Alpha  occ. eigenvalues --   -0.59565  -0.59072  -0.58841  -0.56907  -0.56265
 Alpha  occ. eigenvalues --   -0.55597  -0.55324  -0.55190  -0.53002  -0.52561
 Alpha  occ. eigenvalues --   -0.51976  -0.51359  -0.50465  -0.49992  -0.49842
 Alpha  occ. eigenvalues --   -0.49162  -0.48690  -0.48544  -0.48322  -0.47708
 Alpha  occ. eigenvalues --   -0.47124  -0.46883  -0.46857  -0.46037  -0.45458
 Alpha  occ. eigenvalues --   -0.45176  -0.44690  -0.44089  -0.43888  -0.43461
 Alpha  occ. eigenvalues --   -0.43385  -0.43165  -0.42999  -0.42169  -0.41776
 Alpha  occ. eigenvalues --   -0.41658  -0.41296  -0.40983  -0.40718  -0.40665
 Alpha  occ. eigenvalues --   -0.40336  -0.40187  -0.40114  -0.39586  -0.39421
 Alpha  occ. eigenvalues --   -0.38845  -0.38694  -0.38508  -0.38448  -0.37706
 Alpha  occ. eigenvalues --   -0.37562  -0.37128  -0.36894  -0.36836  -0.36473
 Alpha  occ. eigenvalues --   -0.36250  -0.35822  -0.35596  -0.35091  -0.34762
 Alpha  occ. eigenvalues --   -0.33918  -0.33301  -0.32965  -0.32257  -0.32149
 Alpha  occ. eigenvalues --   -0.31803  -0.30266  -0.29771  -0.29615  -0.29261
 Alpha  occ. eigenvalues --   -0.27067  -0.26286  -0.25989  -0.25238  -0.24430
 Alpha  occ. eigenvalues --   -0.24091  -0.22634  -0.22383  -0.22152  -0.18071
 Alpha virt. eigenvalues --   -0.12380  -0.07849  -0.04709  -0.04044  -0.02279
 Alpha virt. eigenvalues --    0.01038   0.01709   0.02281   0.02621   0.03193
 Alpha virt. eigenvalues --    0.03381   0.04076   0.04456   0.04565   0.04809

 Mulliken charges:
               1
     1  O   -0.162502
     2  O   -0.185526
     3  O   -0.198477
     4  O   -0.259197
     5  O   -0.251096
     6  O   -0.195975
     7  N   -0.033226
     8  N   -0.205500
     9  N   -0.216052
    10  N   -0.308420
    11  C   -0.054320
    12  C    0.356531
    13  C   -0.192512
    14  C   -0.023261
    15  C   -0.087396
    16  C    0.006750
    17  C   -0.105791
    18  C    0.141514
    19  C   -0.076566
    20  C   -0.113816
    21  C    0.164748
    22  C    0.149574
    23  C   -0.043531
    24  C   -0.071704
    25  C   -0.046342
    26  C   -0.108289
    27  C   -0.112834
    28  C    0.143206
    29  C    0.100855
    30  C    0.046891
    31  C   -0.048368
    32  C    0.060064
    33  C   -0.132143
    34  C    0.093388
    35  C    0.133232
    36  C   -0.072425
    37  C    0.218639
    38  C    0.056787
    39  C   -0.179733
    40  C    0.149059
    41  C   -0.048020
    42  C    0.016890
    43  C    0.040435
    44  H    0.095141
    45  H   -0.023419
    46  H   -0.035671
    47  H    0.103343
    48  H    0.093250
    49  H   -0.021647
    50  H    0.018479
    51  H   -0.011903
    52  H    0.016180
    53  H    0.004039
    54  H    0.067331
    55  H    0.048297
    56  H    0.058476
    57  H    0.048714
    58  H    0.041417
    59  H    0.055705
    60  H    0.239673
    61  H    0.023155
    62  H    0.036679
    63  H   -0.021617
    64  H    0.044932
    65  H    0.061319
    66  H    0.023517
    67  H    0.038255
    68  H    0.002872
    69  H   -0.001410
    70  H    0.039979
    71  H    0.014166
    72  H    0.212277
    73  H   -0.014198
    74  H    0.067288
    75  H    0.038559
    76  H    0.036387
    77  H    0.209885
    78  H    0.041534
    79  H    0.003475
 Sum of Mulliken charges =  -0.00000

 Dipole moment (field-independent basis, Debye):
    X=              3.2634    Y=              3.0465    Z=             -0.6894  Tot=              4.5173
 Quadrupole moment (field-independent basis, Debye-Ang):
   XX=           -244.0754   YY=           -222.8127   ZZ=           -271.4807
   XY=              9.4681   XZ=            -18.3654   YZ=             -2.4510

 Normal termination of Gaussian 16 at Thu Jul 25 05:50:52 2019.
