 Gaussian 16, Revision A.03,
 Gaussian 16:  ES64L-G16RevA.03 25-Dec-2016

 --------------------------
 # td=(NStates=1) B3LYP/SVP
 --------------------------

 --
 TD
 --
 Symbolic Z-matrix:
 Charge =  0 Multiplicity = 1

                         Standard orientation:
 ---------------------------------------------------------------------
 Center     Atomic      Atomic             Coordinates (Angstroms)
 Number     Number       Type             X           Y           Z
 ---------------------------------------------------------------------
      1          8           0       -3.289632   -1.459819   -2.888850
      2          8           0        3.113037    2.990909    3.063965
      3          8           0        3.855157    1.381749    4.159099
      4          8           0        7.767823   -1.496648   -0.811297
      5          8           0        6.624058   -3.026837   -2.050597
      6          8           0       -2.458346    1.622890    1.604726
      7          7           0       -0.259784   -2.444969    0.832686
      8          7           0       -2.703402   -1.113129   -0.610794
      9          7           0        1.141350    0.091528   -0.735225
     10          7           0       -0.970754    1.441958   -0.167363
     11          6           0       -3.424803   -1.248873    0.587078
     12          6           0       -2.611754   -2.379211    1.556469
     13          6           0       -1.245942   -2.025761    1.828605
     14          6           0       -0.621799   -1.275814    2.823680
     15          6           0        0.811643   -1.192109    2.440019
     16          6           0        0.999989   -1.927124    1.255673
     17          6           0       -4.767162   -1.869107    0.258064
     18          6           0        1.796699   -0.526299    3.247340
     19          6           0       -4.763712   -1.967247   -1.080362
     20          6           0        2.109336   -1.943410    0.302268
     21          6           0        2.129943   -0.856866   -0.717537
     22          6           0       -3.506034   -1.512492   -1.727214
     23          6           0        3.142786   -0.525902   -1.759456
     24          6           0       -1.419295   -0.402657    3.845007
     25          6           0       -5.887475   -2.109653    1.206571
     26          6           0        2.635494    0.575882   -2.397320
     27          6           0        1.833204    1.045843    2.896491
     28          6           0        1.428187    0.887620   -1.712621
     29          6           0        4.258078   -1.423634   -2.030405
     30          6           0       -5.907267   -2.315166   -2.037783
     31          6           0        5.431630   -1.116321   -1.147363
     32          6           0        3.245521    1.374829   -3.574914
     33          6           0        0.540816    1.990189   -2.024281
     34          6           0        3.057985    1.749516    3.414250
     35          6           0       -0.614595    2.319169   -1.136486
     36          6           0       -6.877314   -3.242946   -1.767831
     37          6           0        6.554768   -2.028808   -1.416257
     38          6           0       -1.450655    3.474870   -1.143709
     39          6           0       -2.390321    3.315986   -0.145380
     40          6           0       -1.998793    2.027596    0.482247
     41          6           0       -1.329701    4.528213   -2.169002
     42          6           0       -3.418697    4.186822    0.296820
     43          6           0       -2.081627    5.675270   -2.206057
     44          1           0       -3.462967   -0.314826    1.382908
     45          1           0       -2.585739   -3.346766    1.066179
     46          1           0       -3.219955   -2.291927    2.703002
     47          1           0       -0.465277   -2.943630    0.001999
     48          1           0       -1.897838   -0.399152   -0.769679
     49          1           0        1.585632   -0.532491    4.277087
     50          1           0        2.826880   -0.861153    2.871066
     51          1           0        3.025297   -2.588415    0.454462
     52          1           0       -2.135812   -1.133110    4.367917
     53          1           0       -0.818779    0.083376    4.609621
     54          1           0       -1.926917    0.268217    3.272815
     55          1           0       -6.153324   -1.170306    1.947674
     56          1           0       -5.681254   -3.105127    1.659256
     57          1           0       -6.880114   -2.403923    0.596145
     58          1           0        1.812744    0.952243    1.815017
     59          1           0        0.886078    1.448176    3.465258
     60          1           0        0.259811    0.370079   -0.299470
     61          1           0        4.574356   -1.553883   -3.013991
     62          1           0        3.989419   -2.491440   -1.885366
     63          1           0       -5.991646   -1.947274   -3.182247
     64          1           0        5.107339   -1.099212   -0.005180
     65          1           0        5.796513   -0.071433   -1.129106
     66          1           0        3.767890    0.593770   -4.452282
     67          1           0        4.285555    2.034041   -2.901693
     68          1           0        2.141763    2.106759   -4.109453
     69          1           0        0.684885    2.726578   -2.772074
     70          1           0       -6.795483   -3.826451   -0.831322
     71          1           0       -7.682438   -3.415098   -2.485173
     72          1           0        4.028347    3.476258    3.414267
     73          1           0       -0.439472    4.276691   -2.835333
     74          1           0       -4.100151    4.263233   -0.624608
     75          1           0       -4.143962    3.852325    1.091535
     76          1           0       -3.156061    5.238409    0.688378
     77          1           0        8.485010   -2.092867   -1.215856
     78          1           0       -1.989639    6.546659   -3.074348
     79          1           0       -3.034123    5.851577   -1.428550
 ---------------------------------------------------------------------

 SCF Done:  E(RB3LYP) =  -1947.75366099     A.U. after   20 cycles

 Excitation energies and oscillator strengths:

 Excited State   1:      Singlet-A      0.9414 eV 1317.01 nm  f=0.0075  <S**2>=0.000
     155 ->156         0.70153
 This state for optimization and/or second-order correction.
 Total Energy, E(TD-HF/TD-DFT) =  -1947.71906500
 Copying the excited state density for this state as the 1-particle RhoCI density.

 The electronic state is 1-A.
 Alpha  occ. eigenvalues --  -19.17350 -19.16904 -19.15663 -19.11634 -19.10575
 Alpha  occ. eigenvalues --  -19.09378 -14.37922 -14.35895 -14.33334 -14.31386
 Alpha  occ. eigenvalues --  -10.33677 -10.29824 -10.28424 -10.28160 -10.27212
 Alpha  occ. eigenvalues --  -10.26840 -10.26642 -10.25703 -10.24490 -10.23543
 Alpha  occ. eigenvalues --  -10.23501 -10.23462 -10.23337 -10.23287 -10.22536
 Alpha  occ. eigenvalues --  -10.21867 -10.21829 -10.21751 -10.21446 -10.21402
 Alpha  occ. eigenvalues --  -10.21182 -10.20967 -10.20517 -10.20412 -10.20347
 Alpha  occ. eigenvalues --  -10.20036 -10.19982 -10.18563 -10.18480 -10.18278
 Alpha  occ. eigenvalues --  -10.17863 -10.17587 -10.17252  -1.11186  -1.09866
 Alpha  occ. eigenvalues --   -1.03141  -1.02768  -1.01036  -1.00013  -0.99811
 Alpha  occ. eigenvalues --   -0.94350  -0.93737  -0.92225  -0.85857  -0.82443
 Alpha  occ. eigenvalues --   -0.81593  -0.80517  -0.80108  -0.79810  -0.77815
 Alpha  occ. eigenvalues --   -0.76647  -0.74961  -0.74384  -0.73345  -0.71965
 Alpha  occ. eigenvalues --   -0.71551  -0.69914  -0.69193  -0.68997  -0.67185
 Alpha  occ. eigenvalues --   -0.66603  -0.65256  -0.63123  -0.61135  -0.60050
 Alpha  occ. eigenvalues --   -0.59187  -0.58382  -0.57982  -0.57572  -0.56377
 Alpha  occ. eigenvalues --   -0.55604  -0.55133  -0.53776  -0.53598  -0.52793
 Alpha  occ. eigenvalues --   -0.52283  -0.51900  -0.50806  -0.50377  -0.49472
 Alpha  occ. eigenvalues --   -0.49388  -0.49059  -0.48602  -0.48103  -0.47377
 Alpha  occ. eigenvalues --   -0.47373  -0.47019  -0.46430  -0.45862  -0.45703
 Alpha  occ. eigenvalues --   -0.45180  -0.44797  -0.44567  -0.44030  -0.43645
 Alpha  occ. eigenvalues --   -0.43013  -0.42931  -0.42775  -0.42274  -0.42088
 Alpha  occ. eigenvalues --   -0.41973  -0.41752  -0.41554  -0.41281  -0.41090
 Alpha  occ. eigenvalues --   -0.40821  -0.40478  -0.40317  -0.39838  -0.39520
 Alpha  occ. eigenvalues --   -0.39239  -0.38822  -0.38751  -0.38064  -0.37623
 Alpha  occ. eigenvalues --   -0.37246  -0.37008  -0.36763  -0.36690  -0.36326
 Alpha  occ. eigenvalues --   -0.35660  -0.35254  -0.35087  -0.34323  -0.33858
 Alpha  occ. eigenvalues --   -0.33478  -0.32847  -0.32776  -0.32040  -0.31498
 Alpha  occ. eigenvalues --   -0.31299  -0.30642  -0.30326  -0.28878  -0.28718
 Alpha  occ. eigenvalues --   -0.28215  -0.26701  -0.25937  -0.25095  -0.24182
 Alpha  occ. eigenvalues --   -0.23929  -0.23062  -0.22244  -0.22037  -0.19141
 Alpha virt. eigenvalues --   -0.13303  -0.08617  -0.03635  -0.02700  -0.02224
 Alpha virt. eigenvalues --   -0.02167   0.00905   0.01357   0.01788   0.02318
 Alpha virt. eigenvalues --    0.02645   0.02784   0.03902   0.04207   0.04611

 Mulliken charges:
               1
     1  O   -0.178326
     2  O   -0.213697
     3  O   -0.181812
     4  O   -0.289458
     5  O   -0.176978
     6  O   -0.260419
     7  N   -0.157509
     8  N   -0.261696
     9  N    0.042454
    10  N   -0.291624
    11  C   -0.009270
    12  C    0.094301
    13  C   -0.013891
    14  C   -0.110964
    15  C   -0.124722
    16  C    0.058844
    17  C   -0.084271
    18  C    0.124497
    19  C   -0.083368
    20  C   -0.095654
    21  C    0.051687
    22  C    0.146224
    23  C   -0.033594
    24  C    0.121428
    25  C    0.021351
    26  C   -0.079984
    27  C   -0.060700
    28  C    0.051640
    29  C    0.140866
    30  C   -0.052020
    31  C   -0.059476
    32  C   -0.125882
    33  C   -0.040517
    34  C    0.076735
    35  C    0.030325
    36  C   -0.052331
    37  C    0.170785
    38  C    0.028364
    39  C   -0.125095
    40  C    0.168047
    41  C    0.016055
    42  C    0.003315
    43  C   -0.123647
    44  H    0.086830
    45  H   -0.023549
    46  H    0.024697
    47  H    0.101669
    48  H    0.171291
    49  H   -0.004110
    50  H   -0.001465
    51  H    0.039199
    52  H    0.010458
    53  H   -0.003725
    54  H    0.025504
    55  H    0.064060
    56  H    0.037994
    57  H    0.032619
    58  H    0.026054
    59  H    0.072516
    60  H    0.167531
    61  H   -0.011126
    62  H    0.024695
    63  H    0.046963
    64  H    0.069433
    65  H    0.040571
    66  H    0.086081
    67  H    0.082701
    68  H    0.086806
    69  H   -0.055720
    70  H    0.019212
    71  H    0.023151
    72  H    0.228244
    73  H    0.010130
    74  H    0.048798
    75  H    0.029018
    76  H    0.060387
    77  H    0.195910
    78  H    0.063411
    79  H    0.063754
 Sum of Mulliken charges =  -0.00000

 Dipole moment (field-independent basis, Debye):
    X=              2.4707    Y=              3.4308    Z=             -2.0915  Tot=              4.7169
 Quadrupole moment (field-independent basis, Debye-Ang):
   XX=           -240.0118   YY=           -239.2957   ZZ=           -268.5474
   XY=              1.3082   XZ=            -22.9474   YZ=             -8.8867

 Normal termination of Gaussian 16 at Fri Jul 26 02:02:30 2019.
