 Gaussian 16, Revision A.03,
 Gaussian 16:  ES64L-G16RevA.03 25-Dec-2016

 --------------------------
 # td=(NStates=1) B3LYP/SVP
 --------------------------

 --
 TD
 --
 Symbolic Z-matrix:
 Charge =  0 Multiplicity = 1

                         Standard orientation:
 ---------------------------------------------------------------------
 Center     Atomic      Atomic             Coordinates (Angstroms)
 Number     Number       Type             X           Y           Z
 ---------------------------------------------------------------------
      1          8           0       -3.159142   -2.230012   -2.560535
      2          8           0        3.254576    3.582044    2.397465
      3          8           0        3.136093    2.399591    4.439392
      4          8           0        7.710963   -1.702457   -0.226380
      5          8           0        6.657240   -3.433985   -1.307778
      6          8           0       -2.662602    1.843504    1.110767
      7          7           0       -0.327005   -2.199860    1.381083
      8          7           0       -2.626404   -1.517482   -0.455653
      9          7           0        1.125883   -0.192316   -0.812887
     10          7           0       -1.021579    1.387371   -0.555800
     11          6           0       -3.297117   -1.068641    0.768311
     12          6           0       -2.729573   -1.878651    1.979877
     13          6           0       -1.274713   -1.549595    2.115544
     14          6           0       -0.629843   -0.538035    2.878988
     15          6           0        0.742017   -0.640066    2.597823
     16          6           0        0.970715   -1.636169    1.633635
     17          6           0       -4.764067   -1.651217    0.533608
     18          6           0        1.843001    0.226137    3.109457
     19          6           0       -4.861358   -2.147890   -0.763880
     20          6           0        2.123137   -1.900405    0.701581
     21          6           0        2.148309   -1.116023   -0.449090
     22          6           0       -3.520826   -1.981406   -1.390070
     23          6           0        3.050776   -1.074272   -1.501534
     24          6           0       -1.360272    0.304350    3.804545
     25          6           0       -5.856023   -1.487532    1.629009
     26          6           0        2.643262   -0.081338   -2.534963
     27          6           0        1.915147    1.687608    2.409015
     28          6           0        1.436749    0.542534   -1.930044
     29          6           0        4.268485   -1.849934   -1.788221
     30          6           0       -5.979983   -2.891924   -1.445493
     31          6           0        5.518871   -1.373033   -0.957957
     32          6           0        3.214244    0.292234   -3.834729
     33          6           0        0.546289    1.582657   -2.352996
     34          6           0        2.853416    2.603367    3.131343
     35          6           0       -0.518912    2.092559   -1.601180
     36          6           0       -7.150112   -3.449758   -1.079251
     37          6           0        6.606470   -2.305086   -0.902079
     38          6           0       -1.320346    3.245263   -1.854459
     39          6           0       -2.179279    3.326658   -0.836948
     40          6           0       -2.061475    2.079387    0.040414
     41          6           0       -1.023902    4.177706   -2.862691
     42          6           0       -3.364788    4.295948   -0.476888
     43          6           0       -1.741482    5.279711   -3.253703
     44          1           0       -3.539570    0.084042    0.814570
     45          1           0       -3.031496   -2.964096    1.797646
     46          1           0       -3.390898   -1.656146    2.850964
     47          1           0       -0.440308   -3.049784    0.755683
     48          1           0       -1.774755   -0.800353   -0.939764
     49          1           0        1.964614    0.561042    4.094557
     50          1           0        2.772905   -0.379574    2.654747
     51          1           0        2.879740   -2.549349    0.819555
     52          1           0       -2.060459   -0.254151    4.445524
     53          1           0       -0.654087    0.694527    4.537061
     54          1           0       -1.816151    1.109313    3.159026
     55          1           0       -5.658319   -0.644168    2.156992
     56          1           0       -6.070195   -2.378924    2.238879
     57          1           0       -6.839258   -1.437471    1.047205
     58          1           0        2.094677    1.397321    1.149342
     59          1           0        0.907519    2.090707    2.395800
     60          1           0        0.350096    0.286171   -0.260475
     61          1           0        4.594233   -1.699284   -2.866434
     62          1           0        4.080456   -3.104341   -1.525391
     63          1           0       -5.880232   -2.971462   -2.616978
     64          1           0        4.995111   -1.003654    0.046440
     65          1           0        5.903081   -0.418390   -1.282956
     66          1           0        3.920635   -0.551598   -4.198772
     67          1           0        3.845912    1.063456   -3.520339
     68          1           0        2.466474    0.593170   -4.534362
     69          1           0        0.928916    2.204783   -3.215070
     70          1           0       -7.282659   -3.568527   -0.162780
     71          1           0       -7.959136   -4.009151   -1.657564
     72          1           0        3.964772    4.101584    2.866917
     73          1           0       -0.080556    3.939270   -3.436822
     74          1           0       -3.929932    4.245672   -1.520159
     75          1           0       -3.843918    3.903972    0.390687
     76          1           0       -2.845359    5.413025   -0.273633
     77          1           0        8.442283   -2.312389   -0.144380
     78          1           0       -1.424403    5.795197   -4.130566
     79          1           0       -2.623921    5.565232   -2.757658
 ---------------------------------------------------------------------

 SCF Done:  E(RB3LYP) =  -1947.81033046     A.U. after   22 cycles

 Excitation energies and oscillator strengths:

 Excited State   1:      Singlet-A      0.7297 eV 1699.02 nm  f=0.0002  <S**2>=0.000
     155 ->156         0.70387
 This state for optimization and/or second-order correction.
 Total Energy, E(TD-HF/TD-DFT) =  -1947.78351305
 Copying the excited state density for this state as the 1-particle RhoCI density.

 The electronic state is 1-A.
 Alpha  occ. eigenvalues --  -19.21609 -19.17719 -19.14992 -19.13073 -19.11958
 Alpha  occ. eigenvalues --  -19.07062 -14.37476 -14.36962 -14.33242 -14.30886
 Alpha  occ. eigenvalues --  -10.33757 -10.33367 -10.28809 -10.27619 -10.26413
 Alpha  occ. eigenvalues --  -10.26016 -10.25368 -10.24436 -10.24213 -10.23881
 Alpha  occ. eigenvalues --  -10.23650 -10.23256 -10.22536 -10.22258 -10.22107
 Alpha  occ. eigenvalues --  -10.22029 -10.21472 -10.21457 -10.21362 -10.21254
 Alpha  occ. eigenvalues --  -10.21225 -10.20447 -10.20309 -10.20236 -10.20068
 Alpha  occ. eigenvalues --  -10.19831 -10.19659 -10.19633 -10.18976 -10.17400
 Alpha  occ. eigenvalues --  -10.17126 -10.16508 -10.16027  -1.12012  -1.09292
 Alpha  occ. eigenvalues --   -1.02341  -1.01389  -0.99018  -0.98396  -0.95116
 Alpha  occ. eigenvalues --   -0.94938  -0.94507  -0.89839  -0.84538  -0.82722
 Alpha  occ. eigenvalues --   -0.82015  -0.80041  -0.79610  -0.78788  -0.78251
 Alpha  occ. eigenvalues --   -0.76790  -0.75576  -0.75159  -0.74810  -0.73787
 Alpha  occ. eigenvalues --   -0.71434  -0.70855  -0.69822  -0.69763  -0.67814
 Alpha  occ. eigenvalues --   -0.67071  -0.65582  -0.62781  -0.61614  -0.60944
 Alpha  occ. eigenvalues --   -0.60400  -0.60081  -0.58581  -0.57638  -0.55886
 Alpha  occ. eigenvalues --   -0.55537  -0.54703  -0.53796  -0.53209  -0.52878
 Alpha  occ. eigenvalues --   -0.52663  -0.52192  -0.51505  -0.50449  -0.49758
 Alpha  occ. eigenvalues --   -0.49215  -0.49031  -0.48834  -0.48623  -0.48185
 Alpha  occ. eigenvalues --   -0.48014  -0.47665  -0.47020  -0.46353  -0.45586
 Alpha  occ. eigenvalues --   -0.45259  -0.44865  -0.44479  -0.44353  -0.44074
 Alpha  occ. eigenvalues --   -0.43905  -0.43488  -0.43218  -0.42908  -0.42521
 Alpha  occ. eigenvalues --   -0.42073  -0.41879  -0.41665  -0.41060  -0.40744
 Alpha  occ. eigenvalues --   -0.40521  -0.40346  -0.40153  -0.39988  -0.39783
 Alpha  occ. eigenvalues --   -0.39396  -0.38729  -0.38391  -0.38065  -0.37535
 Alpha  occ. eigenvalues --   -0.37353  -0.36934  -0.36908  -0.36506  -0.36227
 Alpha  occ. eigenvalues --   -0.35732  -0.35475  -0.35316  -0.34940  -0.33924
 Alpha  occ. eigenvalues --   -0.33444  -0.33351  -0.32543  -0.31737  -0.30782
 Alpha  occ. eigenvalues --   -0.30308  -0.30129  -0.29615  -0.29492  -0.29189
 Alpha  occ. eigenvalues --   -0.26960  -0.26277  -0.25657  -0.24231  -0.23959
 Alpha  occ. eigenvalues --   -0.23028  -0.22660  -0.22560  -0.22373  -0.19150
 Alpha virt. eigenvalues --   -0.13771  -0.08727  -0.04146  -0.02975  -0.02556
 Alpha virt. eigenvalues --   -0.02344   0.01548   0.01755   0.02117   0.02847
 Alpha virt. eigenvalues --    0.03178   0.03246   0.04079   0.05095   0.05301

 Mulliken charges:
               1
     1  O   -0.272475
     2  O   -0.113064
     3  O   -0.353995
     4  O   -0.246878
     5  O   -0.188095
     6  O   -0.248362
     7  N   -0.108468
     8  N   -0.264680
     9  N   -0.142100
    10  N   -0.329048
    11  C    0.012163
    12  C    0.165701
    13  C   -0.031113
    14  C   -0.130123
    15  C   -0.070748
    16  C    0.010357
    17  C   -0.245196
    18  C    0.066418
    19  C    0.010509
    20  C   -0.022002
    21  C    0.144003
    22  C    0.129187
    23  C   -0.061278
    24  C    0.098430
    25  C    0.118059
    26  C   -0.148810
    27  C   -0.097188
    28  C    0.055845
    29  C   -0.003380
    30  C   -0.044040
    31  C   -0.038432
    32  C    0.143992
    33  C   -0.059321
    34  C    0.196704
    35  C    0.085784
    36  C    0.013784
    37  C    0.181388
    38  C    0.121467
    39  C   -0.233044
    40  C    0.211947
    41  C   -0.083046
    42  C    0.033700
    43  C    0.020891
    44  H    0.100761
    45  H   -0.000966
    46  H   -0.006835
    47  H    0.141536
    48  H    0.199209
    49  H    0.018923
    50  H    0.004443
    51  H   -0.043313
    52  H    0.006161
    53  H   -0.009315
    54  H    0.052003
    55  H    0.009833
    56  H    0.036166
    57  H    0.030754
    58  H    0.046033
    59  H    0.055923
    60  H    0.203531
    61  H    0.022949
    62  H    0.072879
    63  H    0.030266
    64  H    0.075361
    65  H    0.031864
    66  H    0.042270
    67  H    0.023734
    68  H    0.045810
    69  H   -0.004404
    70  H   -0.071409
    71  H    0.036491
    72  H    0.205956
    73  H   -0.006581
    74  H    0.070477
    75  H    0.037246
    76  H    0.059484
    77  H    0.175662
    78  H    0.020186
    79  H    0.001469
 Sum of Mulliken charges =  -0.00000

 Dipole moment (field-independent basis, Debye):
    X=              4.5488    Y=              3.8193    Z=             -2.3144  Tot=              6.3745
 Quadrupole moment (field-independent basis, Debye-Ang):
   XX=           -228.3081   YY=           -243.8577   ZZ=           -272.0631
   XY=              4.7890   XZ=            -26.2243   YZ=            -22.9301

 Normal termination of Gaussian 16 at Wed Jul 31 08:59:15 2019.
