 Gaussian 16, Revision A.03,
 Gaussian 16:  ES64L-G16RevA.03 25-Dec-2016

 --------------------------
 # td=(NStates=1) B3LYP/SVP
 --------------------------

 --
 TD
 --
 Symbolic Z-matrix:
 Charge =  0 Multiplicity = 1

                         Standard orientation:
 ---------------------------------------------------------------------
 Center     Atomic      Atomic             Coordinates (Angstroms)
 Number     Number       Type             X           Y           Z
 ---------------------------------------------------------------------
      1          8           0        5.273249   -0.461808   -3.352386
      2          8           0       -2.779593   -2.931686    3.280717
      3          8           0       -3.360898   -0.801212    2.929713
      4          8           0       -1.614611    7.282951    1.371924
      5          8           0       -0.856819    6.979798   -0.789695
      6          8           0       -1.526531   -3.864528    0.160461
      7          7           0        2.238272    1.133472    0.636547
      8          7           0        4.338757   -0.683705   -1.211747
      9          7           0       -1.911763    0.706846   -0.505167
     10          7           0       -2.515407   -1.894832   -0.496607
     11          6           0        4.808868   -1.039362    0.035268
     12          6           0        4.370110    0.000525    1.127079
     13          6           0        2.993523    0.278859    1.415842
     14          6           0        1.980590   -0.450513    2.125160
     15          6           0        0.739651    0.057713    1.790086
     16          6           0        0.966344    1.015184    0.850915
     17          6           0        6.329602   -1.159478   -0.119590
     18          6           0       -0.512377   -0.168259    2.573366
     19          6           0        6.660341   -0.806357   -1.322898
     20          6           0        0.025441    2.051315    0.292875
     21          6           0       -1.247704    1.802821   -0.326291
     22          6           0        5.316977   -0.595012   -2.125329
     23          6           0       -2.119917    2.888820   -0.920977
     24          6           0        2.344038   -1.364294    3.193909
     25          6           0        7.182785   -1.735477    1.041133
     26          6           0       -3.334984    2.261949   -1.309020
     27          6           0       -1.031057   -1.573569    2.667539
     28          6           0       -3.192277    0.824821   -0.969788
     29          6           0       -1.731357    4.417241   -1.006653
     30          6           0        7.923259   -0.859808   -2.187648
     31          6           0       -1.921019    5.197224    0.274237
     32          6           0       -4.381942    2.884173   -2.055572
     33          6           0       -4.095376   -0.235307   -1.227664
     34          6           0       -2.476710   -1.705561    3.024786
     35          6           0       -3.729423   -1.565484   -1.032087
     36          6           0        9.239468   -0.893013   -1.636856
     37          6           0       -1.440472    6.544831    0.238134
     38          6           0       -4.493157   -2.834773   -1.365124
     39          6           0       -3.700493   -3.940030   -0.986369
     40          6           0       -2.575400   -3.410879   -0.480783
     41          6           0       -5.776167   -2.756708   -2.018682
     42          6           0       -4.044257   -5.321493   -1.073748
     43          6           0       -6.458834   -3.858940   -2.463669
     44          1           0        4.518831   -1.958178    0.293901
     45          1           0        4.809743    1.014740    0.954978
     46          1           0        4.963515   -0.202590    2.207164
     47          1           0        2.539368    1.828877   -0.108186
     48          1           0        3.287749   -0.362946   -1.364936
     49          1           0       -0.486792    0.383027    3.602345
     50          1           0       -1.321306    0.423042    2.090744
     51          1           0        0.737805    2.979566    0.022109
     52          1           0        3.354707   -1.339331    3.523275
     53          1           0        1.719978   -1.060936    4.076771
     54          1           0        2.135955   -2.427438    2.949711
     55          1           0        6.599352   -2.352104    1.548247
     56          1           0        7.744903   -0.928775    1.817105
     57          1           0        7.865028   -2.351986    0.566627
     58          1           0       -1.293128   -2.177391    1.882700
     59          1           0       -0.465878   -2.180559    3.261822
     60          1           0       -1.763946   -0.245440   -0.306341
     61          1           0       -2.343044    4.957880   -1.837948
     62          1           0       -0.689213    4.503903   -1.131650
     63          1           0        7.589169   -0.800439   -3.196923
     64          1           0       -1.465201    4.635961    1.136289
     65          1           0       -2.769838    4.978723    0.756190
     66          1           0       -4.251554    3.993743   -2.158059
     67          1           0       -5.429831    2.602084   -1.615494
     68          1           0       -4.486809    2.522957   -3.054895
     69          1           0       -4.868447   -0.105703   -1.745389
     70          1           0        9.477471   -0.973558   -0.403196
     71          1           0       10.250624   -0.820735   -2.088928
     72          1           0       -3.723935   -2.969125    3.714634
     73          1           0       -6.365084   -1.820171   -1.853016
     74          1           0       -5.139873   -5.714205   -0.695588
     75          1           0       -4.058131   -5.662862   -1.932208
     76          1           0       -3.480701   -6.003003   -0.573092
     77          1           0       -1.422618    8.036933    0.827085
     78          1           0       -7.494934   -3.553776   -2.748506
     79          1           0       -6.109769   -5.017728   -2.313891
 ---------------------------------------------------------------------

 SCF Done:  E(RB3LYP) =  -1947.71901052     A.U. after   20 cycles

 Excitation energies and oscillator strengths:

 Excited State   1:      Singlet-A      1.6386 eV  756.66 nm  f=0.2948  <S**2>=0.000
     155 ->156         0.69097
     155 ->157        -0.11088
     155 <-156        -0.12726
 This state for optimization and/or second-order correction.
 Total Energy, E(TD-HF/TD-DFT) =  -1947.65879383
 Copying the excited state density for this state as the 1-particle RhoCI density.

 The electronic state is 1-A.
 Alpha  occ. eigenvalues --  -19.19744 -19.17919 -19.13837 -19.10262 -19.09636
 Alpha  occ. eigenvalues --  -19.09423 -14.38814 -14.36746 -14.36440 -14.29446
 Alpha  occ. eigenvalues --  -10.33387 -10.30070 -10.28414 -10.26577 -10.25541
 Alpha  occ. eigenvalues --  -10.25177 -10.23545 -10.23448 -10.22766 -10.22677
 Alpha  occ. eigenvalues --  -10.22560 -10.22378 -10.22159 -10.22004 -10.21949
 Alpha  occ. eigenvalues --  -10.21938 -10.21925 -10.21461 -10.21269 -10.21152
 Alpha  occ. eigenvalues --  -10.20901 -10.20431 -10.20377 -10.20262 -10.20168
 Alpha  occ. eigenvalues --  -10.19651 -10.19119 -10.18693 -10.18425 -10.18336
 Alpha  occ. eigenvalues --  -10.18066 -10.17557 -10.16829  -1.11790  -1.09217
 Alpha  occ. eigenvalues --   -1.01775  -1.00803  -1.00480  -1.00449  -0.97320
 Alpha  occ. eigenvalues --   -0.95666  -0.95536  -0.90039  -0.82864  -0.82374
 Alpha  occ. eigenvalues --   -0.81835  -0.81368  -0.81110  -0.80296  -0.79110
 Alpha  occ. eigenvalues --   -0.77947  -0.77575  -0.75569  -0.74182  -0.72754
 Alpha  occ. eigenvalues --   -0.71638  -0.71305  -0.70711  -0.70081  -0.68548
 Alpha  occ. eigenvalues --   -0.68055  -0.67678  -0.65263  -0.62273  -0.60707
 Alpha  occ. eigenvalues --   -0.59775  -0.59275  -0.58542  -0.58285  -0.57057
 Alpha  occ. eigenvalues --   -0.56898  -0.56070  -0.55663  -0.54781  -0.53566
 Alpha  occ. eigenvalues --   -0.53202  -0.52610  -0.51505  -0.51457  -0.50666
 Alpha  occ. eigenvalues --   -0.49626  -0.49313  -0.49014  -0.48046  -0.47630
 Alpha  occ. eigenvalues --   -0.47236  -0.47090  -0.46621  -0.46171  -0.45947
 Alpha  occ. eigenvalues --   -0.45517  -0.45177  -0.44703  -0.44289  -0.44127
 Alpha  occ. eigenvalues --   -0.43546  -0.43276  -0.42889  -0.42547  -0.42261
 Alpha  occ. eigenvalues --   -0.42042  -0.41893  -0.41808  -0.41444  -0.41270
 Alpha  occ. eigenvalues --   -0.41039  -0.40748  -0.40543  -0.40112  -0.39858
 Alpha  occ. eigenvalues --   -0.39579  -0.39427  -0.39263  -0.38827  -0.38436
 Alpha  occ. eigenvalues --   -0.37966  -0.37796  -0.37237  -0.36894  -0.36674
 Alpha  occ. eigenvalues --   -0.35968  -0.35471  -0.35209  -0.34309  -0.33721
 Alpha  occ. eigenvalues --   -0.33404  -0.32992  -0.32687  -0.32066  -0.31554
 Alpha  occ. eigenvalues --   -0.31043  -0.29615  -0.29342  -0.27984  -0.27449
 Alpha  occ. eigenvalues --   -0.26327  -0.25495  -0.25044  -0.24994  -0.24749
 Alpha  occ. eigenvalues --   -0.24192  -0.23899  -0.23662  -0.22416  -0.18805
 Alpha virt. eigenvalues --   -0.12250  -0.08280  -0.04895  -0.02272  -0.01388
 Alpha virt. eigenvalues --    0.00845   0.01153   0.02563   0.02579   0.03154
 Alpha virt. eigenvalues --    0.03262   0.03904   0.04080   0.04503   0.04760

 Mulliken charges:
               1
     1  O   -0.248994
     2  O   -0.166802
     3  O   -0.309553
     4  O   -0.152922
     5  O   -0.284440
     6  O   -0.267948
     7  N   -0.039550
     8  N   -0.178667
     9  N    0.061258
    10  N   -0.337389
    11  C    0.233226
    12  C    0.071379
    13  C   -0.075752
    14  C   -0.146097
    15  C   -0.028555
    16  C   -0.070205
    17  C   -0.235860
    18  C    0.089806
    19  C   -0.088063
    20  C   -0.129472
    21  C    0.110832
    22  C    0.134892
    23  C   -0.152039
    24  C    0.113137
    25  C    0.156511
    26  C   -0.106515
    27  C    0.119139
    28  C    0.083399
    29  C    0.160197
    30  C    0.063909
    31  C    0.033489
    32  C    0.075474
    33  C    0.041773
    34  C    0.095068
    35  C    0.071827
    36  C   -0.100789
    37  C    0.190357
    38  C    0.041560
    39  C   -0.073878
    40  C    0.145180
    41  C   -0.070434
    42  C    0.200923
    43  C   -0.044642
    44  H   -0.032794
    45  H   -0.009594
    46  H    0.025718
    47  H    0.131772
    48  H    0.168298
    49  H    0.023029
    50  H   -0.006441
    51  H    0.028659
    52  H   -0.017341
    53  H    0.017609
    54  H    0.029809
    55  H   -0.035905
    56  H    0.062357
    57  H    0.008046
    58  H    0.009450
    59  H   -0.024013
    60  H    0.105688
    61  H    0.038445
    62  H   -0.008438
    63  H    0.014668
    64  H    0.032675
    65  H   -0.025899
    66  H    0.021726
    67  H    0.027378
    68  H    0.019140
    69  H   -0.135002
    70  H    0.044321
    71  H    0.043895
    72  H    0.215055
    73  H    0.034081
    74  H    0.021756
    75  H   -0.051708
    76  H   -0.018347
    77  H    0.149734
    78  H    0.035763
    79  H    0.071640
 Sum of Mulliken charges =  -0.00000

 Dipole moment (field-independent basis, Debye):
    X=             -3.0423    Y=              0.4149    Z=              2.8733  Tot=              4.2052
 Quadrupole moment (field-independent basis, Debye-Ang):
   XX=           -215.9914   YY=           -243.4103   ZZ=           -263.4303
   XY=              6.7768   XZ=             36.4503   YZ=             -0.1124

 Normal termination of Gaussian 16 at Fri Oct  4 03:49:16 2019.
