 Gaussian 16, Revision A.03,
 Gaussian 16:  ES64L-G16RevA.03 25-Dec-2016

 --------------------------
 # td=(NStates=1) B3LYP/SVP
 --------------------------

 --
 TD
 --
 Symbolic Z-matrix:
 Charge =  0 Multiplicity = 1

                         Standard orientation:
 ---------------------------------------------------------------------
 Center     Atomic      Atomic             Coordinates (Angstroms)
 Number     Number       Type             X           Y           Z
 ---------------------------------------------------------------------
      1          8           0        5.268645   -0.019799   -3.340612
      2          8           0       -3.143963   -2.889350    3.247950
      3          8           0       -3.395441   -0.650520    2.993679
      4          8           0       -1.899635    7.256368    1.486165
      5          8           0       -1.394740    7.110083   -0.820915
      6          8           0       -1.385838   -4.006967    0.173414
      7          7           0        2.296473    1.112390    0.719584
      8          7           0        4.338056   -0.502301   -1.247379
      9          7           0       -1.947678    0.645545   -0.316656
     10          7           0       -2.404107   -1.975473   -0.556675
     11          6           0        4.867165   -1.118971    0.017002
     12          6           0        4.427906   -0.220620    1.202184
     13          6           0        2.954625    0.113955    1.361799
     14          6           0        1.969579   -0.459823    2.214011
     15          6           0        0.736393   -0.012276    1.935240
     16          6           0        0.891458    1.029288    0.914582
     17          6           0        6.406376   -1.119238   -0.085912
     18          6           0       -0.588768   -0.259363    2.771183
     19          6           0        6.627357   -0.711064   -1.367610
     20          6           0        0.028806    2.099585    0.259147
     21          6           0       -1.290498    1.801134   -0.188176
     22          6           0        5.368387   -0.370385   -2.136458
     23          6           0       -2.119584    2.813747   -0.942804
     24          6           0        2.306302   -1.565897    3.139510
     25          6           0        7.276747   -1.551801    0.988536
     26          6           0       -3.235296    2.164960   -1.511673
     27          6           0       -1.228950   -1.615174    2.771213
     28          6           0       -3.088969    0.741803   -0.971844
     29          6           0       -1.693215    4.295021   -0.985391
     30          6           0        7.852185   -0.500732   -2.043545
     31          6           0       -2.033357    5.072925    0.333869
     32          6           0       -4.418667    2.812766   -2.211363
     33          6           0       -3.878256   -0.348539   -1.294698
     34          6           0       -2.676993   -1.600138    2.965637
     35          6           0       -3.566630   -1.734625   -1.118661
     36          6           0        9.085973   -0.534721   -1.551264
     37          6           0       -1.751744    6.493535    0.190526
     38          6           0       -4.262783   -2.922986   -1.491374
     39          6           0       -3.502479   -3.951041   -1.007274
     40          6           0       -2.283647   -3.347204   -0.446534
     41          6           0       -5.575268   -2.931792   -2.090697
     42          6           0       -3.580771   -5.404058   -1.199476
     43          6           0       -6.388694   -3.971015   -2.555519
     44          1           0        4.469361   -2.029444    0.155911
     45          1           0        4.801579    0.739671    1.054140
     46          1           0        5.016404   -0.531592    2.221730
     47          1           0        2.725314    1.804828   -0.064918
     48          1           0        3.214344   -0.800676   -1.665835
     49          1           0       -0.358125    0.005339    3.726169
     50          1           0       -1.435350    0.427372    2.452323
     51          1           0        0.517355    3.107841    0.158477
     52          1           0        3.356561   -1.525304    3.408404
     53          1           0        1.773990   -1.447981    3.912128
     54          1           0        2.139010   -2.565095    2.647346
     55          1           0        6.879407   -2.174188    1.970000
     56          1           0        7.823984   -0.601696    1.386996
     57          1           0        8.113385   -2.165894    0.491719
     58          1           0       -0.955789   -2.240309    1.863388
     59          1           0       -0.714310   -2.366345    3.516655
     60          1           0       -1.589394   -0.265142   -0.191115
     61          1           0       -2.319386    4.965012   -1.657195
     62          1           0       -0.761384    4.419503   -1.193374
     63          1           0        7.894386   -0.502135   -3.130116
     64          1           0       -1.354566    4.760018    1.100139
     65          1           0       -2.954858    4.821079    1.055808
     66          1           0       -4.291856    3.720281   -2.519449
     67          1           0       -5.525435    2.740412   -1.733163
     68          1           0       -4.832753    2.268131   -3.170912
     69          1           0       -4.912013   -0.067525   -1.708073
     70          1           0        9.276613   -0.458689   -0.431533
     71          1           0       10.065336   -0.163972   -2.070692
     72          1           0       -4.088915   -2.854350    3.381575
     73          1           0       -6.132700   -1.892258   -2.115030
     74          1           0       -4.507212   -5.829762   -0.583398
     75          1           0       -3.682490   -5.658761   -2.438319
     76          1           0       -2.457436   -5.788947   -0.854895
     77          1           0       -1.698634    8.228603    1.063095
     78          1           0       -7.443123   -3.616030   -2.985377
     79          1           0       -6.230866   -4.945180   -2.347169
 ---------------------------------------------------------------------

 SCF Done:  E(RB3LYP) =  -1947.78772782     A.U. after   19 cycles

 Excitation energies and oscillator strengths:

 Excited State   1:      Singlet-A      1.9116 eV  648.59 nm  f=0.4094  <S**2>=0.000
     154 ->156         0.14519
     155 ->156         0.68951
     155 <-156        -0.12266
 This state for optimization and/or second-order correction.
 Total Energy, E(TD-HF/TD-DFT) =  -1947.71747754
 Copying the excited state density for this state as the 1-particle RhoCI density.

 The electronic state is 1-A.
 Alpha  occ. eigenvalues --  -19.17542 -19.15634 -19.15306 -19.12148 -19.10537
 Alpha  occ. eigenvalues --  -19.10133 -14.40019 -14.37473 -14.37399 -14.28688
 Alpha  occ. eigenvalues --  -10.33779 -10.30793 -10.29042 -10.26182 -10.25460
 Alpha  occ. eigenvalues --  -10.25438 -10.25099 -10.24079 -10.24062 -10.23939
 Alpha  occ. eigenvalues --  -10.23467 -10.23409 -10.23176 -10.22973 -10.22866
 Alpha  occ. eigenvalues --  -10.22696 -10.22680 -10.21522 -10.21367 -10.21348
 Alpha  occ. eigenvalues --  -10.21295 -10.21091 -10.20339 -10.20037 -10.19836
 Alpha  occ. eigenvalues --  -10.19789 -10.19745 -10.19702 -10.19432 -10.19217
 Alpha  occ. eigenvalues --  -10.19056 -10.18240 -10.17695  -1.07712  -1.06425
 Alpha  occ. eigenvalues --   -1.01059  -1.00728  -0.99560  -0.99273  -0.97915
 Alpha  occ. eigenvalues --   -0.97473  -0.93196  -0.93178  -0.83196  -0.83175
 Alpha  occ. eigenvalues --   -0.81495  -0.81054  -0.80258  -0.79716  -0.78951
 Alpha  occ. eigenvalues --   -0.77895  -0.76874  -0.75695  -0.74036  -0.72647
 Alpha  occ. eigenvalues --   -0.71687  -0.71496  -0.70169  -0.69426  -0.69062
 Alpha  occ. eigenvalues --   -0.67141  -0.66376  -0.63803  -0.60981  -0.60613
 Alpha  occ. eigenvalues --   -0.59135  -0.58626  -0.58330  -0.57611  -0.56842
 Alpha  occ. eigenvalues --   -0.56120  -0.55802  -0.55020  -0.53868  -0.53481
 Alpha  occ. eigenvalues --   -0.51961  -0.51774  -0.51227  -0.50494  -0.49979
 Alpha  occ. eigenvalues --   -0.49308  -0.49069  -0.48017  -0.47696  -0.47377
 Alpha  occ. eigenvalues --   -0.47180  -0.46647  -0.46548  -0.46074  -0.45568
 Alpha  occ. eigenvalues --   -0.45331  -0.45116  -0.44757  -0.44412  -0.43741
 Alpha  occ. eigenvalues --   -0.43685  -0.43328  -0.42884  -0.42804  -0.42234
 Alpha  occ. eigenvalues --   -0.42021  -0.41791  -0.41632  -0.41484  -0.41304
 Alpha  occ. eigenvalues --   -0.40905  -0.40492  -0.39968  -0.39580  -0.39183
 Alpha  occ. eigenvalues --   -0.39179  -0.38889  -0.38813  -0.38642  -0.38351
 Alpha  occ. eigenvalues --   -0.37923  -0.37885  -0.37610  -0.37460  -0.36943
 Alpha  occ. eigenvalues --   -0.36751  -0.36413  -0.34869  -0.34740  -0.34565
 Alpha  occ. eigenvalues --   -0.33511  -0.33230  -0.32299  -0.32059  -0.31830
 Alpha  occ. eigenvalues --   -0.31251  -0.30630  -0.29809  -0.28415  -0.27757
 Alpha  occ. eigenvalues --   -0.27580  -0.27024  -0.26407  -0.25866  -0.25490
 Alpha  occ. eigenvalues --   -0.24745  -0.24197  -0.23660  -0.22063  -0.18954
 Alpha virt. eigenvalues --   -0.11542  -0.07114  -0.06525  -0.03057  -0.01411
 Alpha virt. eigenvalues --   -0.01155   0.00135   0.01086   0.01493   0.02109
 Alpha virt. eigenvalues --    0.02799   0.02814   0.03884   0.04068   0.04312

 Mulliken charges:
               1
     1  O   -0.257807
     2  O   -0.219539
     3  O   -0.203532
     4  O   -0.333163
     5  O   -0.237282
     6  O   -0.268742
     7  N   -0.137532
     8  N   -0.280349
     9  N    0.061322
    10  N   -0.261281
    11  C    0.144692
    12  C    0.150849
    13  C   -0.047544
    14  C   -0.200280
    15  C   -0.073107
    16  C    0.003571
    17  C   -0.102525
    18  C    0.118679
    19  C   -0.033608
    20  C   -0.086944
    21  C    0.083518
    22  C    0.184245
    23  C   -0.121894
    24  C    0.228803
    25  C   -0.020794
    26  C   -0.062075
    27  C   -0.061930
    28  C    0.033264
    29  C    0.178449
    30  C    0.000888
    31  C   -0.017643
    32  C    0.089790
    33  C   -0.100321
    34  C    0.147443
    35  C    0.072292
    36  C   -0.105573
    37  C    0.182430
    38  C    0.117895
    39  C   -0.177202
    40  C    0.171217
    41  C   -0.097820
    42  C   -0.059447
    43  C   -0.020187
    44  H   -0.013104
    45  H   -0.041329
    46  H    0.036379
    47  H    0.168355
    48  H    0.209232
    49  H   -0.011732
    50  H    0.027514
    51  H    0.030315
    52  H   -0.024419
    53  H   -0.051912
    54  H    0.037857
    55  H    0.063599
    56  H    0.064973
    57  H    0.064500
    58  H    0.077144
    59  H    0.037879
    60  H    0.117458
    61  H    0.039252
    62  H   -0.038643
    63  H    0.018359
    64  H    0.024186
    65  H    0.081302
    66  H   -0.033177
    67  H    0.040948
    68  H    0.021378
    69  H   -0.009257
    70  H    0.004825
    71  H    0.045723
    72  H    0.164914
    73  H    0.020460
    74  H    0.058792
    75  H    0.058207
    76  H    0.075071
    77  H    0.220161
    78  H    0.044713
    79  H   -0.011150
 Sum of Mulliken charges =  -0.00000

 Dipole moment (field-independent basis, Debye):
    X=              1.4344    Y=              1.6679    Z=              3.0550  Tot=              3.7647
 Quadrupole moment (field-independent basis, Debye-Ang):
   XX=           -216.6517   YY=           -259.9540   ZZ=           -269.1914
   XY=             -5.6361   XZ=             33.5819   YZ=              0.2622

 Normal termination of Gaussian 16 at Sat Sep 14 00:15:42 2019.
