 Gaussian 16, Revision A.03,
 Gaussian 16:  ES64L-G16RevA.03 25-Dec-2016

 --------------------------
 # td=(NStates=1) B3LYP/SVP
 --------------------------

 --
 TD
 --
 Symbolic Z-matrix:
 Charge =  0 Multiplicity = 1

                         Standard orientation:
 ---------------------------------------------------------------------
 Center     Atomic      Atomic             Coordinates (Angstroms)
 Number     Number       Type             X           Y           Z
 ---------------------------------------------------------------------
      1          8           0       -3.399939   -1.225969   -2.865263
      2          8           0        3.296180    2.960528    3.120314
      3          8           0        3.593136    1.305832    4.593382
      4          8           0        7.710260   -1.520047   -0.654348
      5          8           0        6.631580   -2.806942   -2.159509
      6          8           0       -2.627724    1.623364    1.499911
      7          7           0       -0.257670   -2.426632    0.809094
      8          7           0       -2.770167   -1.065142   -0.631175
      9          7           0        1.183754    0.053313   -0.746928
     10          7           0       -1.060210    1.354760   -0.140671
     11          6           0       -3.334163   -1.367099    0.596318
     12          6           0       -2.634691   -2.440271    1.477739
     13          6           0       -1.207028   -2.090520    1.591306
     14          6           0       -0.572020   -1.298948    2.757488
     15          6           0        0.815352   -1.175426    2.441680
     16          6           0        1.086800   -1.889944    1.264209
     17          6           0       -4.770092   -1.928367    0.302240
     18          6           0        1.912464   -0.515982    3.167345
     19          6           0       -4.866807   -1.829588   -1.082577
     20          6           0        2.160525   -1.916140    0.288376
     21          6           0        2.197497   -0.936851   -0.708650
     22          6           0       -3.647023   -1.419542   -1.688256
     23          6           0        2.940147   -0.682691   -1.920015
     24          6           0       -1.348863   -0.574304    3.809974
     25          6           0       -5.793649   -2.156239    1.379186
     26          6           0        2.635381    0.454064   -2.502790
     27          6           0        2.022665    0.955163    2.899083
     28          6           0        1.390422    0.954680   -1.839472
     29          6           0        4.266516   -1.468462   -2.160527
     30          6           0       -6.002196   -2.334099   -2.046232
     31          6           0        5.417319   -1.005392   -1.191395
     32          6           0        3.250260    1.096482   -3.706243
     33          6           0        0.554260    2.046974   -1.924916
     34          6           0        3.043071    1.682711    3.686196
     35          6           0       -0.620981    2.222234   -1.156511
     36          6           0       -6.977797   -3.153937   -1.738152
     37          6           0        6.598232   -1.892058   -1.431612
     38          6           0       -1.485797    3.540730   -1.254817
     39          6           0       -2.412381    3.369674   -0.238527
     40          6           0       -2.064654    2.082613    0.537732
     41          6           0       -1.125636    4.652918   -2.056275
     42          6           0       -3.543047    4.312101    0.253446
     43          6           0       -1.869925    5.821274   -1.990986
     44          1           0       -3.518866   -0.418562    1.199826
     45          1           0       -2.673167   -3.442455    0.966273
     46          1           0       -3.027072   -2.639682    2.501311
     47          1           0       -0.482972   -2.434124   -0.323072
     48          1           0       -2.065708   -0.307599   -0.761076
     49          1           0        1.755217   -0.606889    4.214638
     50          1           0        2.748748   -1.117520    2.959795
     51          1           0        2.933672   -2.753919    0.162449
     52          1           0       -2.132788   -1.236022    4.248045
     53          1           0       -0.754884   -0.317172    4.686842
     54          1           0       -1.976569    0.318984    3.389185
     55          1           0       -5.525422   -1.512763    2.263323
     56          1           0       -5.598256   -3.152593    1.631802
     57          1           0       -6.758059   -2.147273    1.057383
     58          1           0        2.316742    1.207038    1.737190
     59          1           0        1.039263    1.508564    2.982103
     60          1           0        0.398597    0.216610   -0.201204
     61          1           0        4.711070   -1.389454   -3.169890
     62          1           0        4.214733   -2.499985   -1.958892
     63          1           0       -5.938196   -1.883816   -3.052754
     64          1           0        5.126748   -0.955545   -0.142915
     65          1           0        5.691129    0.025948   -1.546088
     66          1           0        4.540633    0.662856   -3.739457
     67          1           0        3.351510    2.333983   -3.576807
     68          1           0        2.875001    0.824790   -4.898692
     69          1           0        0.597744    2.775804   -2.744666
     70          1           0       -7.043935   -3.983457   -0.824491
     71          1           0       -7.700863   -3.389768   -2.514078
     72          1           0        3.656885    3.436700    3.785207
     73          1           0       -0.371473    4.430014   -2.790738
     74          1           0       -4.031920    4.509014   -0.709663
     75          1           0       -4.294673    3.764215    0.952856
     76          1           0       -3.295896    5.120208    0.844336
     77          1           0        8.264856   -2.293254   -0.961840
     78          1           0       -1.730055    6.472968   -2.703788
     79          1           0       -2.684637    6.071394   -1.156776
 ---------------------------------------------------------------------

 SCF Done:  E(RB3LYP) =  -1947.82847790     A.U. after   19 cycles

 Excitation energies and oscillator strengths:

 Excited State   1:      Singlet-A      0.6189 eV 2003.35 nm  f=0.0001  <S**2>=0.000
     155 ->156         0.70359
 This state for optimization and/or second-order correction.
 Total Energy, E(TD-HF/TD-DFT) =  -1947.80573428
 Copying the excited state density for this state as the 1-particle RhoCI density.

 The electronic state is 1-A.
 Alpha  occ. eigenvalues --  -19.18512 -19.15221 -19.14971 -19.13264 -19.12409
 Alpha  occ. eigenvalues --  -19.08304 -14.37024 -14.36855 -14.32364 -14.31695
 Alpha  occ. eigenvalues --  -10.33183 -10.30724 -10.28593 -10.27522 -10.26376
 Alpha  occ. eigenvalues --  -10.26305 -10.26251 -10.25901 -10.23422 -10.23193
 Alpha  occ. eigenvalues --  -10.22995 -10.22452 -10.22327 -10.22206 -10.22029
 Alpha  occ. eigenvalues --  -10.21990 -10.21614 -10.21364 -10.21328 -10.21319
 Alpha  occ. eigenvalues --  -10.20906 -10.20488 -10.20292 -10.20261 -10.19957
 Alpha  occ. eigenvalues --  -10.19358 -10.19189 -10.18939 -10.18798 -10.17893
 Alpha  occ. eigenvalues --  -10.17860 -10.17416 -10.16964  -1.11588  -1.11284
 Alpha  occ. eigenvalues --   -1.03966  -1.02241  -1.02014  -1.00709  -0.98445
 Alpha  occ. eigenvalues --   -0.95335  -0.92370  -0.91518  -0.84274  -0.82307
 Alpha  occ. eigenvalues --   -0.81916  -0.80906  -0.79809  -0.79377  -0.77682
 Alpha  occ. eigenvalues --   -0.76403  -0.75672  -0.75101  -0.74598  -0.72327
 Alpha  occ. eigenvalues --   -0.71192  -0.70475  -0.70007  -0.68719  -0.67037
 Alpha  occ. eigenvalues --   -0.65944  -0.65020  -0.63385  -0.62122  -0.59364
 Alpha  occ. eigenvalues --   -0.58542  -0.58047  -0.57790  -0.57039  -0.56559
 Alpha  occ. eigenvalues --   -0.55784  -0.54846  -0.53973  -0.52708  -0.52500
 Alpha  occ. eigenvalues --   -0.51915  -0.51354  -0.51165  -0.50198  -0.50115
 Alpha  occ. eigenvalues --   -0.49958  -0.49322  -0.48777  -0.48467  -0.48125
 Alpha  occ. eigenvalues --   -0.47807  -0.47230  -0.46315  -0.46052  -0.45907
 Alpha  occ. eigenvalues --   -0.45551  -0.45069  -0.44495  -0.44323  -0.43937
 Alpha  occ. eigenvalues --   -0.43686  -0.43358  -0.42935  -0.42911  -0.42455
 Alpha  occ. eigenvalues --   -0.42226  -0.42093  -0.41564  -0.41519  -0.40946
 Alpha  occ. eigenvalues --   -0.40584  -0.40414  -0.40331  -0.40026  -0.39483
 Alpha  occ. eigenvalues --   -0.39191  -0.38951  -0.38778  -0.38387  -0.38129
 Alpha  occ. eigenvalues --   -0.37951  -0.37529  -0.37187  -0.37092  -0.36409
 Alpha  occ. eigenvalues --   -0.36333  -0.36155  -0.35787  -0.35513  -0.34537
 Alpha  occ. eigenvalues --   -0.33821  -0.33701  -0.32671  -0.32436  -0.32132
 Alpha  occ. eigenvalues --   -0.30771  -0.30680  -0.29806  -0.29244  -0.28882
 Alpha  occ. eigenvalues --   -0.28387  -0.27970  -0.26142  -0.24360  -0.24074
 Alpha  occ. eigenvalues --   -0.23876  -0.23813  -0.23109  -0.22556  -0.17549
 Alpha virt. eigenvalues --   -0.12710  -0.08081  -0.04191  -0.03313  -0.00992
 Alpha virt. eigenvalues --    0.00171   0.00868   0.01771   0.01913   0.02262
 Alpha virt. eigenvalues --    0.03166   0.04495   0.04527   0.05083   0.05344

 Mulliken charges:
               1
     1  O   -0.234900
     2  O   -0.211186
     3  O   -0.115716
     4  O   -0.231147
     5  O   -0.183648
     6  O   -0.180560
     7  N   -0.114412
     8  N   -0.221664
     9  N   -0.123646
    10  N   -0.347345
    11  C    0.021606
    12  C    0.199818
    13  C   -0.131080
    14  C   -0.143165
    15  C   -0.084827
    16  C   -0.011908
    17  C   -0.207124
    18  C    0.223263
    19  C   -0.086911
    20  C   -0.094206
    21  C    0.096855
    22  C    0.143742
    23  C   -0.012485
    24  C    0.060518
    25  C    0.204901
    26  C   -0.033086
    27  C   -0.083258
    28  C    0.165824
    29  C    0.075102
    30  C    0.029915
    31  C   -0.017755
    32  C   -0.121386
    33  C   -0.084037
    34  C    0.104256
    35  C    0.069991
    36  C   -0.078905
    37  C    0.141849
    38  C    0.036488
    39  C   -0.204584
    40  C    0.179880
    41  C   -0.016636
    42  C    0.074144
    43  C    0.025847
    44  H    0.060136
    45  H   -0.015428
    46  H    0.007746
    47  H    0.175900
    48  H    0.155350
    49  H   -0.016388
    50  H   -0.017140
    51  H    0.019910
    52  H   -0.018074
    53  H   -0.006755
    54  H    0.062138
    55  H    0.036634
    56  H    0.004860
    57  H   -0.001669
    58  H    0.049011
    59  H    0.060285
    60  H    0.125380
    61  H    0.021368
    62  H    0.004752
    63  H    0.019868
    64  H    0.051509
    65  H    0.045394
    66  H    0.042390
    67  H    0.068564
    68  H    0.095078
    69  H   -0.012370
    70  H    0.040735
    71  H    0.017757
    72  H    0.126333
    73  H   -0.011012
    74  H    0.043251
    75  H    0.032964
    76  H    0.030962
    77  H    0.178968
    78  H   -0.020025
    79  H    0.063194
 Sum of Mulliken charges =  -0.00000

 Dipole moment (field-independent basis, Debye):
    X=              1.7537    Y=              3.1883    Z=             -1.3159  Tot=              3.8694
 Quadrupole moment (field-independent basis, Debye-Ang):
   XX=           -242.6815   YY=           -233.1050   ZZ=           -263.4705
   XY=             -0.0802   XZ=            -23.8201   YZ=            -12.6507

 Normal termination of Gaussian 16 at Sun Jul 28 01:15:28 2019.
