 Gaussian 16, Revision A.03,
 Gaussian 16:  ES64L-G16RevA.03 25-Dec-2016

 --------------------------
 # td=(NStates=1) B3LYP/SVP
 --------------------------

 --
 TD
 --
 Symbolic Z-matrix:
 Charge =  0 Multiplicity = 1

                         Standard orientation:
 ---------------------------------------------------------------------
 Center     Atomic      Atomic             Coordinates (Angstroms)
 Number     Number       Type             X           Y           Z
 ---------------------------------------------------------------------
      1          8           0       -3.303730   -1.680816   -2.747073
      2          8           0        2.937714    3.526225    3.017648
      3          8           0        3.634474    1.810459    4.369237
      4          8           0        7.809518   -1.741663   -0.683157
      5          8           0        6.460926   -3.349852   -1.610959
      6          8           0       -2.595173    1.756271    1.262114
      7          7           0       -0.177900   -2.314760    0.973274
      8          7           0       -2.800896   -1.208435   -0.559358
      9          7           0        1.152060   -0.011833   -0.797604
     10          7           0       -0.982047    1.481440   -0.251859
     11          6           0       -3.424493   -1.283243    0.700581
     12          6           0       -2.551435   -2.246735    1.677782
     13          6           0       -1.152473   -1.929035    1.825689
     14          6           0       -0.580070   -1.020152    2.781510
     15          6           0        0.787922   -0.986181    2.552353
     16          6           0        1.006910   -1.804282    1.350583
     17          6           0       -4.786037   -1.815965    0.452854
     18          6           0        1.859340   -0.144680    3.265509
     19          6           0       -4.920418   -2.124718   -0.886601
     20          6           0        2.158934   -1.830498    0.369940
     21          6           0        2.175084   -0.927077   -0.608651
     22          6           0       -3.529996   -1.689317   -1.512433
     23          6           0        3.084691   -0.717139   -1.668764
     24          6           0       -1.420425   -0.131975    3.763947
     25          6           0       -5.853968   -2.173921    1.484610
     26          6           0        2.602756    0.286241   -2.558067
     27          6           0        1.769733    1.389755    2.818496
     28          6           0        1.397891    0.852711   -1.936606
     29          6           0        4.323642   -1.638415   -1.917624
     30          6           0       -5.929649   -2.688969   -1.737438
     31          6           0        5.478504   -1.351607   -0.981275
     32          6           0        3.199269    0.717717   -3.857529
     33          6           0        0.536021    1.971154   -2.167981
     34          6           0        2.887606    2.238565    3.511762
     35          6           0       -0.575089    2.252398   -1.412489
     36          6           0       -6.975902   -3.398100   -1.267377
     37          6           0        6.641261   -2.265203   -1.133412
     38          6           0       -1.269892    3.472605   -1.390595
     39          6           0       -2.279550    3.381258   -0.446056
     40          6           0       -1.988441    2.154620    0.304630
     41          6           0       -1.146205    4.397344   -2.597611
     42          6           0       -3.253687    4.450728   -0.075772
     43          6           0       -1.919012    5.480292   -2.847823
     44          1           0       -3.589528   -0.325772    1.129069
     45          1           0       -2.811585   -3.203632    1.199084
     46          1           0       -2.934882   -2.127969    2.586059
     47          1           0       -0.379796   -2.540440    0.042799
     48          1           0       -2.210462   -0.521715   -0.935538
     49          1           0        1.897646   -0.105556    4.544552
     50          1           0        2.852149   -0.682780    2.983954
     51          1           0        2.904474   -2.597295    0.447133
     52          1           0       -2.207287   -0.735517    4.305514
     53          1           0       -0.747470    0.221746    4.583431
     54          1           0       -1.742872    0.776159    3.180976
     55          1           0       -5.982776   -1.521564    2.306996
     56          1           0       -5.737790   -3.239380    1.615051
     57          1           0       -6.901023   -2.031071    1.161248
     58          1           0        1.940436    1.567079    1.621186
     59          1           0        0.767770    1.863887    3.286590
     60          1           0        0.471857    0.180517   -0.075297
     61          1           0        4.864892   -1.577889   -2.821229
     62          1           0        3.834732   -2.882109   -1.881414
     63          1           0       -5.991158   -2.409377   -2.901172
     64          1           0        5.248818   -1.434584    0.041870
     65          1           0        5.709563   -0.369883   -1.021203
     66          1           0        4.058766    0.107528   -4.288360
     67          1           0        3.661459    1.782105   -3.910965
     68          1           0        2.347767    0.732916   -4.650262
     69          1           0        0.747209    2.679226   -2.918259
     70          1           0       -7.361147   -3.274690   -0.225661
     71          1           0       -7.822499   -3.664676   -2.100318
     72          1           0        3.519693    4.092167    3.477437
     73          1           0       -0.149362    4.061508   -3.205337
     74          1           0       -4.069931    4.357539   -0.816352
     75          1           0       -3.595402    4.244259    0.934135
     76          1           0       -2.728505    5.495156   -0.372912
     77          1           0        8.613222   -2.382385   -0.917800
     78          1           0       -1.724689    5.980883   -3.746927
     79          1           0       -2.757574    6.026674   -2.208583
 ---------------------------------------------------------------------

 SCF Done:  E(RB3LYP) =  -1947.83504752     A.U. after   20 cycles

 Excitation energies and oscillator strengths:

 Excited State   1:      Singlet-A      0.7413 eV 1672.42 nm  f=0.0007  <S**2>=0.000
     155 ->156         0.70393
 This state for optimization and/or second-order correction.
 Total Energy, E(TD-HF/TD-DFT) =  -1947.80780362
 Copying the excited state density for this state as the 1-particle RhoCI density.

 The electronic state is 1-A.
 Alpha  occ. eigenvalues --  -19.20325 -19.17445 -19.13782 -19.12564 -19.10672
 Alpha  occ. eigenvalues --  -19.06891 -14.37522 -14.37131 -14.33320 -14.28980
 Alpha  occ. eigenvalues --  -10.33152 -10.32068 -10.28692 -10.26049 -10.25615
 Alpha  occ. eigenvalues --  -10.25178 -10.24389 -10.24351 -10.24054 -10.23716
 Alpha  occ. eigenvalues --  -10.23310 -10.23044 -10.22809 -10.22628 -10.21871
 Alpha  occ. eigenvalues --  -10.21684 -10.21593 -10.21494 -10.20994 -10.20675
 Alpha  occ. eigenvalues --  -10.20648 -10.20576 -10.20388 -10.20296 -10.19830
 Alpha  occ. eigenvalues --  -10.19334 -10.19075 -10.18619 -10.18341 -10.18326
 Alpha  occ. eigenvalues --  -10.18235 -10.18202 -10.17303  -1.10084  -1.08302
 Alpha  occ. eigenvalues --   -1.03326  -1.02186  -1.00299  -1.00213  -0.99039
 Alpha  occ. eigenvalues --   -0.97972  -0.92797  -0.92329  -0.83607  -0.83025
 Alpha  occ. eigenvalues --   -0.80808  -0.80399  -0.79896  -0.79206  -0.78913
 Alpha  occ. eigenvalues --   -0.77370  -0.75435  -0.74874  -0.74157  -0.73185
 Alpha  occ. eigenvalues --   -0.71179  -0.70336  -0.69369  -0.69074  -0.67461
 Alpha  occ. eigenvalues --   -0.66657  -0.66314  -0.63865  -0.61415  -0.60653
 Alpha  occ. eigenvalues --   -0.59753  -0.59484  -0.58722  -0.58038  -0.57302
 Alpha  occ. eigenvalues --   -0.56487  -0.55973  -0.55031  -0.53088  -0.53015
 Alpha  occ. eigenvalues --   -0.52645  -0.52274  -0.51697  -0.50411  -0.49436
 Alpha  occ. eigenvalues --   -0.48954  -0.48835  -0.48477  -0.47725  -0.47546
 Alpha  occ. eigenvalues --   -0.46819  -0.46452  -0.46030  -0.45924  -0.45864
 Alpha  occ. eigenvalues --   -0.45048  -0.44685  -0.44457  -0.44249  -0.44036
 Alpha  occ. eigenvalues --   -0.43578  -0.43300  -0.42778  -0.42706  -0.42238
 Alpha  occ. eigenvalues --   -0.41955  -0.41586  -0.41060  -0.40712  -0.40511
 Alpha  occ. eigenvalues --   -0.40379  -0.40246  -0.39968  -0.39780  -0.39507
 Alpha  occ. eigenvalues --   -0.39143  -0.38899  -0.38585  -0.38376  -0.38268
 Alpha  occ. eigenvalues --   -0.37638  -0.37118  -0.36870  -0.36647  -0.36367
 Alpha  occ. eigenvalues --   -0.35327  -0.35055  -0.35022  -0.34881  -0.34766
 Alpha  occ. eigenvalues --   -0.34019  -0.33954  -0.32574  -0.32266  -0.31941
 Alpha  occ. eigenvalues --   -0.31658  -0.29448  -0.29047  -0.28727  -0.27636
 Alpha  occ. eigenvalues --   -0.27382  -0.27127  -0.25034  -0.24683  -0.23694
 Alpha  occ. eigenvalues --   -0.23583  -0.22458  -0.22230  -0.22042  -0.18821
 Alpha virt. eigenvalues --   -0.13546  -0.07935  -0.03943  -0.02118  -0.00419
 Alpha virt. eigenvalues --    0.00443   0.01132   0.01401   0.02165   0.02737
 Alpha virt. eigenvalues --    0.02759   0.03729   0.04180   0.04884   0.05601

 Mulliken charges:
               1
     1  O   -0.293916
     2  O   -0.194032
     3  O   -0.222454
     4  O   -0.233156
     5  O   -0.208283
     6  O   -0.199100
     7  N    0.028270
     8  N   -0.063041
     9  N   -0.134671
    10  N   -0.311200
    11  C    0.112844
    12  C    0.288607
    13  C   -0.130276
    14  C   -0.126420
    15  C   -0.053593
    16  C   -0.085494
    17  C   -0.201859
    18  C   -0.004705
    19  C   -0.044030
    20  C   -0.102561
    21  C    0.168831
    22  C    0.058080
    23  C   -0.061997
    24  C    0.059366
    25  C    0.107900
    26  C   -0.067920
    27  C   -0.077254
    28  C    0.163076
    29  C    0.034149
    30  C   -0.049621
    31  C    0.092768
    32  C    0.004216
    33  C   -0.063251
    34  C    0.145552
    35  C    0.113388
    36  C   -0.090082
    37  C    0.120668
    38  C   -0.017266
    39  C   -0.185000
    40  C    0.116864
    41  C   -0.027303
    42  C    0.078296
    43  C   -0.052652
    44  H    0.022293
    45  H   -0.021737
    46  H   -0.061968
    47  H    0.106063
    48  H    0.115641
    49  H    0.054286
    50  H    0.019828
    51  H    0.010698
    52  H    0.018485
    53  H   -0.004239
    54  H    0.072848
    55  H    0.000796
    56  H    0.040760
    57  H    0.018500
    58  H    0.068037
    59  H    0.077872
    60  H    0.171531
    61  H   -0.001874
    62  H    0.071970
    63  H    0.053751
    64  H    0.017949
    65  H   -0.015655
    66  H    0.036659
    67  H    0.047291
    68  H    0.052589
    69  H   -0.049962
    70  H    0.020711
    71  H    0.029753
    72  H    0.162486
    73  H    0.043177
    74  H    0.036990
    75  H    0.037021
    76  H    0.058731
    77  H    0.227444
    78  H    0.010885
    79  H    0.058657
 Sum of Mulliken charges =  -0.00000

 Dipole moment (field-independent basis, Debye):
    X=              4.9635    Y=              4.2352    Z=             -1.4598  Tot=              6.6861
 Quadrupole moment (field-independent basis, Debye-Ang):
   XX=           -222.7988   YY=           -244.2881   ZZ=           -263.8617
   XY=             -4.8458   XZ=            -29.8003   YZ=            -15.3145

 Normal termination of Gaussian 16 at Sat Jul 27 20:42:13 2019.
