 Gaussian 16, Revision A.03,
 Gaussian 16:  ES64L-G16RevA.03 25-Dec-2016

 --------------------------
 # td=(NStates=1) B3LYP/SVP
 --------------------------

 --
 TD
 --
 Symbolic Z-matrix:
 Charge =  0 Multiplicity = 1

                         Standard orientation:
 ---------------------------------------------------------------------
 Center     Atomic      Atomic             Coordinates (Angstroms)
 Number     Number       Type             X           Y           Z
 ---------------------------------------------------------------------
      1          8           0       -3.110805   -1.311612   -2.900726
      2          8           0        2.807964    3.073601    3.327118
      3          8           0        3.880332    1.100781    4.105904
      4          8           0        7.706398   -1.383371   -0.837637
      5          8           0        6.550941   -2.786199   -1.986177
      6          8           0       -2.675237    1.409913    1.480432
      7          7           0       -0.241240   -2.499727    0.703711
      8          7           0       -2.592878   -1.068702   -0.576190
      9          7           0        1.136795    0.084452   -0.748915
     10          7           0       -0.936399    1.445543   -0.005104
     11          6           0       -3.310790   -1.420936    0.689496
     12          6           0       -2.541494   -2.520707    1.535590
     13          6           0       -1.146256   -2.203937    1.707027
     14          6           0       -0.519414   -1.417542    2.713013
     15          6           0        0.839872   -1.351855    2.316627
     16          6           0        0.974627   -2.052439    1.142918
     17          6           0       -4.662175   -1.851306    0.147017
     18          6           0        1.881489   -0.614515    3.105107
     19          6           0       -4.722219   -1.897609   -1.220907
     20          6           0        2.056928   -1.988499    0.104498
     21          6           0        2.087982   -0.919705   -0.825920
     22          6           0       -3.381667   -1.406704   -1.715891
     23          6           0        3.001680   -0.519113   -1.855878
     24          6           0       -1.134806   -0.784309    3.834530
     25          6           0       -5.780765   -2.207931    1.090300
     26          6           0        2.485958    0.626472   -2.511567
     27          6           0        1.792308    0.898852    2.903347
     28          6           0        1.396593    1.053502   -1.785101
     29          6           0        4.261252   -1.302769   -2.174490
     30          6           0       -5.689322   -2.277406   -2.165241
     31          6           0        5.384465   -1.015803   -1.103123
     32          6           0        3.043406    1.435473   -3.674782
     33          6           0        0.488140    2.132574   -1.904778
     34          6           0        2.920921    1.693631    3.484721
     35          6           0       -0.645168    2.388273   -1.019395
     36          6           0       -6.779308   -3.111914   -1.922846
     37          6           0        6.618532   -1.741446   -1.350132
     38          6           0       -1.456975    3.563999   -0.889297
     39          6           0       -2.381819    3.328503    0.106803
     40          6           0       -2.099977    1.975625    0.605389
     41          6           0       -1.261831    4.754051   -1.819786
     42          6           0       -3.506272    4.285749    0.627351
     43          6           0       -2.120100    5.760822   -2.051603
     44          1           0       -3.371050   -0.572695    1.033442
     45          1           0       -2.675114   -3.621927    1.170876
     46          1           0       -3.045363   -2.337478    2.380803
     47          1           0       -0.493188   -2.870324   -0.188805
     48          1           0       -1.964870   -0.212099   -0.547695
     49          1           0        1.758045   -0.705239    4.238547
     50          1           0        2.970598   -1.060349    2.768576
     51          1           0        2.893337   -2.533323   -0.064177
     52          1           0       -1.950181   -1.269688    4.521214
     53          1           0       -0.471371   -0.525393    4.588385
     54          1           0       -1.751472   -0.019485    3.565535
     55          1           0       -5.611580   -1.702354    2.094573
     56          1           0       -5.829284   -3.375467    1.178534
     57          1           0       -6.833317   -2.079501    0.708062
     58          1           0        1.782693    0.995296    1.866584
     59          1           0        0.737561    1.272370    3.159434
     60          1           0        0.107708    0.093720   -0.495680
     61          1           0        4.592537   -1.013427   -3.323339
     62          1           0        3.941012   -2.399230   -2.298190
     63          1           0       -5.554627   -2.092457   -3.184754
     64          1           0        4.927950   -1.408548   -0.031339
     65          1           0        5.677933    0.117457   -0.928590
     66          1           0        4.053374    1.149927   -4.167336
     67          1           0        3.004645    2.614538   -3.162186
     68          1           0        2.283084    1.618039   -4.319209
     69          1           0        0.631938    2.972172   -2.644139
     70          1           0       -6.983498   -3.719347   -1.007396
     71          1           0       -7.512732   -3.521926   -2.666998
     72          1           0        3.624397    3.342611    3.864491
     73          1           0       -0.374963    4.686441   -2.645523
     74          1           0       -4.461484    4.266646   -0.138150
     75          1           0       -3.800925    3.784701    1.614492
     76          1           0       -3.270991    5.279330    0.772024
     77          1           0        8.555891   -1.844352   -1.242303
     78          1           0       -1.768772    6.528007   -2.822447
     79          1           0       -3.221403    5.860988   -1.511149
 ---------------------------------------------------------------------

 SCF Done:  E(RB3LYP) =  -1947.80753405     A.U. after   17 cycles

 Excitation energies and oscillator strengths:

 Excited State   1:      Singlet-A      0.9501 eV 1305.02 nm  f=0.0017  <S**2>=0.000
     155 ->156         0.70272
 This state for optimization and/or second-order correction.
 Total Energy, E(TD-HF/TD-DFT) =  -1947.77262011
 Copying the excited state density for this state as the 1-particle RhoCI density.

 The electronic state is 1-A.
 Alpha  occ. eigenvalues --  -19.20271 -19.19083 -19.12497 -19.12494 -19.10757
 Alpha  occ. eigenvalues --  -19.08337 -14.36519 -14.35899 -14.31863 -14.30804
 Alpha  occ. eigenvalues --  -10.32404 -10.31757 -10.28096 -10.26421 -10.26053
 Alpha  occ. eigenvalues --  -10.25568 -10.24968 -10.24001 -10.23781 -10.23195
 Alpha  occ. eigenvalues --  -10.22979 -10.22958 -10.22831 -10.22539 -10.22444
 Alpha  occ. eigenvalues --  -10.22384 -10.22001 -10.21882 -10.21467 -10.21211
 Alpha  occ. eigenvalues --  -10.20440 -10.20351 -10.20233 -10.19824 -10.19771
 Alpha  occ. eigenvalues --  -10.19179 -10.19134 -10.18977 -10.18840 -10.17982
 Alpha  occ. eigenvalues --  -10.17099 -10.16656 -10.16450  -1.13010  -1.07012
 Alpha  occ. eigenvalues --   -1.05153  -0.99926  -0.99659  -0.98017  -0.97383
 Alpha  occ. eigenvalues --   -0.96814  -0.92540  -0.90319  -0.82701  -0.82097
 Alpha  occ. eigenvalues --   -0.80785  -0.80471  -0.79841  -0.78721  -0.77971
 Alpha  occ. eigenvalues --   -0.76365  -0.76142  -0.75209  -0.73976  -0.73058
 Alpha  occ. eigenvalues --   -0.71300  -0.70695  -0.69410  -0.68919  -0.67681
 Alpha  occ. eigenvalues --   -0.66574  -0.65985  -0.63589  -0.62612  -0.61042
 Alpha  occ. eigenvalues --   -0.59872  -0.58443  -0.57910  -0.56408  -0.56159
 Alpha  occ. eigenvalues --   -0.55732  -0.54651  -0.54117  -0.53604  -0.52622
 Alpha  occ. eigenvalues --   -0.52087  -0.51470  -0.51054  -0.49875  -0.49414
 Alpha  occ. eigenvalues --   -0.49074  -0.48924  -0.48419  -0.47953  -0.47862
 Alpha  occ. eigenvalues --   -0.47517  -0.46940  -0.46203  -0.45483  -0.45330
 Alpha  occ. eigenvalues --   -0.45127  -0.44623  -0.44474  -0.44241  -0.43600
 Alpha  occ. eigenvalues --   -0.43270  -0.42941  -0.42701  -0.41968  -0.41671
 Alpha  occ. eigenvalues --   -0.41535  -0.41433  -0.41401  -0.40974  -0.40723
 Alpha  occ. eigenvalues --   -0.40537  -0.40203  -0.40086  -0.39787  -0.39276
 Alpha  occ. eigenvalues --   -0.38930  -0.38703  -0.38524  -0.37984  -0.37931
 Alpha  occ. eigenvalues --   -0.37693  -0.37094  -0.37037  -0.36615  -0.36480
 Alpha  occ. eigenvalues --   -0.36029  -0.35942  -0.35433  -0.35256  -0.35077
 Alpha  occ. eigenvalues --   -0.33994  -0.33382  -0.31742  -0.31669  -0.31360
 Alpha  occ. eigenvalues --   -0.31201  -0.29862  -0.29610  -0.28951  -0.27420
 Alpha  occ. eigenvalues --   -0.27153  -0.26472  -0.26050  -0.24346  -0.23980
 Alpha  occ. eigenvalues --   -0.23411  -0.22769  -0.22053  -0.21785  -0.19272
 Alpha virt. eigenvalues --   -0.13274  -0.08353  -0.04581  -0.02124  -0.01356
 Alpha virt. eigenvalues --   -0.00932   0.01183   0.01474   0.01803   0.02430
 Alpha virt. eigenvalues --    0.03243   0.04072   0.04276   0.04571   0.05042

 Mulliken charges:
               1
     1  O   -0.232873
     2  O   -0.215805
     3  O   -0.297766
     4  O   -0.132894
     5  O   -0.272727
     6  O   -0.170173
     7  N   -0.057839
     8  N   -0.346430
     9  N   -0.150813
    10  N   -0.387201
    11  C    0.276822
    12  C    0.289884
    13  C   -0.125391
    14  C   -0.061951
    15  C   -0.059630
    16  C    0.048047
    17  C   -0.213458
    18  C    0.028863
    19  C    0.015155
    20  C   -0.001850
    21  C    0.046344
    22  C    0.155028
    23  C   -0.085908
    24  C    0.124274
    25  C    0.033670
    26  C   -0.089667
    27  C    0.022698
    28  C    0.128837
    29  C    0.029600
    30  C    0.017020
    31  C   -0.056700
    32  C    0.088910
    33  C   -0.073898
    34  C    0.193812
    35  C    0.060020
    36  C   -0.095913
    37  C    0.090119
    38  C    0.074990
    39  C   -0.192589
    40  C    0.164021
    41  C   -0.050831
    42  C    0.052979
    43  C   -0.082612
    44  H   -0.105083
    45  H    0.010073
    46  H   -0.065601
    47  H    0.114450
    48  H    0.175479
    49  H    0.020025
    50  H    0.025867
    51  H   -0.056030
    52  H   -0.006863
    53  H   -0.023268
    54  H   -0.004327
    55  H    0.034999
    56  H    0.040700
    57  H    0.033215
    58  H    0.014098
    59  H    0.054525
    60  H    0.199683
    61  H    0.037202
    62  H    0.062854
    63  H   -0.011590
    64  H    0.084163
    65  H    0.050686
    66  H    0.060595
    67  H    0.036804
    68  H    0.002390
    69  H   -0.019356
    70  H    0.012331
    71  H    0.025463
    72  H    0.196290
    73  H    0.040437
    74  H    0.059126
    75  H    0.043834
    76  H    0.022543
    77  H    0.239606
    78  H    0.045907
    79  H    0.062598
 Sum of Mulliken charges =  -0.00000

 Dipole moment (field-independent basis, Debye):
    X=              2.8369    Y=              4.0149    Z=             -1.4579  Tot=              5.1276
 Quadrupole moment (field-independent basis, Debye-Ang):
   XX=           -224.9800   YY=           -236.7391   ZZ=           -263.6528
   XY=              6.6745   XZ=            -25.5764   YZ=            -11.5631

 Normal termination of Gaussian 16 at Fri Jul 26 04:09:07 2019.
