 Gaussian 16, Revision A.03,
 Gaussian 16:  ES64L-G16RevA.03 25-Dec-2016

 --------------------------
 # td=(NStates=1) B3LYP/SVP
 --------------------------

 --
 TD
 --
 Symbolic Z-matrix:
 Charge =  0 Multiplicity = 1

                         Standard orientation:
 ---------------------------------------------------------------------
 Center     Atomic      Atomic             Coordinates (Angstroms)
 Number     Number       Type             X           Y           Z
 ---------------------------------------------------------------------
      1          8           0        5.214005   -0.171515   -3.378171
      2          8           0       -2.509404   -3.323649    3.338769
      3          8           0       -3.103286   -1.125549    3.032375
      4          8           0       -2.326443    7.299092    1.299237
      5          8           0       -1.177914    7.107169   -0.615773
      6          8           0       -1.568262   -4.016984   -0.191891
      7          7           0        2.333334    1.028124    0.642654
      8          7           0        4.344788   -0.678520   -1.223447
      9          7           0       -1.892233    0.688304   -0.251724
     10          7           0       -2.528094   -1.957009   -0.579508
     11          6           0        4.880006   -1.035107   -0.027239
     12          6           0        4.486027   -0.012131    1.255424
     13          6           0        3.019187    0.184582    1.374035
     14          6           0        2.201848   -0.450768    2.247669
     15          6           0        0.822991   -0.001441    1.948202
     16          6           0        0.987902    0.939990    0.812663
     17          6           0        6.341924   -1.091842   -0.309172
     18          6           0       -0.590177   -0.310595    2.483235
     19          6           0        6.587252   -0.699731   -1.499991
     20          6           0        0.138529    1.965407    0.276108
     21          6           0       -1.236781    1.896353   -0.161440
     22          6           0        5.371162   -0.356451   -2.156488
     23          6           0       -2.097743    2.967942   -0.777951
     24          6           0        2.530644   -1.452535    3.291473
     25          6           0        7.390972   -1.512970    0.787928
     26          6           0       -3.237472    2.248522   -1.168189
     27          6           0       -0.845284   -1.814555    2.484641
     28          6           0       -3.112612    0.828380   -0.879137
     29          6           0       -1.655555    4.394321   -0.883846
     30          6           0        7.847080   -0.581330   -2.079718
     31          6           0       -2.123378    5.161088    0.442789
     32          6           0       -4.441251    2.718265   -1.897914
     33          6           0       -3.903322   -0.225860   -1.338119
     34          6           0       -2.256645   -1.983631    3.003758
     35          6           0       -3.693051   -1.535939   -1.031192
     36          6           0        9.110757   -0.400663   -1.649120
     37          6           0       -1.801503    6.536390    0.280330
     38          6           0       -4.553488   -2.765432   -1.289568
     39          6           0       -3.787150   -3.849314   -0.958610
     40          6           0       -2.493447   -3.282843   -0.577881
     41          6           0       -5.960421   -2.712577   -1.947292
     42          6           0       -4.013290   -5.284027   -1.256504
     43          6           0       -6.617025   -3.768884   -2.522970
     44          1           0        4.371687   -2.111438    0.321971
     45          1           0        4.881272    0.924285    1.069852
     46          1           0        4.914754   -0.600349    2.280518
     47          1           0        2.687582    1.499066   -0.244745
     48          1           0        3.213530   -0.536881   -1.571603
     49          1           0       -0.739010    0.062556    3.450090
     50          1           0       -1.506550    0.321210    2.004858
     51          1           0        0.536574    2.936363   -0.012670
     52          1           0        3.548698   -1.432571    3.834584
     53          1           0        1.654099   -1.464029    4.141440
     54          1           0        2.444513   -2.477536    2.865289
     55          1           0        6.670660   -2.042520    1.587641
     56          1           0        7.699304   -0.438841    1.384479
     57          1           0        8.396491   -2.119079    0.596619
     58          1           0       -0.718745   -2.186680    1.599401
     59          1           0       -0.367176   -2.358052    3.299652
     60          1           0       -1.595318   -0.360701   -0.280867
     61          1           0       -2.474012    4.819576   -1.574823
     62          1           0       -0.811707    4.700103   -1.290878
     63          1           0        7.765825   -0.548351   -3.190874
     64          1           0       -1.574588    4.662762    1.364774
     65          1           0       -3.192243    4.996467    0.509272
     66          1           0       -4.436265    4.047177   -1.923895
     67          1           0       -5.494264    2.560900   -1.174335
     68          1           0       -4.762052    2.200138   -2.819079
     69          1           0       -4.800418   -0.132615   -1.852564
     70          1           0        9.357866   -0.207249   -0.566483
     71          1           0       10.056888   -0.400184   -2.375641
     72          1           0       -3.504725   -3.607778    3.416952
     73          1           0       -6.194628   -1.597526   -1.994472
     74          1           0       -5.010097   -5.584831   -1.051322
     75          1           0       -3.766878   -5.451539   -2.580909
     76          1           0       -3.167900   -5.909641   -0.651620
     77          1           0       -2.100466    8.310826    1.164333
     78          1           0       -7.641419   -3.587869   -2.792569
     79          1           0       -6.155526   -4.875665   -2.590031
 ---------------------------------------------------------------------

 SCF Done:  E(RB3LYP) =  -1947.76184923     A.U. after   19 cycles

 Excitation energies and oscillator strengths:

 Excited State   1:      Singlet-A      2.0959 eV  591.55 nm  f=0.4853  <S**2>=0.000
     154 ->156         0.12979
     155 ->156         0.69438
     155 <-156        -0.12609
 This state for optimization and/or second-order correction.
 Total Energy, E(TD-HF/TD-DFT) =  -1947.68482566
 Copying the excited state density for this state as the 1-particle RhoCI density.

 The electronic state is 1-A.
 Alpha  occ. eigenvalues --  -19.18361 -19.16178 -19.13540 -19.11903 -19.10770
 Alpha  occ. eigenvalues --  -19.08892 -14.39613 -14.37170 -14.36846 -14.28396
 Alpha  occ. eigenvalues --  -10.32896 -10.30819 -10.29024 -10.26725 -10.25218
 Alpha  occ. eigenvalues --  -10.25003 -10.24934 -10.24460 -10.23764 -10.23703
 Alpha  occ. eigenvalues --  -10.23414 -10.23267 -10.23145 -10.22980 -10.22908
 Alpha  occ. eigenvalues --  -10.22848 -10.22151 -10.21899 -10.21654 -10.21519
 Alpha  occ. eigenvalues --  -10.21428 -10.21340 -10.21032 -10.20866 -10.20559
 Alpha  occ. eigenvalues --  -10.19998 -10.19914 -10.19819 -10.19422 -10.19204
 Alpha  occ. eigenvalues --  -10.18612 -10.18565 -10.17975  -1.08563  -1.06040
 Alpha  occ. eigenvalues --   -1.02267  -1.01190  -1.00039  -0.99402  -0.98172
 Alpha  occ. eigenvalues --   -0.97961  -0.95889  -0.92848  -0.83855  -0.83313
 Alpha  occ. eigenvalues --   -0.81967  -0.81191  -0.79941  -0.79326  -0.78590
 Alpha  occ. eigenvalues --   -0.77261  -0.76504  -0.75384  -0.74070  -0.72947
 Alpha  occ. eigenvalues --   -0.71582  -0.70560  -0.69393  -0.68137  -0.67830
 Alpha  occ. eigenvalues --   -0.66820  -0.66268  -0.64205  -0.61996  -0.60547
 Alpha  occ. eigenvalues --   -0.59449  -0.58729  -0.58447  -0.58126  -0.57210
 Alpha  occ. eigenvalues --   -0.56958  -0.56645  -0.55462  -0.53579  -0.53298
 Alpha  occ. eigenvalues --   -0.52513  -0.52095  -0.51591  -0.50873  -0.50115
 Alpha  occ. eigenvalues --   -0.49187  -0.48641  -0.48101  -0.47962  -0.47550
 Alpha  occ. eigenvalues --   -0.47163  -0.46785  -0.46406  -0.46098  -0.45075
 Alpha  occ. eigenvalues --   -0.44779  -0.44345  -0.44122  -0.43934  -0.43580
 Alpha  occ. eigenvalues --   -0.43185  -0.42887  -0.42714  -0.42555  -0.42156
 Alpha  occ. eigenvalues --   -0.41835  -0.41273  -0.41096  -0.40989  -0.40578
 Alpha  occ. eigenvalues --   -0.40469  -0.40210  -0.39947  -0.39798  -0.39685
 Alpha  occ. eigenvalues --   -0.39469  -0.39210  -0.38817  -0.38404  -0.38344
 Alpha  occ. eigenvalues --   -0.38133  -0.37965  -0.37728  -0.37130  -0.36614
 Alpha  occ. eigenvalues --   -0.36497  -0.35353  -0.34912  -0.34551  -0.34099
 Alpha  occ. eigenvalues --   -0.33543  -0.33440  -0.32667  -0.32388  -0.32346
 Alpha  occ. eigenvalues --   -0.30869  -0.30404  -0.29033  -0.28609  -0.26961
 Alpha  occ. eigenvalues --   -0.26794  -0.26272  -0.26163  -0.26018  -0.25031
 Alpha  occ. eigenvalues --   -0.24712  -0.24085  -0.23371  -0.22280  -0.19207
 Alpha virt. eigenvalues --   -0.11224  -0.06707  -0.06215  -0.02127  -0.01221
 Alpha virt. eigenvalues --   -0.00492   0.00119   0.00548   0.01203   0.01410
 Alpha virt. eigenvalues --    0.01784   0.03033   0.03410   0.03604   0.03860

 Mulliken charges:
               1
     1  O   -0.241625
     2  O   -0.278810
     3  O   -0.216178
     4  O   -0.250988
     5  O   -0.243522
     6  O   -0.243474
     7  N   -0.023968
     8  N   -0.252942
     9  N   -0.113623
    10  N   -0.227992
    11  C    0.001907
    12  C    0.182395
    13  C   -0.104968
    14  C   -0.104071
    15  C   -0.054880
    16  C    0.040851
    17  C   -0.121301
    18  C    0.025530
    19  C    0.053160
    20  C   -0.060717
    21  C    0.022553
    22  C    0.164084
    23  C   -0.045270
    24  C    0.005685
    25  C   -0.042184
    26  C   -0.088585
    27  C    0.110758
    28  C    0.148434
    29  C    0.103283
    30  C   -0.039635
    31  C   -0.005394
    32  C   -0.055236
    33  C   -0.063513
    34  C    0.145810
    35  C    0.056674
    36  C   -0.090041
    37  C    0.156096
    38  C   -0.006157
    39  C   -0.185349
    40  C    0.110030
    41  C    0.001300
    42  C   -0.016127
    43  C   -0.048966
    44  H    0.047701
    45  H   -0.038173
    46  H    0.039932
    47  H    0.135926
    48  H    0.199749
    49  H   -0.023520
    50  H    0.066261
    51  H   -0.011386
    52  H    0.031536
    53  H    0.040024
    54  H    0.038710
    55  H    0.036817
    56  H    0.058856
    57  H    0.085550
    58  H    0.001706
    59  H    0.021237
    60  H    0.186624
    61  H    0.013495
    62  H   -0.005093
    63  H    0.015346
    64  H    0.080728
    65  H    0.049846
    66  H    0.042680
    67  H    0.042752
    68  H    0.057183
    69  H   -0.073744
    70  H    0.020761
    71  H    0.054815
    72  H    0.215791
    73  H    0.008728
    74  H    0.029985
    75  H    0.054692
    76  H    0.064033
    77  H    0.219933
    78  H    0.024868
    79  H    0.062618
 Sum of Mulliken charges =  -0.00000

 Dipole moment (field-independent basis, Debye):
    X=              0.7587    Y=              3.3341    Z=              3.3673  Tot=              4.7990
 Quadrupole moment (field-independent basis, Debye-Ang):
   XX=           -220.1979   YY=           -251.0790   ZZ=           -267.7875
   XY=             -5.8370   XZ=             29.4710   YZ=              2.0492

 Normal termination of Gaussian 16 at Wed Sep 25 04:20:09 2019.
