 Gaussian 16, Revision A.03,
 Gaussian 16:  ES64L-G16RevA.03 25-Dec-2016

 --------------------------
 # td=(NStates=1) B3LYP/SVP
 --------------------------

 --
 TD
 --
 Symbolic Z-matrix:
 Charge =  0 Multiplicity = 1

                         Standard orientation:
 ---------------------------------------------------------------------
 Center     Atomic      Atomic             Coordinates (Angstroms)
 Number     Number       Type             X           Y           Z
 ---------------------------------------------------------------------
      1          8           0       -3.115231   -1.590549   -2.763776
      2          8           0        2.792346    3.442005    3.024469
      3          8           0        3.713778    1.789281    4.340764
      4          8           0        7.682169   -1.503963   -0.680314
      5          8           0        6.765471   -3.059022   -1.908490
      6          8           0       -2.710439    1.705824    1.459064
      7          7           0       -0.156785   -2.395435    1.106630
      8          7           0       -2.620716   -1.308322   -0.488743
      9          7           0        1.102912   -0.045292   -0.855049
     10          7           0       -0.986530    1.351316   -0.331568
     11          6           0       -3.277527   -1.304309    0.727876
     12          6           0       -2.521654   -2.196220    1.663623
     13          6           0       -1.122938   -1.864237    1.887057
     14          6           0       -0.535596   -0.952714    2.869228
     15          6           0        0.860154   -0.984536    2.594031
     16          6           0        0.964521   -1.859996    1.423982
     17          6           0       -4.682170   -1.966296    0.408262
     18          6           0        1.908588   -0.169407    3.226211
     19          6           0       -4.769526   -2.159245   -0.916569
     20          6           0        2.164810   -1.816077    0.463602
     21          6           0        2.092011   -0.936237   -0.593201
     22          6           0       -3.413859   -1.636056   -1.608808
     23          6           0        2.985364   -0.824235   -1.807276
     24          6           0       -1.254710   -0.100109    3.913121
     25          6           0       -5.780637   -2.070456    1.369489
     26          6           0        2.527950    0.322824   -2.474003
     27          6           0        1.816717    1.252607    2.770187
     28          6           0        1.320144    0.802460   -1.911310
     29          6           0        4.283741   -1.594489   -1.939471
     30          6           0       -5.773892   -2.609709   -1.785913
     31          6           0        5.487784   -1.105288   -1.128923
     32          6           0        3.133253    0.977359   -3.671206
     33          6           0        0.418091    1.815880   -2.144747
     34          6           0        2.888912    2.141896    3.466296
     35          6           0       -0.687926    2.169726   -1.359553
     36          6           0       -6.937498   -3.272552   -1.423880
     37          6           0        6.606274   -2.037211   -1.267222
     38          6           0       -1.479482    3.350591   -1.467794
     39          6           0       -2.336415    3.214932   -0.406789
     40          6           0       -1.980176    1.997002    0.405463
     41          6           0       -1.417540    4.334833   -2.563075
     42          6           0       -3.480583    4.171480   -0.117080
     43          6           0       -2.078384    5.438897   -2.748770
     44          1           0       -3.243661   -0.459478    1.241341
     45          1           0       -2.677902   -3.215630    1.373540
     46          1           0       -2.969940   -2.196053    2.772214
     47          1           0       -0.285708   -2.757542    0.169416
     48          1           0       -1.776016   -0.599145   -0.501646
     49          1           0        1.998919   -0.210546    4.528308
     50          1           0        2.904282   -0.500154    2.931048
     51          1           0        2.893232   -2.549427    0.579606
     52          1           0       -2.081776   -0.596825    4.471845
     53          1           0       -0.443792    0.207798    4.495326
     54          1           0       -1.818321    0.822371    3.625060
     55          1           0       -5.704022   -1.213146    2.133397
     56          1           0       -5.843692   -2.976980    2.021260
     57          1           0       -6.833051   -2.075396    0.706334
     58          1           0        1.899759    1.474859    1.728304
     59          1           0        0.903531    1.727154    3.148254
     60          1           0        0.368444    0.357455   -0.225318
     61          1           0        4.371718   -1.617167   -3.069301
     62          1           0        4.154262   -2.716455   -2.054801
     63          1           0       -5.587550   -2.306786   -2.859660
     64          1           0        5.159998   -0.978922   -0.037485
     65          1           0        5.638242   -0.055405   -1.453807
     66          1           0        3.814847    0.363904   -4.404499
     67          1           0        3.711176    1.998445   -3.448189
     68          1           0        2.136519    1.394546   -4.306176
     69          1           0        0.892429    2.296361   -3.012888
     70          1           0       -7.066576   -3.504100   -0.376707
     71          1           0       -7.718649   -3.605052   -2.322178
     72          1           0        3.584633    3.944184    3.544221
     73          1           0       -0.784123    4.174555   -3.434497
     74          1           0       -4.196795    4.209925   -0.989977
     75          1           0       -4.196198    3.731107    0.702752
     76          1           0       -3.075574    5.158925    0.295397
     77          1           0        8.429751   -2.156989   -0.931617
     78          1           0       -1.597648    5.950673   -3.640043
     79          1           0       -2.924492    5.807807   -2.308490
 ---------------------------------------------------------------------

 SCF Done:  E(RB3LYP) =  -1947.84392147     A.U. after   17 cycles

 Excitation energies and oscillator strengths:

 Excited State   1:      Singlet-A      0.6402 eV 1936.55 nm  f=0.0029  <S**2>=0.000
     155 ->156         0.70574
 This state for optimization and/or second-order correction.
 Total Energy, E(TD-HF/TD-DFT) =  -1947.82039330
 Copying the excited state density for this state as the 1-particle RhoCI density.

 The electronic state is 1-A.
 Alpha  occ. eigenvalues --  -19.19193 -19.18888 -19.14226 -19.13004 -19.12759
 Alpha  occ. eigenvalues --  -19.09686 -14.37700 -14.36797 -14.32822 -14.32319
 Alpha  occ. eigenvalues --  -10.33553 -10.32142 -10.29662 -10.27520 -10.26484
 Alpha  occ. eigenvalues --  -10.26219 -10.25857 -10.24389 -10.23917 -10.23775
 Alpha  occ. eigenvalues --  -10.23449 -10.23009 -10.22684 -10.21737 -10.21448
 Alpha  occ. eigenvalues --  -10.21270 -10.21232 -10.21020 -10.20831 -10.20488
 Alpha  occ. eigenvalues --  -10.20281 -10.20249 -10.19892 -10.19887 -10.19782
 Alpha  occ. eigenvalues --  -10.19725 -10.19637 -10.18987 -10.18132 -10.18121
 Alpha  occ. eigenvalues --  -10.17831 -10.17729 -10.17229  -1.11523  -1.07157
 Alpha  occ. eigenvalues --   -1.02174  -1.00940  -1.00846  -0.99897  -0.99534
 Alpha  occ. eigenvalues --   -0.98226  -0.94638  -0.92639  -0.83988  -0.83270
 Alpha  occ. eigenvalues --   -0.82318  -0.81037  -0.80522  -0.80092  -0.78701
 Alpha  occ. eigenvalues --   -0.77142  -0.76571  -0.75914  -0.74050  -0.73055
 Alpha  occ. eigenvalues --   -0.71440  -0.70011  -0.69436  -0.68557  -0.67972
 Alpha  occ. eigenvalues --   -0.67004  -0.66234  -0.63345  -0.61020  -0.60791
 Alpha  occ. eigenvalues --   -0.60229  -0.59546  -0.58250  -0.58055  -0.56388
 Alpha  occ. eigenvalues --   -0.56317  -0.56133  -0.55054  -0.54248  -0.53716
 Alpha  occ. eigenvalues --   -0.52847  -0.52010  -0.51034  -0.50699  -0.50167
 Alpha  occ. eigenvalues --   -0.49915  -0.49653  -0.49240  -0.48290  -0.48055
 Alpha  occ. eigenvalues --   -0.47436  -0.47276  -0.47059  -0.46663  -0.45609
 Alpha  occ. eigenvalues --   -0.45167  -0.44822  -0.44285  -0.43936  -0.43632
 Alpha  occ. eigenvalues --   -0.43346  -0.43127  -0.42591  -0.42492  -0.42248
 Alpha  occ. eigenvalues --   -0.41839  -0.41555  -0.41297  -0.41283  -0.41018
 Alpha  occ. eigenvalues --   -0.40722  -0.40650  -0.40414  -0.40019  -0.39757
 Alpha  occ. eigenvalues --   -0.39109  -0.38946  -0.38794  -0.38305  -0.37667
 Alpha  occ. eigenvalues --   -0.37634  -0.37588  -0.37017  -0.36920  -0.36763
 Alpha  occ. eigenvalues --   -0.36540  -0.35661  -0.35224  -0.34787  -0.33789
 Alpha  occ. eigenvalues --   -0.33445  -0.33107  -0.32614  -0.32191  -0.31828
 Alpha  occ. eigenvalues --   -0.31499  -0.30481  -0.30258  -0.30075  -0.29710
 Alpha  occ. eigenvalues --   -0.27841  -0.27429  -0.25976  -0.25172  -0.24502
 Alpha  occ. eigenvalues --   -0.24068  -0.23295  -0.23110  -0.22162  -0.18536
 Alpha virt. eigenvalues --   -0.13748  -0.08231  -0.04117  -0.02379  -0.01839
 Alpha virt. eigenvalues --   -0.00192   0.01771   0.02020   0.02640   0.02744
 Alpha virt. eigenvalues --    0.02950   0.03753   0.04294   0.04346   0.04548

 Mulliken charges:
               1
     1  O   -0.195377
     2  O   -0.249364
     3  O   -0.266830
     4  O   -0.197212
     5  O   -0.232251
     6  O   -0.281990
     7  N    0.084469
     8  N   -0.268067
     9  N   -0.091459
    10  N   -0.341630
    11  C    0.180501
    12  C    0.153463
    13  C   -0.165330
    14  C   -0.085978
    15  C   -0.078680
    16  C   -0.111751
    17  C   -0.108485
    18  C    0.041033
    19  C   -0.072023
    20  C   -0.074433
    21  C    0.118805
    22  C    0.169625
    23  C   -0.087240
    24  C    0.094571
    25  C   -0.010179
    26  C   -0.049091
    27  C    0.026292
    28  C    0.009913
    29  C    0.035541
    30  C   -0.041872
    31  C    0.033750
    32  C   -0.069119
    33  C   -0.037939
    34  C    0.146102
    35  C    0.159582
    36  C   -0.064180
    37  C    0.151129
    38  C    0.122750
    39  C   -0.203039
    40  C    0.255540
    41  C   -0.018898
    42  C    0.021679
    43  C   -0.012225
    44  H   -0.047258
    45  H   -0.045851
    46  H   -0.000937
    47  H    0.123526
    48  H    0.170860
    49  H    0.056179
    50  H   -0.013671
    51  H   -0.003025
    52  H    0.001211
    53  H   -0.012665
    54  H    0.039143
    55  H    0.036681
    56  H    0.036911
    57  H    0.049719
    58  H    0.022422
    59  H    0.040750
    60  H    0.190940
    61  H    0.007483
    62  H    0.029489
    63  H    0.018806
    64  H    0.064376
    65  H    0.056995
    66  H    0.061677
    67  H    0.058168
    68  H    0.052752
    69  H   -0.037620
    70  H    0.017832
    71  H    0.054217
    72  H    0.221284
    73  H   -0.005966
    74  H    0.047717
    75  H    0.038508
    76  H    0.056178
    77  H    0.202393
    78  H    0.030524
    79  H   -0.009848
 Sum of Mulliken charges =  -0.00000

 Dipole moment (field-independent basis, Debye):
    X=              3.8744    Y=              3.6101    Z=             -2.3619  Tot=              5.7985
 Quadrupole moment (field-independent basis, Debye-Ang):
   XX=           -240.5516   YY=           -241.9620   ZZ=           -267.2596
   XY=              1.8584   XZ=            -20.5528   YZ=            -14.5392

 Normal termination of Gaussian 16 at Sat Jul 27 08:03:06 2019.
