 Gaussian 16, Revision A.03,
 Gaussian 16:  ES64L-G16RevA.03 25-Dec-2016

 --------------------------
 # td=(NStates=1) B3LYP/SVP
 --------------------------

 --
 TD
 --
 Symbolic Z-matrix:
 Charge =  0 Multiplicity = 1

                         Standard orientation:
 ---------------------------------------------------------------------
 Center     Atomic      Atomic             Coordinates (Angstroms)
 Number     Number       Type             X           Y           Z
 ---------------------------------------------------------------------
      1          8           0       -3.339315   -1.344510   -2.879874
      2          8           0        3.204058    3.009875    3.400122
      3          8           0        3.995106    1.104676    4.324069
      4          8           0        7.747659   -1.254181   -1.036883
      5          8           0        6.755683   -2.814199   -2.289656
      6          8           0       -2.748557    1.616983    1.437906
      7          7           0       -0.290122   -2.381620    0.878067
      8          7           0       -2.614007   -1.209287   -0.755453
      9          7           0        1.172459    0.059581   -0.552133
     10          7           0       -0.965218    1.531084   -0.023291
     11          6           0       -3.295452   -1.252202    0.598892
     12          6           0       -2.707740   -2.380603    1.570150
     13          6           0       -1.211541   -2.031635    1.792844
     14          6           0       -0.564383   -1.230150    2.736173
     15          6           0        0.776216   -1.235248    2.450197
     16          6           0        0.889332   -1.916419    1.177481
     17          6           0       -4.763967   -1.853783    0.226503
     18          6           0        1.861711   -0.530606    3.237584
     19          6           0       -4.832656   -1.906695   -1.166525
     20          6           0        2.146900   -1.913193    0.338330
     21          6           0        2.167993   -0.854645   -0.580049
     22          6           0       -3.533406   -1.534465   -1.717104
     23          6           0        2.997569   -0.572202   -1.677629
     24          6           0       -1.309135   -0.616261    3.760803
     25          6           0       -5.668120   -2.159779    1.246520
     26          6           0        2.483016    0.543429   -2.405192
     27          6           0        1.899587    1.008462    2.882141
     28          6           0        1.272514    0.837204   -1.682982
     29          6           0        4.207346   -1.443649   -2.096573
     30          6           0       -5.854781   -2.330589   -1.977137
     31          6           0        5.476911   -1.032912   -1.324649
     32          6           0        3.065506    1.108807   -3.695586
     33          6           0        0.507057    1.936893   -1.838359
     34          6           0        3.098282    1.661214    3.623064
     35          6           0       -0.634084    2.263749   -1.031762
     36          6           0       -6.960466   -3.146418   -1.706867
     37          6           0        6.727067   -1.846479   -1.623690
     38          6           0       -1.451174    3.481446   -1.123915
     39          6           0       -2.409580    3.437358   -0.184369
     40          6           0       -2.133115    2.167019    0.478634
     41          6           0       -1.340991    4.544861   -2.152093
     42          6           0       -3.566131    4.232335    0.302133
     43          6           0       -2.057601    5.718891   -2.350229
     44          1           0       -3.342298   -0.363597    1.240114
     45          1           0       -2.756737   -3.200827    1.059947
     46          1           0       -3.208468   -2.459267    2.515757
     47          1           0       -0.544805   -2.600112   -0.165782
     48          1           0       -1.839749   -0.527821   -0.937446
     49          1           0        1.476122   -0.956174    4.241400
     50          1           0        2.898988   -1.012757    3.170717
     51          1           0        2.901779   -2.714424    0.707898
     52          1           0       -1.865887   -1.339080    4.429789
     53          1           0       -0.712923   -0.261427    4.515090
     54          1           0       -1.813612    0.250143    3.494401
     55          1           0       -5.325813   -1.721466    2.375264
     56          1           0       -5.884026   -3.379559    1.384553
     57          1           0       -6.629015   -1.910799    1.093959
     58          1           0        2.118901    1.248570    1.802335
     59          1           0        1.096583    1.515312    3.184105
     60          1           0        0.417341    0.119051    0.106709
     61          1           0        4.633602   -1.207583   -3.075497
     62          1           0        4.159336   -2.337778   -1.980896
     63          1           0       -5.946999   -1.878945   -3.098365
     64          1           0        5.251008   -1.212875   -0.166773
     65          1           0        5.631008   -0.022211   -1.386135
     66          1           0        3.641680    0.388390   -4.217534
     67          1           0        3.491138    2.065115   -3.289913
     68          1           0        2.186557    1.124942   -4.530781
     69          1           0        0.844864    2.525350   -2.644320
     70          1           0       -7.140666   -3.759108   -0.792912
     71          1           0       -7.610332   -3.419460   -2.528025
     72          1           0        4.035188    3.374539    3.822165
     73          1           0       -0.583375    4.153277   -2.968594
     74          1           0       -4.051675    4.624759   -0.616084
     75          1           0       -4.154319    3.810069    1.146277
     76          1           0       -3.219902    5.073432    0.923802
     77          1           0        8.557634   -1.834290   -1.202838
     78          1           0       -1.914498    6.257650   -3.138708
     79          1           0       -2.531583    6.119106   -1.469889
 ---------------------------------------------------------------------

 SCF Done:  E(RB3LYP) =  -1947.78613360     A.U. after   17 cycles

 Excitation energies and oscillator strengths:

 Excited State   1:      Singlet-A      1.0112 eV 1226.12 nm  f=0.0132  <S**2>=0.000
     155 ->156         0.70163
 This state for optimization and/or second-order correction.
 Total Energy, E(TD-HF/TD-DFT) =  -1947.74897290
 Copying the excited state density for this state as the 1-particle RhoCI density.

 The electronic state is 1-A.
 Alpha  occ. eigenvalues --  -19.19771 -19.17718 -19.13714 -19.12174 -19.11760
 Alpha  occ. eigenvalues --  -19.07807 -14.37123 -14.36823 -14.33952 -14.30801
 Alpha  occ. eigenvalues --  -10.32565 -10.31959 -10.28048 -10.26189 -10.25262
 Alpha  occ. eigenvalues --  -10.24921 -10.24692 -10.22953 -10.22882 -10.22811
 Alpha  occ. eigenvalues --  -10.22724 -10.22622 -10.22498 -10.21799 -10.21233
 Alpha  occ. eigenvalues --  -10.21025 -10.20961 -10.20948 -10.20758 -10.20440
 Alpha  occ. eigenvalues --  -10.20048 -10.20045 -10.19964 -10.19778 -10.19601
 Alpha  occ. eigenvalues --  -10.19526 -10.19030 -10.18773 -10.18335 -10.18199
 Alpha  occ. eigenvalues --  -10.16542 -10.15377 -10.15340  -1.12076  -1.07097
 Alpha  occ. eigenvalues --   -1.03314  -1.02085  -1.01657  -1.00481  -0.98456
 Alpha  occ. eigenvalues --   -0.96932  -0.94752  -0.90579  -0.83536  -0.82871
 Alpha  occ. eigenvalues --   -0.81856  -0.81438  -0.80470  -0.78937  -0.78287
 Alpha  occ. eigenvalues --   -0.76822  -0.76463  -0.75507  -0.74137  -0.73023
 Alpha  occ. eigenvalues --   -0.71783  -0.70813  -0.70050  -0.69853  -0.68180
 Alpha  occ. eigenvalues --   -0.66817  -0.65744  -0.63007  -0.61500  -0.60586
 Alpha  occ. eigenvalues --   -0.60034  -0.59473  -0.59119  -0.58356  -0.57946
 Alpha  occ. eigenvalues --   -0.56035  -0.55521  -0.54832  -0.53837  -0.53781
 Alpha  occ. eigenvalues --   -0.52535  -0.51869  -0.51351  -0.50122  -0.49546
 Alpha  occ. eigenvalues --   -0.49407  -0.49011  -0.48555  -0.48437  -0.47772
 Alpha  occ. eigenvalues --   -0.47454  -0.47267  -0.47082  -0.46613  -0.46194
 Alpha  occ. eigenvalues --   -0.45993  -0.45595  -0.45108  -0.44642  -0.44251
 Alpha  occ. eigenvalues --   -0.43694  -0.43512  -0.43059  -0.42491  -0.42315
 Alpha  occ. eigenvalues --   -0.42036  -0.41961  -0.41672  -0.41250  -0.40630
 Alpha  occ. eigenvalues --   -0.40503  -0.40425  -0.40225  -0.39814  -0.39541
 Alpha  occ. eigenvalues --   -0.39458  -0.39180  -0.38880  -0.38843  -0.38521
 Alpha  occ. eigenvalues --   -0.38266  -0.37841  -0.37544  -0.36746  -0.36381
 Alpha  occ. eigenvalues --   -0.36335  -0.35290  -0.35205  -0.34931  -0.34677
 Alpha  occ. eigenvalues --   -0.34237  -0.32924  -0.32383  -0.31600  -0.31521
 Alpha  occ. eigenvalues --   -0.30699  -0.29646  -0.29499  -0.29455  -0.29023
 Alpha  occ. eigenvalues --   -0.27013  -0.26705  -0.26076  -0.25181  -0.24369
 Alpha  occ. eigenvalues --   -0.23859  -0.23136  -0.21809  -0.21485  -0.18353
 Alpha virt. eigenvalues --   -0.12415  -0.07812  -0.05236  -0.02054  -0.00181
 Alpha virt. eigenvalues --    0.00456   0.01604   0.02690   0.02823   0.03339
 Alpha virt. eigenvalues --    0.04249   0.04393   0.04762   0.05080   0.05921

 Mulliken charges:
               1
     1  O   -0.209762
     2  O   -0.220645
     3  O   -0.282261
     4  O   -0.172018
     5  O   -0.187070
     6  O   -0.237908
     7  N    0.014011
     8  N   -0.224835
     9  N   -0.063020
    10  N   -0.253044
    11  C    0.011427
    12  C    0.353819
    13  C   -0.182511
    14  C   -0.126576
    15  C   -0.111681
    16  C   -0.179609
    17  C   -0.097676
    18  C    0.053246
    19  C    0.038040
    20  C   -0.116994
    21  C    0.132462
    22  C    0.111428
    23  C   -0.105943
    24  C    0.190265
    25  C    0.030473
    26  C   -0.150853
    27  C    0.095405
    28  C    0.102690
    29  C    0.318723
    30  C   -0.101682
    31  C   -0.088335
    32  C    0.086298
    33  C   -0.097064
    34  C    0.138394
    35  C    0.121685
    36  C   -0.069760
    37  C    0.120817
    38  C    0.015803
    39  C   -0.175347
    40  C    0.146993
    41  C   -0.074929
    42  C    0.113888
    43  C    0.074239
    44  H    0.065836
    45  H   -0.098735
    46  H   -0.010489
    47  H    0.152163
    48  H    0.150447
    49  H    0.039229
    50  H    0.015489
    51  H    0.056686
    52  H    0.001675
    53  H   -0.071671
    54  H    0.007318
    55  H    0.051386
    56  H    0.049928
    57  H   -0.003578
    58  H    0.055804
    59  H    0.002108
    60  H    0.175455
    61  H   -0.003334
    62  H   -0.095166
    63  H    0.044761
    64  H    0.049935
    65  H    0.002273
    66  H    0.019013
    67  H    0.067470
    68  H    0.051400
    69  H   -0.058363
    70  H    0.012135
    71  H    0.020562
    72  H    0.198377
    73  H    0.016196
    74  H    0.042730
    75  H    0.030633
    76  H    0.023082
    77  H    0.195512
    78  H   -0.020673
    79  H    0.023821
 Sum of Mulliken charges =  -0.00000

 Dipole moment (field-independent basis, Debye):
    X=              2.8365    Y=              3.3052    Z=             -0.7121  Tot=              4.4133
 Quadrupole moment (field-independent basis, Debye-Ang):
   XX=           -232.0896   YY=           -235.5616   ZZ=           -266.5818
   XY=              4.2239   XZ=            -24.5685   YZ=            -12.3714

 Normal termination of Gaussian 16 at Wed Jul 31 06:28:34 2019.
