 Gaussian 16, Revision A.03,
 Gaussian 16:  ES64L-G16RevA.03 25-Dec-2016

 --------------------------
 # td=(NStates=1) B3LYP/SVP
 --------------------------

 --
 TD
 --
 Symbolic Z-matrix:
 Charge =  0 Multiplicity = 1

                         Standard orientation:
 ---------------------------------------------------------------------
 Center     Atomic      Atomic             Coordinates (Angstroms)
 Number     Number       Type             X           Y           Z
 ---------------------------------------------------------------------
      1          8           0        5.622379    0.179441   -3.257556
      2          8           0       -2.980196   -3.246271    3.464377
      3          8           0       -3.279414   -0.966558    3.163197
      4          8           0       -1.336651    7.031691    1.912835
      5          8           0       -0.815518    7.172243   -0.375726
      6          8           0       -2.064933   -4.022626   -0.045724
      7          7           0        2.404376    0.895487    0.625611
      8          7           0        4.545557   -0.398648   -1.385987
      9          7           0       -1.823456    0.781262   -0.343697
     10          7           0       -2.769645   -1.811176   -0.533501
     11          6           0        4.807311   -1.196142   -0.145693
     12          6           0        4.369829   -0.578592    1.234611
     13          6           0        2.928981   -0.206538    1.362377
     14          6           0        1.879585   -0.865606    2.024445
     15          6           0        0.634821   -0.179490    1.746940
     16          6           0        0.976661    0.834439    0.893285
     17          6           0        6.327708   -1.395089   -0.204514
     18          6           0       -0.682736   -0.444734    2.387590
     19          6           0        6.766557   -0.838279   -1.364328
     20          6           0        0.200525    1.888460    0.203520
     21          6           0       -1.044592    1.904314   -0.223866
     22          6           0        5.536842   -0.195499   -2.116490
     23          6           0       -1.793908    3.034330   -0.842028
     24          6           0        2.197272   -2.086578    2.907754
     25          6           0        7.029295   -2.172604    0.809289
     26          6           0       -3.035431    2.544072   -1.248464
     27          6           0       -1.128107   -1.887576    2.622464
     28          6           0       -3.014251    1.099146   -0.992376
     29          6           0       -1.250873    4.420302   -0.769232
     30          6           0        8.059924   -0.815477   -1.970881
     31          6           0       -1.552715    5.037746    0.700816
     32          6           0       -4.121868    3.083945   -2.045674
     33          6           0       -3.935808    0.104423   -1.472345
     34          6           0       -2.575536   -1.876806    3.090812
     35          6           0       -3.844332   -1.283547   -1.120983
     36          6           0        9.242588   -0.949601   -1.499642
     37          6           0       -1.180754    6.524805    0.670867
     38          6           0       -4.788419   -2.347734   -1.606981
     39          6           0       -4.305826   -3.552676   -1.190820
     40          6           0       -2.915427   -3.152966   -0.467462
     41          6           0       -5.988997   -2.127752   -2.413869
     42          6           0       -4.692595   -4.935268   -1.409570
     43          6           0       -6.905693   -3.023181   -2.699192
     44          1           0        4.470093   -2.240658   -0.236769
     45          1           0        4.948721    0.594914    1.394331
     46          1           0        4.696163   -1.393949    2.082013
     47          1           0        2.845104    1.341183   -0.232751
     48          1           0        3.596067   -0.472955   -1.814423
     49          1           0       -0.701858   -0.035270    3.489038
     50          1           0       -1.412406    0.138145    1.925476
     51          1           0        0.843308    2.773514   -0.222972
     52          1           0        3.432258   -1.976923    3.132311
     53          1           0        1.689503   -2.031061    3.657343
     54          1           0        1.990636   -3.124431    2.341351
     55          1           0        6.317490   -2.883598    1.247805
     56          1           0        7.376208   -1.599863    1.644519
     57          1           0        8.062311   -2.753604    0.467897
     58          1           0       -1.273619   -2.378034    1.616347
     59          1           0       -0.409313   -2.612487    3.359845
     60          1           0       -1.403397   -0.148103   -0.008970
     61          1           0       -1.767223    5.203723   -1.283242
     62          1           0        0.065499    4.539583   -0.905635
     63          1           0        7.939838   -0.590343   -2.896385
     64          1           0       -0.887524    4.480007    1.608444
     65          1           0       -2.582704    4.686404    0.990765
     66          1           0       -4.126357    4.195362   -2.106954
     67          1           0       -5.202924    2.707139   -1.666218
     68          1           0       -4.188933    2.655758   -3.148991
     69          1           0       -4.904297    0.293548   -1.936073
     70          1           0        9.300155   -1.385818   -0.382738
     71          1           0       10.183507   -0.826010   -2.058586
     72          1           0       -3.819270   -3.158239    3.956554
     73          1           0       -5.989154   -0.993899   -2.629500
     74          1           0       -5.755841   -5.140045   -0.809296
     75          1           0       -4.861173   -5.132557   -2.516304
     76          1           0       -3.743412   -5.499656   -1.099314
     77          1           0       -0.946625    7.938248    1.915161
     78          1           0       -7.804798   -2.618790   -3.185113
     79          1           0       -6.839354   -4.188574   -2.219338
 ---------------------------------------------------------------------

 SCF Done:  E(RB3LYP) =  -1947.77680869     A.U. after   18 cycles

 Excitation energies and oscillator strengths:

 Excited State   1:      Singlet-A      2.2126 eV  560.35 nm  f=0.4177  <S**2>=0.000
     154 ->156         0.18959
     155 ->156         0.67245
     155 <-156        -0.10260
 This state for optimization and/or second-order correction.
 Total Energy, E(TD-HF/TD-DFT) =  -1947.69549612
 Copying the excited state density for this state as the 1-particle RhoCI density.

 The electronic state is 1-A.
 Alpha  occ. eigenvalues --  -19.20965 -19.14659 -19.14651 -19.13610 -19.10097
 Alpha  occ. eigenvalues --  -19.09593 -14.38942 -14.38124 -14.37626 -14.29141
 Alpha  occ. eigenvalues --  -10.34796 -10.31182 -10.28117 -10.26641 -10.26625
 Alpha  occ. eigenvalues --  -10.26605 -10.25422 -10.24425 -10.24266 -10.24063
 Alpha  occ. eigenvalues --  -10.23983 -10.23838 -10.23500 -10.23147 -10.22590
 Alpha  occ. eigenvalues --  -10.22352 -10.22329 -10.21729 -10.21626 -10.21082
 Alpha  occ. eigenvalues --  -10.20787 -10.20708 -10.20348 -10.20334 -10.20143
 Alpha  occ. eigenvalues --  -10.20038 -10.19996 -10.19924 -10.19495 -10.19336
 Alpha  occ. eigenvalues --  -10.19298 -10.18963 -10.17146  -1.10385  -1.08755
 Alpha  occ. eigenvalues --   -1.04446  -0.99828  -0.98834  -0.98380  -0.97897
 Alpha  occ. eigenvalues --   -0.96627  -0.95981  -0.91585  -0.83497  -0.83136
 Alpha  occ. eigenvalues --   -0.82493  -0.81754  -0.80440  -0.80044  -0.78203
 Alpha  occ. eigenvalues --   -0.77472  -0.76589  -0.75654  -0.74407  -0.73203
 Alpha  occ. eigenvalues --   -0.72103  -0.71662  -0.69881  -0.69082  -0.68544
 Alpha  occ. eigenvalues --   -0.66945  -0.66079  -0.63620  -0.62162  -0.60587
 Alpha  occ. eigenvalues --   -0.59583  -0.58723  -0.58362  -0.57956  -0.56911
 Alpha  occ. eigenvalues --   -0.56310  -0.55584  -0.55050  -0.54626  -0.52664
 Alpha  occ. eigenvalues --   -0.51748  -0.51125  -0.50889  -0.50521  -0.50180
 Alpha  occ. eigenvalues --   -0.49584  -0.49251  -0.48907  -0.48164  -0.47514
 Alpha  occ. eigenvalues --   -0.47223  -0.46920  -0.46676  -0.45814  -0.45438
 Alpha  occ. eigenvalues --   -0.44926  -0.44631  -0.44335  -0.44056  -0.43496
 Alpha  occ. eigenvalues --   -0.43414  -0.43230  -0.43002  -0.42775  -0.42674
 Alpha  occ. eigenvalues --   -0.42459  -0.41815  -0.41502  -0.41368  -0.41131
 Alpha  occ. eigenvalues --   -0.40904  -0.40510  -0.40263  -0.40221  -0.40076
 Alpha  occ. eigenvalues --   -0.39402  -0.39232  -0.39019  -0.38995  -0.38294
 Alpha  occ. eigenvalues --   -0.38138  -0.37939  -0.37673  -0.37397  -0.37153
 Alpha  occ. eigenvalues --   -0.36351  -0.36149  -0.35270  -0.34861  -0.34028
 Alpha  occ. eigenvalues --   -0.33393  -0.33322  -0.33233  -0.32495  -0.31748
 Alpha  occ. eigenvalues --   -0.31379  -0.30703  -0.29778  -0.28906  -0.28291
 Alpha  occ. eigenvalues --   -0.28056  -0.26866  -0.26403  -0.25751  -0.25216
 Alpha  occ. eigenvalues --   -0.24344  -0.23876  -0.23386  -0.22235  -0.19844
 Alpha virt. eigenvalues --   -0.11163  -0.06382  -0.04691  -0.03676  -0.01162
 Alpha virt. eigenvalues --   -0.00370   0.00995   0.01306   0.01614   0.01953
 Alpha virt. eigenvalues --    0.02219   0.03492   0.03614   0.03782   0.04316

 Mulliken charges:
               1
     1  O   -0.220498
     2  O   -0.285271
     3  O   -0.146375
     4  O   -0.171617
     5  O   -0.283854
     6  O   -0.284396
     7  N   -0.187518
     8  N   -0.089565
     9  N   -0.111843
    10  N   -0.227657
    11  C    0.102487
    12  C    0.022588
    13  C    0.004888
    14  C   -0.167387
    15  C   -0.047491
    16  C    0.059792
    17  C   -0.168449
    18  C    0.078528
    19  C   -0.082550
    20  C   -0.096628
    21  C    0.076459
    22  C    0.075104
    23  C   -0.032435
    24  C    0.139089
    25  C    0.065098
    26  C   -0.082221
    27  C   -0.071581
    28  C    0.154213
    29  C    0.016061
    30  C    0.081956
    31  C   -0.117766
    32  C    0.013049
    33  C   -0.100391
    34  C    0.142280
    35  C    0.063689
    36  C   -0.036928
    37  C    0.216335
    38  C   -0.003853
    39  C   -0.204849
    40  C    0.168222
    41  C    0.012181
    42  C   -0.000537
    43  C   -0.066353
    44  H    0.037940
    45  H    0.044729
    46  H    0.034457
    47  H    0.151360
    48  H    0.143696
    49  H    0.026783
    50  H   -0.017458
    51  H    0.009816
    52  H    0.022875
    53  H   -0.055732
    54  H    0.061347
    55  H    0.012034
    56  H    0.029315
    57  H    0.061833
    58  H    0.080294
    59  H    0.072995
    60  H    0.185037
    61  H    0.024223
    62  H    0.064599
    63  H   -0.080979
    64  H    0.070970
    65  H    0.068953
    66  H    0.029629
    67  H    0.042295
    68  H    0.054890
    69  H   -0.023852
    70  H    0.011682
    71  H    0.029503
    72  H    0.171759
    73  H   -0.007381
    74  H    0.064414
    75  H    0.045198
    76  H    0.054025
    77  H    0.195767
    78  H    0.022826
    79  H    0.056158
 Sum of Mulliken charges =  -0.00000

 Dipole moment (field-independent basis, Debye):
    X=              0.2490    Y=              3.2441    Z=              4.0657  Tot=              5.2073
 Quadrupole moment (field-independent basis, Debye-Ang):
   XX=           -238.7872   YY=           -253.8964   ZZ=           -261.7740
   XY=            -18.4796   XZ=             28.7910   YZ=              9.1049

 Normal termination of Gaussian 16 at Thu Sep 26 14:15:05 2019.
