 Gaussian 16, Revision A.03,
 Gaussian 16:  ES64L-G16RevA.03 25-Dec-2016

 --------------------------
 # td=(NStates=1) B3LYP/SVP
 --------------------------

 --
 TD
 --
 Symbolic Z-matrix:
 Charge =  0 Multiplicity = 1

                         Standard orientation:
 ---------------------------------------------------------------------
 Center     Atomic      Atomic             Coordinates (Angstroms)
 Number     Number       Type             X           Y           Z
 ---------------------------------------------------------------------
      1          8           0        5.521936   -0.161563   -3.246649
      2          8           0       -3.226251   -2.750950    3.222785
      3          8           0       -3.589769   -0.590162    2.458035
      4          8           0       -1.415682    7.213509    1.461598
      5          8           0       -0.096083    6.954609   -0.367442
      6          8           0       -1.752550   -3.894602    0.006069
      7          7           0        2.406986    0.972191    0.689087
      8          7           0        4.460792   -0.834860   -1.343936
      9          7           0       -1.801745    0.726378   -0.568187
     10          7           0       -2.605511   -1.868476   -0.516660
     11          6           0        4.734899   -1.239359   -0.046005
     12          6           0        4.361831   -0.447809    1.146094
     13          6           0        2.961993   -0.053823    1.377718
     14          6           0        1.916011   -0.765288    2.104355
     15          6           0        0.650708   -0.013649    1.662730
     16          6           0        0.970418    0.951278    0.774301
     17          6           0        6.250130   -1.490292   -0.088422
     18          6           0       -0.617935   -0.123045    2.534970
     19          6           0        6.735101   -1.058543   -1.180845
     20          6           0        0.263492    2.007678    0.074591
     21          6           0       -1.060915    1.807099   -0.381710
     22          6           0        5.545662   -0.505465   -2.111019
     23          6           0       -1.880652    2.996696   -0.958618
     24          6           0        1.932601   -1.948589    3.030035
     25          6           0        6.883527   -2.089531    1.118391
     26          6           0       -3.088192    2.387445   -1.364773
     27          6           0       -1.305100   -1.542278    2.639672
     28          6           0       -3.016955    0.908608   -1.100897
     29          6           0       -1.454319    4.460145   -0.857199
     30          6           0        8.015233   -0.911064   -1.872822
     31          6           0       -1.694095    5.226525    0.400931
     32          6           0       -4.314906    3.055341   -1.895146
     33          6           0       -3.933233    0.004326   -1.379253
     34          6           0       -2.771431   -1.536134    2.772624
     35          6           0       -3.710024   -1.488900   -1.155266
     36          6           0        9.214791   -0.838390   -1.346514
     37          6           0       -1.018162    6.495453    0.390989
     38          6           0       -4.535819   -2.578201   -1.538948
     39          6           0       -3.905036   -3.777754   -1.096337
     40          6           0       -2.687754   -3.238577   -0.480865
     41          6           0       -5.907221   -2.420033   -2.045279
     42          6           0       -4.393766   -5.166176   -0.962119
     43          6           0       -6.874208   -3.339187   -2.202384
     44          1           0        4.379004   -2.328009    0.191957
     45          1           0        4.930044    0.543398    0.889270
     46          1           0        4.792029   -0.758899    2.095101
     47          1           0        2.812550    1.320840   -0.129640
     48          1           0        3.553730   -0.826669   -1.697410
     49          1           0       -0.349837    0.303015    3.614966
     50          1           0       -1.498157    0.466305    2.149077
     51          1           0        0.870716    2.891540    0.174976
     52          1           0        3.000276   -2.249383    3.239044
     53          1           0        1.323081   -1.771227    3.931110
     54          1           0        1.414807   -2.895527    2.603070
     55          1           0        6.378738   -2.952341    1.703027
     56          1           0        6.909137   -1.303248    1.891300
     57          1           0        7.978893   -2.731677    1.043983
     58          1           0       -1.179921   -1.875884    1.393354
     59          1           0       -0.851244   -2.149502    3.330273
     60          1           0       -1.365214   -0.203187   -0.387529
     61          1           0       -2.190537    4.863008   -1.661924
     62          1           0       -0.500387    4.691974   -1.195031
     63          1           0        7.895725   -0.865758   -2.930869
     64          1           0       -1.296563    4.561843    1.246160
     65          1           0       -2.895242    5.422775    0.676409
     66          1           0       -4.240288    4.232550   -1.808300
     67          1           0       -5.157140    2.695303   -1.158661
     68          1           0       -4.464788    2.648135   -2.856160
     69          1           0       -4.958607    0.375876   -1.602675
     70          1           0        9.119784   -0.664059   -0.184222
     71          1           0       10.267181   -0.671253   -1.779684
     72          1           0       -4.029795   -2.781959    3.554092
     73          1           0       -6.268489   -1.467549   -2.339863
     74          1           0       -5.334969   -5.232627   -0.581264
     75          1           0       -4.511492   -5.750588   -2.052406
     76          1           0       -3.537833   -5.621654   -0.448506
     77          1           0       -0.793216    7.981626    1.589120
     78          1           0       -7.735756   -3.117156   -2.612064
     79          1           0       -6.822726   -4.284430   -1.765268
 ---------------------------------------------------------------------

 SCF Done:  E(RB3LYP) =  -1947.82792427     A.U. after   17 cycles

 Excitation energies and oscillator strengths:

 Excited State   1:      Singlet-A      1.7485 eV  709.07 nm  f=0.2903  <S**2>=0.000
     153 ->156         0.10362
     155 ->156         0.70170
     155 <-156        -0.11358
 This state for optimization and/or second-order correction.
 Total Energy, E(TD-HF/TD-DFT) =  -1947.76366668
 Copying the excited state density for this state as the 1-particle RhoCI density.

 The electronic state is 1-A.
 Alpha  occ. eigenvalues --  -19.19024 -19.16299 -19.13216 -19.11346 -19.11150
 Alpha  occ. eigenvalues --  -19.11100 -14.37366 -14.37037 -14.35471 -14.29648
 Alpha  occ. eigenvalues --  -10.33138 -10.31669 -10.28999 -10.26707 -10.24838
 Alpha  occ. eigenvalues --  -10.24681 -10.24544 -10.24530 -10.23125 -10.23044
 Alpha  occ. eigenvalues --  -10.22303 -10.22133 -10.21798 -10.21569 -10.21545
 Alpha  occ. eigenvalues --  -10.21372 -10.21361 -10.21135 -10.20998 -10.20975
 Alpha  occ. eigenvalues --  -10.20904 -10.20389 -10.20279 -10.20269 -10.20104
 Alpha  occ. eigenvalues --  -10.19935 -10.19880 -10.19795 -10.19691 -10.19559
 Alpha  occ. eigenvalues --  -10.19257 -10.19084 -10.18435  -1.09326  -1.07812
 Alpha  occ. eigenvalues --   -1.04890  -1.01654  -0.99880  -0.98238  -0.97514
 Alpha  occ. eigenvalues --   -0.96412  -0.96215  -0.93321  -0.82953  -0.82725
 Alpha  occ. eigenvalues --   -0.81993  -0.81034  -0.80380  -0.79631  -0.78683
 Alpha  occ. eigenvalues --   -0.77292  -0.76551  -0.76076  -0.75108  -0.72541
 Alpha  occ. eigenvalues --   -0.71340  -0.71163  -0.70775  -0.68849  -0.68610
 Alpha  occ. eigenvalues --   -0.67614  -0.66529  -0.64352  -0.61801  -0.61237
 Alpha  occ. eigenvalues --   -0.60531  -0.59999  -0.59683  -0.59086  -0.56579
 Alpha  occ. eigenvalues --   -0.55958  -0.55587  -0.55228  -0.54055  -0.53329
 Alpha  occ. eigenvalues --   -0.52848  -0.51614  -0.50958  -0.50607  -0.49956
 Alpha  occ. eigenvalues --   -0.49547  -0.49084  -0.48311  -0.48163  -0.47854
 Alpha  occ. eigenvalues --   -0.47148  -0.46452  -0.46246  -0.45936  -0.45549
 Alpha  occ. eigenvalues --   -0.45538  -0.45406  -0.45094  -0.44252  -0.44045
 Alpha  occ. eigenvalues --   -0.43724  -0.43569  -0.43398  -0.42653  -0.42488
 Alpha  occ. eigenvalues --   -0.42348  -0.42050  -0.41738  -0.41447  -0.41176
 Alpha  occ. eigenvalues --   -0.40823  -0.40451  -0.40153  -0.39850  -0.39653
 Alpha  occ. eigenvalues --   -0.39493  -0.39176  -0.38592  -0.38487  -0.38334
 Alpha  occ. eigenvalues --   -0.38196  -0.37156  -0.36815  -0.36757  -0.36183
 Alpha  occ. eigenvalues --   -0.35922  -0.35479  -0.34808  -0.34578  -0.33381
 Alpha  occ. eigenvalues --   -0.32949  -0.32662  -0.31999  -0.31976  -0.31201
 Alpha  occ. eigenvalues --   -0.31128  -0.29794  -0.28860  -0.28552  -0.28134
 Alpha  occ. eigenvalues --   -0.27090  -0.26487  -0.26214  -0.25821  -0.25161
 Alpha  occ. eigenvalues --   -0.24976  -0.24719  -0.23026  -0.22509  -0.18795
 Alpha virt. eigenvalues --   -0.11905  -0.06681  -0.04022  -0.02872  -0.01295
 Alpha virt. eigenvalues --   -0.00863   0.00796   0.01765   0.02362   0.02848
 Alpha virt. eigenvalues --    0.03658   0.04638   0.05078   0.05680   0.05790

 Mulliken charges:
               1
     1  O   -0.178573
     2  O   -0.145197
     3  O   -0.299879
     4  O   -0.190790
     5  O   -0.286404
     6  O   -0.212872
     7  N   -0.076758
     8  N   -0.115373
     9  N    0.003406
    10  N   -0.238923
    11  C    0.086025
    12  C    0.136089
    13  C   -0.075140
    14  C   -0.144432
    15  C   -0.101892
    16  C    0.025549
    17  C   -0.151385
    18  C    0.024152
    19  C   -0.064320
    20  C   -0.084140
    21  C    0.073263
    22  C    0.135433
    23  C   -0.099588
    24  C    0.073713
    25  C   -0.025693
    26  C   -0.157536
    27  C   -0.050843
    28  C    0.166580
    29  C    0.100814
    30  C    0.032582
    31  C   -0.041742
    32  C    0.066194
    33  C   -0.136795
    34  C    0.176798
    35  C    0.063539
    36  C   -0.067937
    37  C    0.161920
    38  C    0.056859
    39  C   -0.169731
    40  C    0.124687
    41  C   -0.038472
    42  C    0.081824
    43  C    0.058456
    44  H    0.017911
    45  H   -0.012518
    46  H    0.007291
    47  H    0.093951
    48  H    0.104197
    49  H    0.034126
    50  H    0.027720
    51  H    0.007703
    52  H    0.008938
    53  H    0.021188
    54  H    0.049220
    55  H    0.026630
    56  H    0.041002
    57  H    0.058642
    58  H    0.142261
    59  H   -0.007159
    60  H    0.155942
    61  H    0.018191
    62  H    0.008792
    63  H   -0.004330
    64  H    0.072004
    65  H    0.075172
    66  H    0.042072
    67  H    0.050471
    68  H    0.029776
    69  H   -0.004026
    70  H    0.025872
    71  H    0.049109
    72  H    0.126525
    73  H   -0.025293
    74  H    0.021385
    75  H    0.041545
    76  H    0.041488
    77  H    0.199120
    78  H   -0.022104
    79  H   -0.016283
 Sum of Mulliken charges =  -0.00000

 Dipole moment (field-independent basis, Debye):
    X=             -2.2368    Y=              0.7186    Z=              3.5200  Tot=              4.2320
 Quadrupole moment (field-independent basis, Debye-Ang):
   XX=           -225.0192   YY=           -247.6471   ZZ=           -257.4221
   XY=             -3.8575   XZ=             28.4363   YZ=              4.3775

 Normal termination of Gaussian 16 at Wed Sep 25 12:07:27 2019.
