 Gaussian 16, Revision A.03,
 Gaussian 16:  ES64L-G16RevA.03 25-Dec-2016

 --------------------------
 # td=(NStates=1) B3LYP/SVP
 --------------------------

 --
 TD
 --
 Symbolic Z-matrix:
 Charge =  0 Multiplicity = 1

                         Standard orientation:
 ---------------------------------------------------------------------
 Center     Atomic      Atomic             Coordinates (Angstroms)
 Number     Number       Type             X           Y           Z
 ---------------------------------------------------------------------
      1          8           0       -3.289876   -0.831958   -2.961512
      2          8           0        3.185163    2.469592    3.487851
      3          8           0        3.072775    0.698129    5.161917
      4          8           0        7.762849   -1.158236   -0.986931
      5          8           0        6.619706   -2.901910   -2.074379
      6          8           0       -2.560244    1.522592    1.719192
      7          7           0       -0.278617   -2.565554    0.444783
      8          7           0       -2.659771   -1.112729   -0.717801
      9          7           0        1.191717    0.139341   -0.799684
     10          7           0       -0.990356    1.504325   -0.000757
     11          6           0       -3.394248   -1.433048    0.478544
     12          6           0       -2.618668   -2.623446    1.167727
     13          6           0       -1.166279   -2.287566    1.414474
     14          6           0       -0.544626   -1.758545    2.478129
     15          6           0        0.764954   -1.591785    2.173780
     16          6           0        1.035781   -2.130497    0.861964
     17          6           0       -4.738118   -1.928889    0.017887
     18          6           0        1.776223   -0.980531    3.024207
     19          6           0       -4.779202   -1.768306   -1.313295
     20          6           0        2.142800   -2.031288   -0.068912
     21          6           0        2.148515   -0.907592   -0.923078
     22          6           0       -3.460229   -1.233071   -1.847858
     23          6           0        3.079937   -0.291580   -1.897412
     24          6           0       -1.256937   -1.219078    3.614653
     25          6           0       -5.838335   -2.346741    0.941342
     26          6           0        2.448648    0.891447   -2.510427
     27          6           0        1.968847    0.532401    2.835230
     28          6           0        1.313055    1.177909   -1.724054
     29          6           0        4.266145   -1.058479   -2.357167
     30          6           0       -5.878874   -1.986601   -2.319062
     31          6           0        5.394874   -0.777110   -1.398486
     32          6           0        3.159842    1.767678   -3.526437
     33          6           0        0.473114    2.268638   -1.772451
     34          6           0        2.776780    1.173049    3.962958
     35          6           0       -0.570553    2.374420   -0.862753
     36          6           0       -7.013792   -2.757843   -2.196987
     37          6           0        6.639207   -1.755169   -1.519332
     38          6           0       -1.315623    3.687004   -0.671979
     39          6           0       -2.230106    3.415709    0.336877
     40          6           0       -1.957452    1.999869    0.742658
     41          6           0       -1.142071    4.929707   -1.488214
     42          6           0       -3.269645    4.297776    0.910606
     43          6           0       -1.836742    6.107806   -1.429258
     44          1           0       -3.650867   -0.604914    1.113795
     45          1           0       -2.938556   -3.488918    0.726490
     46          1           0       -3.050294   -2.679450    2.230669
     47          1           0       -0.300918   -3.204718   -0.444540
     48          1           0       -1.842906   -0.469097   -0.688546
     49          1           0        1.570320   -1.149465    4.157633
     50          1           0        2.724723   -1.473434    2.822670
     51          1           0        2.740172   -2.947917   -0.153929
     52          1           0       -1.929425   -1.955421    3.806518
     53          1           0       -0.512835   -0.811236    4.494166
     54          1           0       -1.924935   -0.292177    3.444835
     55          1           0       -5.729575   -1.986914    2.103548
     56          1           0       -5.734806   -3.431076    1.038435
     57          1           0       -6.818325   -2.041814    0.538663
     58          1           0        2.332823    0.681729    1.700103
     59          1           0        1.001351    0.992945    2.924871
     60          1           0        0.249923    0.075190   -0.109292
     61          1           0        4.718835   -0.968277   -3.390989
     62          1           0        3.946755   -2.285389   -2.108863
     63          1           0       -5.687042   -1.453942   -3.277330
     64          1           0        4.868287   -0.853523   -0.385462
     65          1           0        5.879939    0.207293   -1.559991
     66          1           0        3.802091    1.086944   -4.266608
     67          1           0        3.933984    2.561512   -2.985013
     68          1           0        2.351247    2.193094   -4.231427
     69          1           0        0.887881    2.986858   -2.528470
     70          1           0       -7.319993   -3.231667   -1.292980
     71          1           0       -7.845653   -2.839837   -2.983878
     72          1           0        3.683447    2.786662    4.421401
     73          1           0       -0.527120    4.836606   -2.386502
     74          1           0       -3.951863    4.924336    0.143801
     75          1           0       -3.855880    3.641113    1.607072
     76          1           0       -2.603735    5.178313    1.503532
     77          1           0        8.359641   -1.909793   -1.153271
     78          1           0       -1.599072    6.960721   -2.339705
     79          1           0       -2.654733    6.284823   -0.549536
 ---------------------------------------------------------------------

 SCF Done:  E(RB3LYP) =  -1947.82420290     A.U. after   20 cycles

 Excitation energies and oscillator strengths:

 Excited State   1:      Singlet-A      0.9672 eV 1281.83 nm  f=0.0004  <S**2>=0.000
     155 ->156         0.70364
 This state for optimization and/or second-order correction.
 Total Energy, E(TD-HF/TD-DFT) =  -1947.78865724
 Copying the excited state density for this state as the 1-particle RhoCI density.

 The electronic state is 1-A.
 Alpha  occ. eigenvalues --  -19.21044 -19.19277 -19.15187 -19.14049 -19.12123
 Alpha  occ. eigenvalues --  -19.08843 -14.37615 -14.37590 -14.33149 -14.31606
 Alpha  occ. eigenvalues --  -10.34841 -10.33709 -10.28208 -10.27098 -10.26815
 Alpha  occ. eigenvalues --  -10.26702 -10.26018 -10.24570 -10.24503 -10.23949
 Alpha  occ. eigenvalues --  -10.23751 -10.23691 -10.23334 -10.22706 -10.22113
 Alpha  occ. eigenvalues --  -10.21718 -10.21429 -10.21420 -10.21295 -10.21119
 Alpha  occ. eigenvalues --  -10.21060 -10.20757 -10.20456 -10.20446 -10.20042
 Alpha  occ. eigenvalues --  -10.19650 -10.19507 -10.18745 -10.18744 -10.18354
 Alpha  occ. eigenvalues --  -10.17530 -10.17322 -10.15728  -1.10549  -1.04388
 Alpha  occ. eigenvalues --   -1.02928  -1.01931  -1.00339  -0.98092  -0.96551
 Alpha  occ. eigenvalues --   -0.96252  -0.95892  -0.92617  -0.83771  -0.82865
 Alpha  occ. eigenvalues --   -0.81362  -0.80750  -0.80239  -0.79284  -0.78574
 Alpha  occ. eigenvalues --   -0.76824  -0.76136  -0.75093  -0.73795  -0.72511
 Alpha  occ. eigenvalues --   -0.70514  -0.69841  -0.69628  -0.68635  -0.67371
 Alpha  occ. eigenvalues --   -0.66503  -0.65698  -0.63844  -0.60944  -0.59714
 Alpha  occ. eigenvalues --   -0.59386  -0.58978  -0.57199  -0.56281  -0.56049
 Alpha  occ. eigenvalues --   -0.55608  -0.55178  -0.54517  -0.53739  -0.53387
 Alpha  occ. eigenvalues --   -0.52207  -0.51239  -0.50882  -0.50872  -0.49846
 Alpha  occ. eigenvalues --   -0.49507  -0.49082  -0.48389  -0.48029  -0.47248
 Alpha  occ. eigenvalues --   -0.46555  -0.46484  -0.46248  -0.45911  -0.45582
 Alpha  occ. eigenvalues --   -0.45389  -0.45015  -0.44582  -0.44131  -0.43703
 Alpha  occ. eigenvalues --   -0.43090  -0.42605  -0.42465  -0.42369  -0.42170
 Alpha  occ. eigenvalues --   -0.42030  -0.41734  -0.41520  -0.41201  -0.40983
 Alpha  occ. eigenvalues --   -0.40643  -0.40292  -0.40075  -0.39923  -0.39504
 Alpha  occ. eigenvalues --   -0.39301  -0.39212  -0.38810  -0.38234  -0.38033
 Alpha  occ. eigenvalues --   -0.37826  -0.37639  -0.37202  -0.36986  -0.36688
 Alpha  occ. eigenvalues --   -0.36359  -0.35738  -0.35485  -0.34995  -0.34558
 Alpha  occ. eigenvalues --   -0.34149  -0.33767  -0.33080  -0.32160  -0.31426
 Alpha  occ. eigenvalues --   -0.31230  -0.29922  -0.29789  -0.29608  -0.29195
 Alpha  occ. eigenvalues --   -0.28323  -0.26251  -0.25879  -0.25367  -0.24175
 Alpha  occ. eigenvalues --   -0.23544  -0.23485  -0.23106  -0.22775  -0.19917
 Alpha virt. eigenvalues --   -0.13634  -0.08108  -0.03588  -0.03460  -0.03173
 Alpha virt. eigenvalues --   -0.01926   0.00312   0.00870   0.02485   0.02630
 Alpha virt. eigenvalues --    0.02716   0.03768   0.03887   0.04033   0.04701

 Mulliken charges:
               1
     1  O   -0.208476
     2  O   -0.284456
     3  O   -0.308307
     4  O   -0.174041
     5  O   -0.272431
     6  O   -0.229385
     7  N   -0.119281
     8  N   -0.227880
     9  N   -0.242794
    10  N   -0.205646
    11  C    0.093584
    12  C    0.222393
    13  C   -0.087527
    14  C   -0.041544
    15  C   -0.080777
    16  C   -0.069837
    17  C   -0.192253
    18  C    0.047956
    19  C   -0.084031
    20  C   -0.090473
    21  C    0.174310
    22  C    0.149558
    23  C   -0.056499
    24  C    0.045148
    25  C    0.058445
    26  C   -0.121606
    27  C   -0.009919
    28  C    0.135470
    29  C   -0.013850
    30  C    0.001849
    31  C   -0.039877
    32  C   -0.017630
    33  C   -0.132494
    34  C    0.231008
    35  C    0.165450
    36  C   -0.059479
    37  C    0.179848
    38  C    0.024013
    39  C   -0.183550
    40  C    0.148005
    41  C    0.006116
    42  C   -0.026200
    43  C   -0.121054
    44  H    0.035494
    45  H   -0.046903
    46  H   -0.017279
    47  H    0.155191
    48  H    0.142676
    49  H    0.034342
    50  H   -0.009199
    51  H    0.033895
    52  H   -0.016577
    53  H    0.024712
    54  H    0.048853
    55  H    0.035714
    56  H    0.030562
    57  H    0.049171
    58  H    0.067870
    59  H    0.045796
    60  H    0.261211
    61  H    0.038079
    62  H    0.067645
    63  H    0.018878
    64  H    0.066401
    65  H    0.043636
    66  H    0.046040
    67  H    0.082706
    68  H    0.053861
    69  H   -0.000086
    70  H   -0.001142
    71  H    0.034428
    72  H    0.227947
    73  H   -0.004817
    74  H    0.066830
    75  H    0.047841
    76  H    0.060335
    77  H    0.178751
    78  H    0.062512
    79  H    0.052762
 Sum of Mulliken charges =  -0.00000

 Dipole moment (field-independent basis, Debye):
    X=              3.6623    Y=              1.8650    Z=             -1.9653  Tot=              4.5556
 Quadrupole moment (field-independent basis, Debye-Ang):
   XX=           -235.2081   YY=           -239.5383   ZZ=           -275.8873
   XY=              9.9681   XZ=            -23.6436   YZ=             -9.8907

 Normal termination of Gaussian 16 at Sun Jul 28 02:20:09 2019.
