 Gaussian 16, Revision A.03,
 Gaussian 16:  ES64L-G16RevA.03 25-Dec-2016

 --------------------------
 # td=(NStates=1) B3LYP/SVP
 --------------------------

 --
 TD
 --
 Symbolic Z-matrix:
 Charge =  0 Multiplicity = 1

                         Standard orientation:
 ---------------------------------------------------------------------
 Center     Atomic      Atomic             Coordinates (Angstroms)
 Number     Number       Type             X           Y           Z
 ---------------------------------------------------------------------
      1          8           0       -3.166933   -1.696788   -2.674622
      2          8           0        2.637218    3.683054    3.133896
      3          8           0        3.802719    1.755610    4.003972
      4          8           0        7.720284   -1.322474   -0.672372
      5          8           0        6.748460   -3.253576   -1.418667
      6          8           0       -2.457199    1.734430    1.387393
      7          7           0       -0.243423   -2.222399    1.152458
      8          7           0       -2.638446   -1.319686   -0.403433
      9          7           0        1.195943   -0.035956   -0.765723
     10          7           0       -0.901944    1.374785   -0.443806
     11          6           0       -3.437711   -1.237792    0.846700
     12          6           0       -2.679750   -2.086005    1.915927
     13          6           0       -1.245488   -1.752770    2.006364
     14          6           0       -0.577768   -0.947734    2.896314
     15          6           0        0.782681   -0.849138    2.565578
     16          6           0        0.982985   -1.709162    1.366258
     17          6           0       -4.695998   -1.858300    0.436937
     18          6           0        1.806112    0.014981    3.196045
     19          6           0       -4.767024   -2.152471   -0.871578
     20          6           0        2.053132   -1.880884    0.509312
     21          6           0        2.165380   -1.024902   -0.581008
     22          6           0       -3.491071   -1.700678   -1.469522
     23          6           0        3.104617   -0.860891   -1.690973
     24          6           0       -1.264200   -0.020235    3.909012
     25          6           0       -5.707298   -2.033866    1.557253
     26          6           0        2.535940    0.136349   -2.541123
     27          6           0        1.842914    1.514519    2.705422
     28          6           0        1.326739    0.630613   -1.928569
     29          6           0        4.258081   -1.742881   -1.917865
     30          6           0       -5.828849   -2.705908   -1.774871
     31          6           0        5.416505   -1.176230   -1.175601
     32          6           0        3.068039    0.664862   -3.811982
     33          6           0        0.485399    1.809844   -2.341530
     34          6           0        2.868639    2.258126    3.240684
     35          6           0       -0.595436    2.110831   -1.492427
     36          6           0       -6.816369   -3.511526   -1.534182
     37          6           0        6.688363   -2.082224   -1.173412
     38          6           0       -1.442481    3.370773   -1.593978
     39          6           0       -2.293129    3.245742   -0.509903
     40          6           0       -1.934755    2.032931    0.277158
     41          6           0       -1.395127    4.346470   -2.727547
     42          6           0       -3.295568    4.207651   -0.037506
     43          6           0       -2.273825    5.239340   -3.059942
     44          1           0       -3.509007   -0.127945    1.313501
     45          1           0       -2.572729   -3.119486    1.809245
     46          1           0       -3.104138   -1.964910    2.931717
     47          1           0       -0.181435   -2.817187    0.283784
     48          1           0       -1.932170   -0.634198   -0.677862
     49          1           0        1.846056    0.283302    4.320834
     50          1           0        2.928836   -0.401988    3.014168
     51          1           0        2.893666   -2.724437    0.599618
     52          1           0       -1.848887   -0.520698    4.835107
     53          1           0       -0.655291    0.681662    4.467489
     54          1           0       -1.945621    0.618103    3.414864
     55          1           0       -5.618684   -1.265308    2.433931
     56          1           0       -5.617519   -3.036372    2.068030
     57          1           0       -6.823811   -2.025876    1.165185
     58          1           0        1.903568    1.339981    1.641354
     59          1           0        0.818295    1.840099    2.879015
     60          1           0        0.328444    0.330630   -0.322292
     61          1           0        4.411094   -1.789953   -2.960951
     62          1           0        3.974975   -2.893855   -1.504164
     63          1           0       -5.594967   -2.344398   -2.766400
     64          1           0        5.248504   -1.101978   -0.041024
     65          1           0        5.804596   -0.250767   -1.586089
     66          1           0        4.392856    0.447302   -3.868143
     67          1           0        2.805738    1.836685   -3.857240
     68          1           0        2.442189    0.229407   -4.722645
     69          1           0        0.537424    2.254330   -3.287815
     70          1           0       -6.694111   -3.651351   -0.430993
     71          1           0       -7.524948   -3.713251   -2.380880
     72          1           0        3.311597    4.120061    3.658695
     73          1           0       -0.483888    4.181872   -3.295578
     74          1           0       -4.275977    4.321344   -0.709776
     75          1           0       -3.627722    3.987467    1.004360
     76          1           0       -3.059506    5.319126   -0.091430
     77          1           0        8.408773   -2.056094   -0.690048
     78          1           0       -1.964202    5.714416   -4.047821
     79          1           0       -3.045363    5.658404   -2.625693
 ---------------------------------------------------------------------

 SCF Done:  E(RB3LYP) =  -1947.84939341     A.U. after   19 cycles

 Excitation energies and oscillator strengths:

 Excited State   1:      Singlet-A      1.0100 eV 1227.54 nm  f=0.0001  <S**2>=0.000
     155 ->156         0.70348
 This state for optimization and/or second-order correction.
 Total Energy, E(TD-HF/TD-DFT) =  -1947.81227580
 Copying the excited state density for this state as the 1-particle RhoCI density.

 The electronic state is 1-A.
 Alpha  occ. eigenvalues --  -19.19762 -19.17288 -19.14997 -19.12889 -19.12708
 Alpha  occ. eigenvalues --  -19.08666 -14.37686 -14.37110 -14.32832 -14.31424
 Alpha  occ. eigenvalues --  -10.33419 -10.32247 -10.29298 -10.27283 -10.26882
 Alpha  occ. eigenvalues --  -10.26459 -10.25184 -10.25031 -10.24178 -10.23455
 Alpha  occ. eigenvalues --  -10.23329 -10.23079 -10.22882 -10.22748 -10.21541
 Alpha  occ. eigenvalues --  -10.21517 -10.21422 -10.21281 -10.21205 -10.20956
 Alpha  occ. eigenvalues --  -10.20849 -10.20545 -10.20380 -10.19770 -10.19730
 Alpha  occ. eigenvalues --  -10.19300 -10.19008 -10.18856 -10.18379 -10.18213
 Alpha  occ. eigenvalues --  -10.17849 -10.17559 -10.17051  -1.10898  -1.04986
 Alpha  occ. eigenvalues --   -1.02513  -1.01634  -1.00255  -0.99373  -0.97300
 Alpha  occ. eigenvalues --   -0.96763  -0.94149  -0.91500  -0.84720  -0.82859
 Alpha  occ. eigenvalues --   -0.81668  -0.80731  -0.80532  -0.79606  -0.79014
 Alpha  occ. eigenvalues --   -0.77591  -0.76835  -0.76263  -0.75339  -0.73330
 Alpha  occ. eigenvalues --   -0.70795  -0.70257  -0.69409  -0.68835  -0.67918
 Alpha  occ. eigenvalues --   -0.66589  -0.65658  -0.63787  -0.61660  -0.60392
 Alpha  occ. eigenvalues --   -0.59452  -0.58635  -0.57967  -0.56995  -0.56657
 Alpha  occ. eigenvalues --   -0.55788  -0.55202  -0.55187  -0.54429  -0.53328
 Alpha  occ. eigenvalues --   -0.51952  -0.51178  -0.50889  -0.50737  -0.50357
 Alpha  occ. eigenvalues --   -0.50092  -0.49270  -0.48819  -0.48507  -0.47854
 Alpha  occ. eigenvalues --   -0.47668  -0.47325  -0.46487  -0.46162  -0.45992
 Alpha  occ. eigenvalues --   -0.45680  -0.45360  -0.44842  -0.44505  -0.43997
 Alpha  occ. eigenvalues --   -0.43628  -0.43431  -0.43025  -0.42580  -0.42420
 Alpha  occ. eigenvalues --   -0.41963  -0.41405  -0.40841  -0.40561  -0.40438
 Alpha  occ. eigenvalues --   -0.40247  -0.39898  -0.39724  -0.39455  -0.39353
 Alpha  occ. eigenvalues --   -0.39007  -0.38539  -0.38416  -0.38038  -0.37841
 Alpha  occ. eigenvalues --   -0.37552  -0.37391  -0.37162  -0.37049  -0.36765
 Alpha  occ. eigenvalues --   -0.36402  -0.35918  -0.35622  -0.34909  -0.34733
 Alpha  occ. eigenvalues --   -0.34258  -0.33921  -0.32757  -0.32057  -0.31416
 Alpha  occ. eigenvalues --   -0.30661  -0.30468  -0.30101  -0.29884  -0.29278
 Alpha  occ. eigenvalues --   -0.27337  -0.26659  -0.26324  -0.24998  -0.24276
 Alpha  occ. eigenvalues --   -0.24128  -0.23735  -0.23128  -0.22540  -0.19614
 Alpha virt. eigenvalues --   -0.13049  -0.08467  -0.04127  -0.03078  -0.01417
 Alpha virt. eigenvalues --   -0.00942   0.00160   0.01015   0.02465   0.02934
 Alpha virt. eigenvalues --    0.03174   0.04414   0.04550   0.04701   0.04843

 Mulliken charges:
               1
     1  O   -0.266187
     2  O   -0.238922
     3  O   -0.301757
     4  O   -0.207670
     5  O   -0.202929
     6  O   -0.250427
     7  N   -0.060007
     8  N   -0.245415
     9  N   -0.075231
    10  N   -0.339561
    11  C    0.037654
    12  C    0.276947
    13  C   -0.120187
    14  C   -0.066409
    15  C   -0.028295
    16  C    0.004035
    17  C   -0.140828
    18  C   -0.054478
    19  C   -0.040042
    20  C   -0.169506
    21  C    0.123287
    22  C    0.141558
    23  C   -0.059013
    24  C    0.054841
    25  C    0.008795
    26  C   -0.104327
    27  C    0.038952
    28  C    0.066652
    29  C    0.084944
    30  C   -0.013922
    31  C   -0.021178
    32  C   -0.059199
    33  C   -0.060677
    34  C    0.214156
    35  C    0.090816
    36  C    0.005719
    37  C    0.128538
    38  C    0.031588
    39  C   -0.162162
    40  C    0.228340
    41  C    0.031218
    42  C    0.007986
    43  C    0.037898
    44  H    0.099854
    45  H   -0.034057
    46  H   -0.011686
    47  H    0.128804
    48  H    0.138687
    49  H    0.023994
    50  H    0.021443
    51  H    0.043234
    52  H    0.008049
    53  H   -0.008693
    54  H    0.024173
    55  H    0.041577
    56  H    0.042265
    57  H    0.046148
    58  H    0.028148
    59  H    0.049965
    60  H    0.185943
    61  H    0.003627
    62  H    0.062724
    63  H   -0.007149
    64  H    0.070031
    65  H    0.035960
    66  H    0.061719
    67  H    0.057063
    68  H    0.070754
    69  H   -0.017141
    70  H    0.016925
    71  H    0.040597
    72  H    0.177028
    73  H   -0.009355
    74  H    0.036023
    75  H    0.038213
    76  H    0.028883
    77  H    0.185196
    78  H    0.030605
    79  H   -0.035146
 Sum of Mulliken charges =  -0.00000

 Dipole moment (field-independent basis, Debye):
    X=              1.9051    Y=              2.4501    Z=             -2.4188  Tot=              3.9348
 Quadrupole moment (field-independent basis, Debye-Ang):
   XX=           -238.3263   YY=           -242.6766   ZZ=           -261.1765
   XY=             -2.6406   XZ=            -24.5653   YZ=            -15.0293

 Normal termination of Gaussian 16 at Wed Jul 24 23:39:13 2019.
