 Gaussian 16, Revision A.03,
 Gaussian 16:  ES64L-G16RevA.03 25-Dec-2016

 --------------------------
 # td=(NStates=1) B3LYP/SVP
 --------------------------

 --
 TD
 --
 Symbolic Z-matrix:
 Charge =  0 Multiplicity = 1

                         Standard orientation:
 ---------------------------------------------------------------------
 Center     Atomic      Atomic             Coordinates (Angstroms)
 Number     Number       Type             X           Y           Z
 ---------------------------------------------------------------------
      1          8           0       -3.265775   -1.773422   -2.510069
      2          8           0        3.161687    3.830466    2.397082
      3          8           0        3.662790    2.451862    4.090498
      4          8           0        7.676009   -1.588411   -0.343689
      5          8           0        6.760627   -3.284095   -1.561336
      6          8           0       -2.497708    1.916626    1.271490
      7          7           0       -0.223947   -2.284476    1.515382
      8          7           0       -2.641974   -1.334245   -0.265443
      9          7           0        1.049345   -0.205131   -0.751414
     10          7           0       -1.073223    1.302573   -0.462298
     11          6           0       -3.333869   -1.178303    0.881731
     12          6           0       -2.596188   -1.974294    2.092267
     13          6           0       -1.136798   -1.660183    2.220110
     14          6           0       -0.520346   -0.547940    3.026705
     15          6           0        0.780181   -0.570411    2.632608
     16          6           0        1.039010   -1.603117    1.674110
     17          6           0       -4.672390   -1.679360    0.622895
     18          6           0        1.966356    0.318586    3.237406
     19          6           0       -4.804100   -2.214743   -0.696123
     20          6           0        2.146965   -1.830656    0.732910
     21          6           0        2.134111   -1.150939   -0.488890
     22          6           0       -3.564048   -1.719818   -1.272623
     23          6           0        2.939215   -1.070732   -1.714471
     24          6           0       -1.273434    0.398916    3.872191
     25          6           0       -5.734503   -1.882169    1.693585
     26          6           0        2.364607   -0.177414   -2.568033
     27          6           0        1.930461    1.721733    2.532910
     28          6           0        1.206383    0.430888   -1.983419
     29          6           0        4.178266   -1.878295   -1.876272
     30          6           0       -5.853940   -2.734604   -1.457312
     31          6           0        5.436295   -1.328176   -0.975895
     32          6           0        2.799347    0.039478   -4.039768
     33          6           0        0.312912    1.443026   -2.429479
     34          6           0        3.027096    2.654043    3.063981
     35          6           0       -0.746651    1.851565   -1.637400
     36          6           0       -6.952803   -3.404464   -1.056624
     37          6           0        6.639087   -2.285215   -1.059976
     38          6           0       -1.444051    3.102341   -1.894076
     39          6           0       -2.308771    3.214030   -0.763579
     40          6           0       -1.967473    2.178562    0.147868
     41          6           0       -1.207217    3.913654   -3.101179
     42          6           0       -3.163729    4.439862   -0.376855
     43          6           0       -1.986132    4.919493   -3.621095
     44          1           0       -3.468820   -0.064862    1.167525
     45          1           0       -2.897074   -3.011479    1.639814
     46          1           0       -2.910890   -1.710519    3.089316
     47          1           0       -0.622196   -2.905145    0.860504
     48          1           0       -1.884096   -0.532102   -0.577848
     49          1           0        1.847792    0.459892    4.421693
     50          1           0        2.993595   -0.276579    2.952826
     51          1           0        2.820184   -2.590598    1.043405
     52          1           0       -2.161420   -0.081747    4.418954
     53          1           0       -0.639270    0.940915    4.612029
     54          1           0       -1.644313    1.046622    3.220931
     55          1           0       -5.534713   -1.100648    2.572464
     56          1           0       -5.948273   -2.943388    2.177098
     57          1           0       -6.718634   -1.552300    1.251769
     58          1           0        2.228671    1.500683    1.414266
     59          1           0        0.946228    2.175085    2.528521
     60          1           0        0.545296    0.223442    0.152916
     61          1           0        4.654301   -1.797760   -2.855026
     62          1           0        4.022003   -2.955232   -1.592469
     63          1           0       -5.769498   -2.548445   -2.523821
     64          1           0        5.051256   -1.226919    0.003339
     65          1           0        5.650833   -0.253542   -1.518929
     66          1           0        3.530182   -0.679721   -4.256889
     67          1           0        3.529169    1.079353   -3.857346
     68          1           0        2.017573    0.130480   -4.618901
     69          1           0        0.648655    1.933974   -3.403932
     70          1           0       -7.310629   -3.541803    0.155020
     71          1           0       -7.704999   -3.903348   -1.764834
     72          1           0        3.937159    4.230314    2.846674
     73          1           0       -0.300604    3.790735   -3.701955
     74          1           0       -4.111817    4.435179   -1.052832
     75          1           0       -3.545192    4.323069    0.608045
     76          1           0       -2.653273    5.359917   -0.441863
     77          1           0        8.601027   -1.881325   -0.587016
     78          1           0       -1.709741    5.435225   -4.607694
     79          1           0       -3.044021    5.305261   -3.290415
 ---------------------------------------------------------------------

 SCF Done:  E(RB3LYP) =  -1947.83818750     A.U. after   27 cycles

 Excitation energies and oscillator strengths:

 Excited State   1:      Singlet-A      0.6234 eV 1988.94 nm  f=0.0049  <S**2>=0.000
     155 ->156         0.70348
 This state for optimization and/or second-order correction.
 Total Energy, E(TD-HF/TD-DFT) =  -1947.81527910
 Copying the excited state density for this state as the 1-particle RhoCI density.

 The electronic state is 1-A.
 Alpha  occ. eigenvalues --  -19.18237 -19.16912 -19.16284 -19.12415 -19.11897
 Alpha  occ. eigenvalues --  -19.07036 -14.37736 -14.37217 -14.32483 -14.30307
 Alpha  occ. eigenvalues --  -10.33709 -10.31964 -10.27682 -10.27125 -10.26295
 Alpha  occ. eigenvalues --  -10.25867 -10.24531 -10.23563 -10.23329 -10.23188
 Alpha  occ. eigenvalues --  -10.23009 -10.22541 -10.22423 -10.22371 -10.22278
 Alpha  occ. eigenvalues --  -10.22129 -10.21767 -10.21738 -10.21532 -10.21421
 Alpha  occ. eigenvalues --  -10.21391 -10.21135 -10.21016 -10.20830 -10.20809
 Alpha  occ. eigenvalues --  -10.20446 -10.20141 -10.19393 -10.18832 -10.18731
 Alpha  occ. eigenvalues --  -10.18313 -10.17119 -10.16707  -1.12823  -1.09353
 Alpha  occ. eigenvalues --   -1.01210  -1.01028  -0.99553  -0.98155  -0.97738
 Alpha  occ. eigenvalues --   -0.96966  -0.93616  -0.92029  -0.83375  -0.82232
 Alpha  occ. eigenvalues --   -0.80628  -0.80333  -0.80046  -0.78418  -0.77828
 Alpha  occ. eigenvalues --   -0.76268  -0.75778  -0.75327  -0.74067  -0.73069
 Alpha  occ. eigenvalues --   -0.70844  -0.70234  -0.69272  -0.68948  -0.67141
 Alpha  occ. eigenvalues --   -0.65889  -0.65495  -0.63567  -0.61164  -0.59634
 Alpha  occ. eigenvalues --   -0.59194  -0.58856  -0.58617  -0.57033  -0.56301
 Alpha  occ. eigenvalues --   -0.55757  -0.55233  -0.53571  -0.53247  -0.52621
 Alpha  occ. eigenvalues --   -0.52238  -0.51537  -0.50779  -0.50700  -0.49918
 Alpha  occ. eigenvalues --   -0.49364  -0.49233  -0.48956  -0.48698  -0.48299
 Alpha  occ. eigenvalues --   -0.47949  -0.47216  -0.46550  -0.45966  -0.45550
 Alpha  occ. eigenvalues --   -0.45367  -0.45160  -0.44583  -0.44378  -0.43936
 Alpha  occ. eigenvalues --   -0.43466  -0.43074  -0.42645  -0.41986  -0.41730
 Alpha  occ. eigenvalues --   -0.41258  -0.41069  -0.41014  -0.40693  -0.40502
 Alpha  occ. eigenvalues --   -0.40277  -0.39886  -0.39543  -0.39449  -0.39300
 Alpha  occ. eigenvalues --   -0.39098  -0.38521  -0.38198  -0.38014  -0.37655
 Alpha  occ. eigenvalues --   -0.37382  -0.37275  -0.37001  -0.36785  -0.36358
 Alpha  occ. eigenvalues --   -0.36251  -0.35904  -0.35619  -0.35043  -0.34228
 Alpha  occ. eigenvalues --   -0.33949  -0.33278  -0.32745  -0.32049  -0.31751
 Alpha  occ. eigenvalues --   -0.31535  -0.30967  -0.29628  -0.29120  -0.28570
 Alpha  occ. eigenvalues --   -0.27927  -0.27076  -0.25844  -0.24525  -0.23893
 Alpha  occ. eigenvalues --   -0.23809  -0.22415  -0.22274  -0.21878  -0.18163
 Alpha virt. eigenvalues --   -0.13459  -0.08495  -0.05346  -0.02167  -0.01102
 Alpha virt. eigenvalues --   -0.00161   0.01253   0.01558   0.02015   0.02161
 Alpha virt. eigenvalues --    0.03639   0.04259   0.04727   0.04850   0.05064

 Mulliken charges:
               1
     1  O   -0.301777
     2  O   -0.188716
     3  O   -0.243830
     4  O   -0.297138
     5  O   -0.092181
     6  O   -0.252333
     7  N    0.010843
     8  N   -0.220660
     9  N   -0.208512
    10  N   -0.306431
    11  C    0.071588
    12  C    0.173779
    13  C   -0.183274
    14  C   -0.104951
    15  C   -0.122629
    16  C   -0.045939
    17  C   -0.192515
    18  C    0.014320
    19  C    0.024619
    20  C   -0.080747
    21  C    0.154608
    22  C    0.126707
    23  C   -0.022177
    24  C    0.167027
    25  C   -0.002041
    26  C   -0.171555
    27  C   -0.036395
    28  C    0.118151
    29  C    0.052802
    30  C   -0.010849
    31  C   -0.070630
    32  C    0.166348
    33  C   -0.114552
    34  C    0.149624
    35  C    0.148857
    36  C   -0.112553
    37  C    0.160954
    38  C    0.051950
    39  C   -0.179651
    40  C    0.179342
    41  C   -0.008241
    42  C    0.107390
    43  C   -0.091479
    44  H    0.056448
    45  H    0.001707
    46  H   -0.010771
    47  H    0.105370
    48  H    0.205108
    49  H    0.056901
    50  H    0.028854
    51  H    0.004349
    52  H    0.005972
    53  H   -0.001035
    54  H   -0.009570
    55  H    0.026383
    56  H    0.063305
    57  H    0.040213
    58  H    0.041410
    59  H    0.061575
    60  H    0.243165
    61  H    0.008126
    62  H    0.041291
    63  H    0.011631
    64  H    0.043162
    65  H    0.069939
    66  H    0.004239
    67  H    0.044725
    68  H    0.013303
    69  H    0.005342
    70  H    0.039002
    71  H    0.040938
    72  H    0.180231
    73  H    0.007960
    74  H    0.034839
    75  H    0.009952
    76  H    0.025380
    77  H    0.191030
    78  H    0.041023
    79  H    0.051350
 Sum of Mulliken charges =  -0.00000

 Dipole moment (field-independent basis, Debye):
    X=              4.0169    Y=              2.6109    Z=             -2.8599  Tot=              5.5795
 Quadrupole moment (field-independent basis, Debye-Ang):
   XX=           -229.9716   YY=           -243.6120   ZZ=           -261.8939
   XY=             -1.4433   XZ=            -26.1511   YZ=            -19.6105

 Normal termination of Gaussian 16 at Fri Jul 26 00:58:39 2019.
