 Gaussian 16, Revision A.03,
 Gaussian 16:  ES64L-G16RevA.03 25-Dec-2016

 --------------------------
 # td=(NStates=1) B3LYP/SVP
 --------------------------

 --
 TD
 --
 Symbolic Z-matrix:
 Charge =  0 Multiplicity = 1

                         Standard orientation:
 ---------------------------------------------------------------------
 Center     Atomic      Atomic             Coordinates (Angstroms)
 Number     Number       Type             X           Y           Z
 ---------------------------------------------------------------------
      1          8           0       -3.367908   -1.330704   -2.909670
      2          8           0        2.874990    3.278417    3.141489
      3          8           0        3.795201    1.573250    4.217181
      4          8           0        7.707160   -1.443943   -0.730085
      5          8           0        6.637424   -3.037811   -1.910480
      6          8           0       -2.758972    1.744573    1.346241
      7          7           0       -0.209186   -2.440931    0.934290
      8          7           0       -2.710946   -1.167621   -0.673699
      9          7           0        1.244203    0.094761   -0.699343
     10          7           0       -1.006654    1.452776   -0.257911
     11          6           0       -3.309128   -1.320224    0.612116
     12          6           0       -2.608796   -2.278309    1.630314
     13          6           0       -1.172626   -1.995956    1.826504
     14          6           0       -0.462847   -1.145364    2.903274
     15          6           0        0.815571   -1.127209    2.564530
     16          6           0        1.061497   -1.955174    1.351861
     17          6           0       -4.703889   -1.866369    0.299998
     18          6           0        1.949860   -0.302320    3.096645
     19          6           0       -4.779592   -1.941777   -1.008058
     20          6           0        2.081143   -1.876867    0.330099
     21          6           0        2.139794   -0.885423   -0.610376
     22          6           0       -3.563577   -1.381900   -1.680976
     23          6           0        2.980961   -0.742926   -1.755459
     24          6           0       -1.223677   -0.422328    4.031611
     25          6           0       -5.666256   -2.262586    1.347526
     26          6           0        2.452456    0.301244   -2.431143
     27          6           0        1.843620    1.136240    2.843463
     28          6           0        1.409086    0.822286   -1.793697
     29          6           0        4.292395   -1.528518   -2.012920
     30          6           0       -5.760016   -2.564735   -1.921390
     31          6           0        5.465300   -0.970596   -1.310339
     32          6           0        3.104805    0.890363   -3.720462
     33          6           0        0.491271    1.935844   -1.971467
     34          6           0        2.963420    1.958335    3.471867
     35          6           0       -0.665677    2.206243   -1.195175
     36          6           0       -6.812783   -3.411600   -1.515833
     37          6           0        6.570610   -1.985774   -1.296621
     38          6           0       -1.471432    3.415517   -1.353800
     39          6           0       -2.472410    3.307442   -0.343010
     40          6           0       -2.065089    2.031725    0.408867
     41          6           0       -1.381375    4.418792   -2.404152
     42          6           0       -3.449265    4.190885    0.211292
     43          6           0       -1.825887    5.737417   -2.413312
     44          1           0       -3.459519   -0.304332    1.223569
     45          1           0       -2.665564   -3.215730    1.194526
     46          1           0       -3.219979   -2.095213    2.588325
     47          1           0       -0.235449   -2.892727    0.058872
     48          1           0       -1.916581   -0.249966   -0.603847
     49          1           0        1.811713   -0.434834    4.205560
     50          1           0        2.700020   -0.639610    2.717309
     51          1           0        2.711278   -2.705064    0.547492
     52          1           0       -1.866749   -1.289006    4.619729
     53          1           0       -0.546210    0.073304    4.827933
     54          1           0       -2.026871    0.374002    3.820456
     55          1           0       -5.664978   -1.572290    2.084021
     56          1           0       -5.454830   -3.210206    1.873459
     57          1           0       -6.620381   -2.115135    1.149839
     58          1           0        2.092520    1.275314    1.634945
     59          1           0        1.000869    1.674858    3.002694
     60          1           0        0.289833    0.133999   -0.083683
     61          1           0        4.349295   -1.634409   -3.173071
     62          1           0        4.098123   -2.539319   -1.875578
     63          1           0       -5.611731   -2.357380   -3.011070
     64          1           0        5.167682   -0.606923   -0.379670
     65          1           0        5.973889   -0.098603   -1.604196
     66          1           0        3.758699    0.299167   -4.280648
     67          1           0        3.465085    1.947101   -3.565735
     68          1           0        2.382252    0.920275   -4.406729
     69          1           0        0.701446    2.595249   -2.776182
     70          1           0       -6.965080   -3.498897   -0.547154
     71          1           0       -7.362724   -3.964338   -2.255847
     72          1           0        3.331539    3.806259    3.813864
     73          1           0       -0.783801    4.164187   -3.338054
     74          1           0       -4.342700    4.542231   -0.573207
     75          1           0       -3.968898    3.838637    1.004319
     76          1           0       -3.033277    5.265166    0.531556
     77          1           0        8.481114   -2.092651   -0.930354
     78          1           0       -1.790700    6.293948   -3.379497
     79          1           0       -2.469224    6.151492   -1.625376
 ---------------------------------------------------------------------

 SCF Done:  E(RB3LYP) =  -1947.77799102     A.U. after   22 cycles

 Excitation energies and oscillator strengths:

 Excited State   1:      Singlet-A      0.6929 eV 1789.32 nm  f=0.0002  <S**2>=0.000
     155 ->156         0.70349
 This state for optimization and/or second-order correction.
 Total Energy, E(TD-HF/TD-DFT) =  -1947.75252700
 Copying the excited state density for this state as the 1-particle RhoCI density.

 The electronic state is 1-A.
 Alpha  occ. eigenvalues --  -19.18980 -19.17020 -19.14343 -19.12986 -19.12452
 Alpha  occ. eigenvalues --  -19.07699 -14.38402 -14.37532 -14.33752 -14.31847
 Alpha  occ. eigenvalues --  -10.33545 -10.31322 -10.28810 -10.26067 -10.26029
 Alpha  occ. eigenvalues --  -10.25190 -10.25032 -10.22651 -10.22622 -10.22358
 Alpha  occ. eigenvalues --  -10.22205 -10.22109 -10.21937 -10.21816 -10.21759
 Alpha  occ. eigenvalues --  -10.21462 -10.21025 -10.20904 -10.20721 -10.20703
 Alpha  occ. eigenvalues --  -10.20599 -10.20487 -10.20336 -10.20015 -10.19737
 Alpha  occ. eigenvalues --  -10.19137 -10.18808 -10.18683 -10.18245 -10.17539
 Alpha  occ. eigenvalues --  -10.17419 -10.17364 -10.16934  -1.09598  -1.09423
 Alpha  occ. eigenvalues --   -1.05155  -1.03192  -1.00761  -1.00588  -0.99287
 Alpha  occ. eigenvalues --   -0.97475  -0.96175  -0.92252  -0.84591  -0.83391
 Alpha  occ. eigenvalues --   -0.82413  -0.81261  -0.80513  -0.80346  -0.78558
 Alpha  occ. eigenvalues --   -0.77153  -0.76756  -0.75459  -0.74177  -0.73573
 Alpha  occ. eigenvalues --   -0.71434  -0.70796  -0.70343  -0.70012  -0.68551
 Alpha  occ. eigenvalues --   -0.67475  -0.66268  -0.63683  -0.61036  -0.60633
 Alpha  occ. eigenvalues --   -0.60360  -0.59479  -0.59220  -0.59057  -0.58691
 Alpha  occ. eigenvalues --   -0.57792  -0.56075  -0.54816  -0.54082  -0.53185
 Alpha  occ. eigenvalues --   -0.52754  -0.52341  -0.51428  -0.50317  -0.50092
 Alpha  occ. eigenvalues --   -0.49951  -0.49394  -0.49025  -0.48674  -0.48126
 Alpha  occ. eigenvalues --   -0.48004  -0.47389  -0.47188  -0.46563  -0.46508
 Alpha  occ. eigenvalues --   -0.45770  -0.45056  -0.44831  -0.44578  -0.44351
 Alpha  occ. eigenvalues --   -0.43754  -0.43600  -0.43298  -0.43125  -0.42890
 Alpha  occ. eigenvalues --   -0.42470  -0.42298  -0.41969  -0.41841  -0.41055
 Alpha  occ. eigenvalues --   -0.40871  -0.40517  -0.40159  -0.40009  -0.39833
 Alpha  occ. eigenvalues --   -0.39706  -0.39504  -0.38986  -0.38742  -0.38617
 Alpha  occ. eigenvalues --   -0.38233  -0.37881  -0.37377  -0.37110  -0.36968
 Alpha  occ. eigenvalues --   -0.36422  -0.35849  -0.35482  -0.35134  -0.34873
 Alpha  occ. eigenvalues --   -0.34522  -0.33536  -0.33211  -0.32417  -0.32018
 Alpha  occ. eigenvalues --   -0.31466  -0.30793  -0.30089  -0.29923  -0.29298
 Alpha  occ. eigenvalues --   -0.28292  -0.27708  -0.25649  -0.24922  -0.24377
 Alpha  occ. eigenvalues --   -0.23344  -0.23149  -0.22292  -0.21807  -0.18329
 Alpha virt. eigenvalues --   -0.12998  -0.08060  -0.03804  -0.01949  -0.01789
 Alpha virt. eigenvalues --   -0.00320   0.00873   0.02412   0.03119   0.03637
 Alpha virt. eigenvalues --    0.03896   0.04321   0.04979   0.05198   0.05253

 Mulliken charges:
               1
     1  O   -0.265646
     2  O   -0.208644
     3  O   -0.188596
     4  O   -0.243520
     5  O   -0.228557
     6  O   -0.182209
     7  N   -0.066714
     8  N   -0.240576
     9  N   -0.078659
    10  N   -0.264463
    11  C   -0.045726
    12  C    0.266621
    13  C   -0.109728
    14  C   -0.062524
    15  C   -0.149587
    16  C   -0.114692
    17  C   -0.189230
    18  C    0.336405
    19  C   -0.056744
    20  C   -0.115470
    21  C    0.158045
    22  C    0.154546
    23  C   -0.123411
    24  C   -0.024888
    25  C    0.244518
    26  C   -0.135378
    27  C   -0.026580
    28  C    0.093537
    29  C    0.166268
    30  C   -0.057795
    31  C    0.100920
    32  C    0.189262
    33  C   -0.087661
    34  C    0.100879
    35  C    0.097972
    36  C    0.046065
    37  C    0.150131
    38  C    0.052328
    39  C   -0.152057
    40  C    0.163587
    41  C   -0.061572
    42  C    0.037812
    43  C   -0.040180
    44  H    0.069862
    45  H   -0.050542
    46  H    0.007401
    47  H    0.110952
    48  H    0.216748
    49  H    0.012290
    50  H   -0.118549
    51  H    0.008843
    52  H    0.029745
    53  H    0.018820
    54  H    0.056728
    55  H   -0.042870
    56  H    0.029594
    57  H   -0.029746
    58  H    0.044546
    59  H    0.006566
    60  H    0.238576
    61  H    0.018545
    62  H   -0.004318
    63  H    0.016585
    64  H    0.014086
    65  H    0.023639
    66  H   -0.010456
    67  H    0.038496
    68  H   -0.022627
    69  H   -0.051738
    70  H   -0.045420
    71  H    0.019175
    72  H    0.178440
    73  H    0.016350
    74  H    0.042566
    75  H   -0.002868
    76  H    0.052276
    77  H    0.211021
    78  H    0.037100
    79  H    0.022093
 Sum of Mulliken charges =  -0.00000

 Dipole moment (field-independent basis, Debye):
    X=              3.5409    Y=              2.8313    Z=              0.4111  Tot=              4.5522
 Quadrupole moment (field-independent basis, Debye-Ang):
   XX=           -243.4727   YY=           -240.4672   ZZ=           -261.3503
   XY=             -0.2436   XZ=            -29.0546   YZ=             -9.0216

 Normal termination of Gaussian 16 at Wed Jul 24 21:31:44 2019.
