 Gaussian 16, Revision A.03,
 Gaussian 16:  ES64L-G16RevA.03 25-Dec-2016

 --------------------------
 # td=(NStates=1) B3LYP/SVP
 --------------------------

 --
 TD
 --
 Symbolic Z-matrix:
 Charge =  0 Multiplicity = 1

                         Standard orientation:
 ---------------------------------------------------------------------
 Center     Atomic      Atomic             Coordinates (Angstroms)
 Number     Number       Type             X           Y           Z
 ---------------------------------------------------------------------
      1          8           0       -3.346738   -0.393810   -3.011845
      2          8           0        3.094650    2.137585    3.680682
      3          8           0        3.638924    0.270192    4.593048
      4          8           0        7.728719   -1.322561   -0.961550
      5          8           0        6.913671   -2.061321   -2.980362
      6          8           0       -2.669670    1.116235    1.759607
      7          7           0       -0.128995   -2.562635    0.219640
      8          7           0       -2.637258   -1.107256   -0.837626
      9          7           0        1.118220    0.343979   -0.751569
     10          7           0       -1.026529    1.535911    0.128621
     11          6           0       -3.362596   -1.609844    0.302579
     12          6           0       -2.553139   -2.814885    0.910247
     13          6           0       -1.141760   -2.476833    1.165923
     14          6           0       -0.532239   -2.034757    2.401567
     15          6           0        0.867234   -1.870475    2.105034
     16          6           0        1.043374   -2.154506    0.749644
     17          6           0       -4.716395   -1.936408   -0.225910
     18          6           0        1.902967   -1.298101    2.958125
     19          6           0       -4.780002   -1.670430   -1.527457
     20          6           0        2.172035   -1.853464   -0.105845
     21          6           0        2.127362   -0.635651   -0.899792
     22          6           0       -3.560636   -1.014062   -1.907565
     23          6           0        3.016465   -0.125893   -1.839747
     24          6           0       -1.315242   -1.689446    3.666404
     25          6           0       -5.737871   -2.499350    0.717423
     26          6           0        2.485032    1.144982   -2.220628
     27          6           0        1.883052    0.186142    2.918778
     28          6           0        1.280440    1.358364   -1.581220
     29          6           0        4.263086   -0.840555   -2.201236
     30          6           0       -5.899651   -1.847558   -2.467168
     31          6           0        5.485422   -0.804527   -1.272042
     32          6           0        3.103279    2.223696   -3.162073
     33          6           0        0.464846    2.465842   -1.547468
     34          6           0        2.925292    0.819168    3.809073
     35          6           0       -0.714026    2.490359   -0.731269
     36          6           0       -6.947119   -2.731166   -2.456319
     37          6           0        6.787579   -1.478354   -1.847249
     38          6           0       -1.512493    3.771742   -0.317015
     39          6           0       -2.406964    3.381585    0.546412
     40          6           0       -2.139295    1.910118    0.959867
     41          6           0       -1.340758    5.053177   -1.041226
     42          6           0       -3.556226    4.008991    1.340211
     43          6           0       -1.933895    6.213006   -0.768071
     44          1           0       -3.300807   -0.792346    1.036561
     45          1           0       -2.302369   -3.667266    0.132616
     46          1           0       -2.867487   -3.019019    1.899016
     47          1           0       -0.266811   -2.736549   -0.815176
     48          1           0       -2.175806   -0.255268   -0.851616
     49          1           0        1.918130   -1.638542    4.055502
     50          1           0        2.877785   -1.746946    2.895989
     51          1           0        2.840411   -2.717056   -0.329060
     52          1           0       -1.897744   -2.529353    4.236571
     53          1           0       -0.705966   -1.204762    4.366233
     54          1           0       -2.177757   -0.968746    3.445302
     55          1           0       -5.777311   -1.762035    1.637699
     56          1           0       -5.587395   -3.570275    1.042809
     57          1           0       -6.805575   -2.225823    0.388366
     58          1           0        2.063703    0.829187    2.152351
     59          1           0        0.830385    0.616879    3.142618
     60          1           0        0.357867    0.408358   -0.061288
     61          1           0        4.502804   -0.376438   -3.118328
     62          1           0        3.951457   -1.866004   -2.730729
     63          1           0       -5.957438   -1.069254   -3.382093
     64          1           0        5.505939   -1.315485   -0.143596
     65          1           0        5.575261    0.276707   -1.043251
     66          1           0        4.017950    1.721569   -3.387539
     67          1           0        3.320326    3.304811   -2.759761
     68          1           0        2.381649    1.904117   -4.023995
     69          1           0        0.586468    3.261054   -2.137318
     70          1           0       -7.305552   -3.161652   -1.432978
     71          1           0       -7.675132   -2.776721   -3.238273
     72          1           0        3.596426    2.483216    4.464288
     73          1           0       -0.590522    5.086771   -1.859074
     74          1           0       -3.986236    4.811605    0.480051
     75          1           0       -4.259666    3.159147    1.779335
     76          1           0       -2.895454    4.582326    2.262538
     77          1           0        8.523705   -1.744128   -1.334709
     78          1           0       -1.667920    7.109770   -1.322041
     79          1           0       -2.744786    6.302127    0.010943
 ---------------------------------------------------------------------

 SCF Done:  E(RB3LYP) =  -1947.83143804     A.U. after   17 cycles

 Excitation energies and oscillator strengths:

 Excited State   1:      Singlet-A      1.0399 eV 1192.31 nm  f=0.0036  <S**2>=0.000
     155 ->156         0.70354
 This state for optimization and/or second-order correction.
 Total Energy, E(TD-HF/TD-DFT) =  -1947.79322353
 Copying the excited state density for this state as the 1-particle RhoCI density.

 The electronic state is 1-A.
 Alpha  occ. eigenvalues --  -19.21392 -19.16929 -19.13688 -19.13618 -19.11025
 Alpha  occ. eigenvalues --  -19.08316 -14.37033 -14.36184 -14.32391 -14.30638
 Alpha  occ. eigenvalues --  -10.34260 -10.30543 -10.29422 -10.26693 -10.25400
 Alpha  occ. eigenvalues --  -10.25102 -10.24623 -10.24036 -10.23467 -10.23323
 Alpha  occ. eigenvalues --  -10.22346 -10.22338 -10.22102 -10.22085 -10.22039
 Alpha  occ. eigenvalues --  -10.21377 -10.21310 -10.21162 -10.20926 -10.20924
 Alpha  occ. eigenvalues --  -10.20474 -10.20338 -10.20267 -10.20221 -10.19917
 Alpha  occ. eigenvalues --  -10.19667 -10.19567 -10.19038 -10.19021 -10.18646
 Alpha  occ. eigenvalues --  -10.18323 -10.17467 -10.17089  -1.12781  -1.09741
 Alpha  occ. eigenvalues --   -1.02560  -1.00332  -0.99172  -0.99172  -0.98542
 Alpha  occ. eigenvalues --   -0.96567  -0.93037  -0.91911  -0.83786  -0.81835
 Alpha  occ. eigenvalues --   -0.81462  -0.81319  -0.80954  -0.78752  -0.78352
 Alpha  occ. eigenvalues --   -0.76561  -0.75950  -0.75425  -0.74169  -0.72929
 Alpha  occ. eigenvalues --   -0.70940  -0.70246  -0.70117  -0.69473  -0.67743
 Alpha  occ. eigenvalues --   -0.67063  -0.66060  -0.63164  -0.62468  -0.60438
 Alpha  occ. eigenvalues --   -0.59313  -0.59190  -0.58989  -0.57065  -0.56610
 Alpha  occ. eigenvalues --   -0.55905  -0.55703  -0.55448  -0.54390  -0.52858
 Alpha  occ. eigenvalues --   -0.51335  -0.50885  -0.50606  -0.50478  -0.50134
 Alpha  occ. eigenvalues --   -0.49138  -0.48815  -0.48386  -0.48208  -0.47777
 Alpha  occ. eigenvalues --   -0.47285  -0.46929  -0.46237  -0.45791  -0.45628
 Alpha  occ. eigenvalues --   -0.45514  -0.44805  -0.44368  -0.44253  -0.43714
 Alpha  occ. eigenvalues --   -0.43495  -0.43359  -0.43020  -0.42808  -0.42287
 Alpha  occ. eigenvalues --   -0.42145  -0.41933  -0.41456  -0.41058  -0.40590
 Alpha  occ. eigenvalues --   -0.40523  -0.40402  -0.39671  -0.39525  -0.39164
 Alpha  occ. eigenvalues --   -0.39018  -0.38674  -0.38465  -0.38167  -0.37877
 Alpha  occ. eigenvalues --   -0.37566  -0.37314  -0.37126  -0.36803  -0.36676
 Alpha  occ. eigenvalues --   -0.36369  -0.35863  -0.35289  -0.34915  -0.34229
 Alpha  occ. eigenvalues --   -0.33769  -0.32868  -0.32561  -0.32159  -0.31472
 Alpha  occ. eigenvalues --   -0.30440  -0.29490  -0.29001  -0.28680  -0.28560
 Alpha  occ. eigenvalues --   -0.26914  -0.26179  -0.25623  -0.24858  -0.24501
 Alpha  occ. eigenvalues --   -0.23483  -0.23319  -0.22813  -0.21749  -0.18997
 Alpha virt. eigenvalues --   -0.12545  -0.07657  -0.04953  -0.02106  -0.01293
 Alpha virt. eigenvalues --    0.00541   0.01520   0.02253   0.02500   0.03655
 Alpha virt. eigenvalues --    0.03839   0.04281   0.04782   0.04938   0.05354

 Mulliken charges:
               1
     1  O   -0.300079
     2  O   -0.196588
     3  O   -0.224131
     4  O   -0.119458
     5  O   -0.289555
     6  O   -0.220868
     7  N   -0.064150
     8  N   -0.180192
     9  N   -0.069983
    10  N   -0.331664
    11  C    0.060162
    12  C    0.243354
    13  C   -0.149872
    14  C   -0.086287
    15  C   -0.070418
    16  C   -0.030023
    17  C   -0.140154
    18  C    0.114829
    19  C    0.031682
    20  C   -0.071668
    21  C    0.096343
    22  C    0.116637
    23  C   -0.104210
    24  C    0.052572
    25  C    0.032626
    26  C   -0.195086
    27  C    0.036600
    28  C    0.149917
    29  C    0.126581
    30  C   -0.073773
    31  C   -0.047662
    32  C    0.084064
    33  C   -0.050064
    34  C    0.078716
    35  C    0.099334
    36  C   -0.052722
    37  C    0.160239
    38  C    0.038173
    39  C   -0.201670
    40  C    0.203094
    41  C   -0.019828
    42  C   -0.040244
    43  C   -0.034744
    44  H    0.049993
    45  H    0.007627
    46  H   -0.021614
    47  H    0.136287
    48  H    0.114370
    49  H    0.008480
    50  H   -0.019976
    51  H    0.034133
    52  H    0.017957
    53  H   -0.010105
    54  H    0.034810
    55  H    0.029277
    56  H    0.066344
    57  H    0.034483
    58  H   -0.017599
    59  H    0.050691
    60  H    0.167185
    61  H   -0.015763
    62  H    0.039692
    63  H    0.047404
    64  H    0.073781
    65  H    0.050106
    66  H   -0.002806
    67  H    0.076942
    68  H    0.063515
    69  H   -0.079378
    70  H    0.026792
    71  H    0.020651
    72  H    0.192543
    73  H    0.001587
    74  H    0.069319
    75  H    0.077113
    76  H    0.073625
    77  H    0.187176
    78  H    0.026510
    79  H    0.029015
 Sum of Mulliken charges =  -0.00000

 Dipole moment (field-independent basis, Debye):
    X=              2.7815    Y=              2.9986    Z=              0.8610  Tot=              4.1797
 Quadrupole moment (field-independent basis, Debye-Ang):
   XX=           -228.5978   YY=           -232.5360   ZZ=           -276.8175
   XY=              8.2049   XZ=            -16.1140   YZ=             -3.8735

 Normal termination of Gaussian 16 at Wed Jul 24 20:13:22 2019.
