 Gaussian 16, Revision A.03,
 Gaussian 16:  ES64L-G16RevA.03 25-Dec-2016

 --------------------------
 # td=(NStates=1) B3LYP/SVP
 --------------------------

 --
 TD
 --
 Symbolic Z-matrix:
 Charge =  0 Multiplicity = 1

                         Standard orientation:
 ---------------------------------------------------------------------
 Center     Atomic      Atomic             Coordinates (Angstroms)
 Number     Number       Type             X           Y           Z
 ---------------------------------------------------------------------
      1          8           0        5.294930   -0.281893   -3.269826
      2          8           0       -3.108207   -2.602281    3.331305
      3          8           0       -3.290123   -0.308908    3.175180
      4          8           0       -1.818651    7.090366    1.264506
      5          8           0       -0.971572    7.038754   -0.779670
      6          8           0       -1.501391   -3.971689    0.287863
      7          7           0        2.322438    0.969076    0.517932
      8          7           0        4.314025   -0.644860   -1.208306
      9          7           0       -1.766571    0.626205   -0.518366
     10          7           0       -2.457142   -1.949672   -0.386512
     11          6           0        4.713607   -1.082003    0.064317
     12          6           0        4.348676   -0.103064    1.223934
     13          6           0        2.909921    0.126607    1.462062
     14          6           0        1.959451   -0.400996    2.184162
     15          6           0        0.752195    0.145550    1.765985
     16          6           0        0.928063    0.987974    0.732549
     17          6           0        6.252709   -1.230568   -0.149425
     18          6           0       -0.612585    0.042606    2.555382
     19          6           0        6.638266   -0.836492   -1.335291
     20          6           0        0.136262    1.908023   -0.057301
     21          6           0       -1.174725    1.797779   -0.439065
     22          6           0        5.418225   -0.544414   -2.107299
     23          6           0       -2.053396    2.807858   -1.026851
     24          6           0        2.247558   -1.412380    3.268346
     25          6           0        7.099155   -1.708082    1.081857
     26          6           0       -3.216341    2.207024   -1.354822
     27          6           0       -1.232794   -1.351670    2.621786
     28          6           0       -3.087124    0.748204   -1.083643
     29          6           0       -1.681591    4.257657   -1.046262
     30          6           0        7.963721   -0.687687   -2.070451
     31          6           0       -1.914934    5.075207    0.257086
     32          6           0       -4.414094    2.818194   -2.014486
     33          6           0       -3.989526   -0.321955   -1.341796
     34          6           0       -2.637604   -1.389899    2.982570
     35          6           0       -3.571496   -1.706200   -1.123939
     36          6           0        9.153463   -0.683965   -1.429957
     37          6           0       -1.526654    6.488548    0.136628
     38          6           0       -4.432674   -2.938003   -1.396770
     39          6           0       -3.676502   -4.021878   -1.006017
     40          6           0       -2.515456   -3.314960   -0.243798
     41          6           0       -5.644330   -2.823602   -2.172014
     42          6           0       -3.915024   -5.489894   -0.965534
     43          6           0       -6.436049   -3.940042   -2.483502
     44          1           0        4.382729   -2.221460    0.392033
     45          1           0        4.879786    0.951479    1.063549
     46          1           0        4.661240   -0.664254    2.217328
     47          1           0        2.872673    1.288681   -0.375433
     48          1           0        3.414998   -1.007375   -1.718175
     49          1           0       -0.439377    0.506136    3.559473
     50          1           0       -1.512146    0.779174    2.128670
     51          1           0        0.619064    3.030005   -0.006973
     52          1           0        3.309239   -1.451060    3.716404
     53          1           0        1.695368   -1.274171    4.121271
     54          1           0        1.947904   -2.365901    2.944631
     55          1           0        6.249754   -2.262251    1.780145
     56          1           0        7.768011   -0.768419    1.510190
     57          1           0        7.931397   -2.382434    0.820930
     58          1           0       -1.145721   -2.018079    1.645083
     59          1           0       -0.611721   -1.987666    3.438011
     60          1           0       -1.433322   -0.303907   -0.027260
     61          1           0       -2.296751    4.748614   -1.841000
     62          1           0       -0.569963    4.405624   -1.397670
     63          1           0        7.930523   -0.814230   -3.131738
     64          1           0       -1.309654    4.616467    1.068008
     65          1           0       -3.067526    5.024481    0.479181
     66          1           0       -4.256791    3.840501   -2.086469
     67          1           0       -5.267591    2.548538   -1.374830
     68          1           0       -4.258853    2.287142   -3.114208
     69          1           0       -4.909045   -0.269561   -1.820575
     70          1           0        9.137331   -0.618810   -0.199858
     71          1           0       10.186326   -0.827992   -1.772285
     72          1           0       -4.047699   -2.096878    3.627524
     73          1           0       -5.838914   -1.796659   -2.382886
     74          1           0       -4.836354   -5.731385   -0.641250
     75          1           0       -3.605863   -5.937833   -2.050151
     76          1           0       -2.912602   -5.885033   -0.335972
     77          1           0       -1.505874    8.107962    1.061276
     78          1           0       -7.354573   -3.736964   -3.050793
     79          1           0       -6.265371   -4.973399   -2.084942
 ---------------------------------------------------------------------

 SCF Done:  E(RB3LYP) =  -1947.83296215     A.U. after   19 cycles

 Excitation energies and oscillator strengths:

 Excited State   1:      Singlet-A      2.0596 eV  601.97 nm  f=0.3708  <S**2>=0.000
     152 ->156        -0.12086
     154 ->156         0.11020
     155 ->156         0.68699
     155 <-156        -0.10751
 This state for optimization and/or second-order correction.
 Total Energy, E(TD-HF/TD-DFT) =  -1947.75727203
 Copying the excited state density for this state as the 1-particle RhoCI density.

 The electronic state is 1-A.
 Alpha  occ. eigenvalues --  -19.19675 -19.18554 -19.13092 -19.11525 -19.10968
 Alpha  occ. eigenvalues --  -19.09957 -14.36997 -14.36196 -14.35395 -14.30450
 Alpha  occ. eigenvalues --  -10.32130 -10.30970 -10.28561 -10.27005 -10.26324
 Alpha  occ. eigenvalues --  -10.25942 -10.24503 -10.23609 -10.23346 -10.22484
 Alpha  occ. eigenvalues --  -10.22409 -10.22097 -10.21990 -10.21802 -10.21610
 Alpha  occ. eigenvalues --  -10.21435 -10.21341 -10.21327 -10.21222 -10.21169
 Alpha  occ. eigenvalues --  -10.21060 -10.20907 -10.20884 -10.20840 -10.20554
 Alpha  occ. eigenvalues --  -10.20453 -10.20440 -10.20254 -10.20032 -10.19723
 Alpha  occ. eigenvalues --  -10.18414 -10.18272 -10.17470  -1.11248  -1.07740
 Alpha  occ. eigenvalues --   -1.03974  -1.01111  -0.98431  -0.97379  -0.96923
 Alpha  occ. eigenvalues --   -0.96777  -0.94384  -0.90947  -0.82939  -0.81861
 Alpha  occ. eigenvalues --   -0.81266  -0.80865  -0.80102  -0.79253  -0.77832
 Alpha  occ. eigenvalues --   -0.76391  -0.75824  -0.75326  -0.74253  -0.72796
 Alpha  occ. eigenvalues --   -0.71637  -0.70508  -0.69725  -0.68699  -0.67940
 Alpha  occ. eigenvalues --   -0.65547  -0.65279  -0.63057  -0.60865  -0.60066
 Alpha  occ. eigenvalues --   -0.59176  -0.58527  -0.57174  -0.56740  -0.55582
 Alpha  occ. eigenvalues --   -0.54868  -0.54790  -0.53916  -0.53268  -0.52614
 Alpha  occ. eigenvalues --   -0.51800  -0.51204  -0.50700  -0.50290  -0.49971
 Alpha  occ. eigenvalues --   -0.49127  -0.48773  -0.48465  -0.47773  -0.47433
 Alpha  occ. eigenvalues --   -0.47244  -0.46543  -0.46185  -0.45887  -0.45658
 Alpha  occ. eigenvalues --   -0.45170  -0.44771  -0.44657  -0.43422  -0.43268
 Alpha  occ. eigenvalues --   -0.43140  -0.42979  -0.42835  -0.42541  -0.42380
 Alpha  occ. eigenvalues --   -0.42046  -0.41689  -0.41333  -0.41104  -0.40957
 Alpha  occ. eigenvalues --   -0.40658  -0.40293  -0.39890  -0.39454  -0.39322
 Alpha  occ. eigenvalues --   -0.39062  -0.38767  -0.38522  -0.38191  -0.37923
 Alpha  occ. eigenvalues --   -0.37822  -0.37469  -0.37076  -0.36726  -0.36487
 Alpha  occ. eigenvalues --   -0.35663  -0.35617  -0.35089  -0.34635  -0.34042
 Alpha  occ. eigenvalues --   -0.33555  -0.33063  -0.32871  -0.31628  -0.31492
 Alpha  occ. eigenvalues --   -0.30887  -0.30279  -0.29050  -0.28369  -0.27931
 Alpha  occ. eigenvalues --   -0.27063  -0.26870  -0.26358  -0.26156  -0.25424
 Alpha  occ. eigenvalues --   -0.24317  -0.24002  -0.23766  -0.22606  -0.19452
 Alpha virt. eigenvalues --   -0.11360  -0.06748  -0.05566  -0.01957  -0.00349
 Alpha virt. eigenvalues --   -0.00025   0.00020   0.01373   0.01741   0.01944
 Alpha virt. eigenvalues --    0.03138   0.03834   0.03870   0.04318   0.04808

 Mulliken charges:
               1
     1  O   -0.188548
     2  O   -0.219631
     3  O   -0.322545
     4  O   -0.201736
     5  O   -0.227426
     6  O   -0.313198
     7  N   -0.179086
     8  N   -0.232493
     9  N   -0.121634
    10  N   -0.248169
    11  C    0.034406
    12  C    0.131874
    13  C   -0.060876
    14  C   -0.099224
    15  C   -0.078222
    16  C    0.062656
    17  C   -0.179482
    18  C   -0.012662
    19  C   -0.021971
    20  C   -0.103393
    21  C    0.053972
    22  C    0.117974
    23  C   -0.032449
    24  C    0.140798
    25  C   -0.007723
    26  C   -0.175664
    27  C   -0.073162
    28  C    0.162379
    29  C    0.023442
    30  C    0.051183
    31  C   -0.008736
    32  C    0.121741
    33  C   -0.059061
    34  C    0.189660
    35  C    0.028581
    36  C   -0.078005
    37  C    0.119785
    38  C    0.004233
    39  C   -0.149303
    40  C    0.173777
    41  C    0.003655
    42  C    0.031588
    43  C   -0.024978
    44  H    0.042540
    45  H    0.023214
    46  H    0.005700
    47  H    0.150415
    48  H    0.166805
    49  H    0.020132
    50  H    0.055740
    51  H    0.040824
    52  H    0.014464
    53  H   -0.021914
    54  H    0.014803
    55  H    0.052361
    56  H    0.069901
    57  H    0.040573
    58  H    0.106975
    59  H    0.050821
    60  H    0.208824
    61  H    0.011193
    62  H    0.042125
    63  H    0.013401
    64  H    0.053590
    65  H    0.058382
    66  H   -0.007530
    67  H    0.046288
    68  H    0.066253
    69  H   -0.054435
    70  H    0.024327
    71  H    0.040527
    72  H    0.213599
    73  H   -0.022756
    74  H    0.028196
    75  H    0.049417
    76  H    0.069685
    77  H    0.222780
    78  H    0.029911
    79  H    0.040540
 Sum of Mulliken charges =  -0.00000

 Dipole moment (field-independent basis, Debye):
    X=             -0.2254    Y=              1.8186    Z=              1.6208  Tot=              2.4464
 Quadrupole moment (field-independent basis, Debye-Ang):
   XX=           -210.8481   YY=           -246.3037   ZZ=           -264.7845
   XY=            -10.1935   XZ=             28.8417   YZ=              8.2289

 Normal termination of Gaussian 16 at Wed Sep 18 22:02:22 2019.
