 Gaussian 16, Revision A.03,
 Gaussian 16:  ES64L-G16RevA.03 25-Dec-2016

 --------------------------
 # td=(NStates=1) B3LYP/SVP
 --------------------------

 --
 TD
 --
 Symbolic Z-matrix:
 Charge =  0 Multiplicity = 1

                         Standard orientation:
 ---------------------------------------------------------------------
 Center     Atomic      Atomic             Coordinates (Angstroms)
 Number     Number       Type             X           Y           Z
 ---------------------------------------------------------------------
      1          8           0       -3.462073   -0.749276   -2.992094
      2          8           0        3.168285    2.410625    3.695996
      3          8           0        3.933980    0.404480    4.465132
      4          8           0        7.669937   -1.497358   -0.870186
      5          8           0        6.698136   -2.447970   -2.686843
      6          8           0       -2.590570    1.390185    1.664917
      7          7           0       -0.284533   -2.642823    0.498882
      8          7           0       -2.781641   -0.962681   -0.808504
      9          7           0        1.167110    0.159484   -0.716960
     10          7           0       -1.000149    1.493570    0.079466
     11          6           0       -3.417081   -1.388054    0.440730
     12          6           0       -2.672069   -2.695046    1.076885
     13          6           0       -1.258795   -2.315414    1.386718
     14          6           0       -0.612641   -1.648413    2.525470
     15          6           0        0.770397   -1.606685    2.219175
     16          6           0        0.960002   -2.094131    0.940620
     17          6           0       -4.740401   -1.783805    0.008163
     18          6           0        1.850051   -0.990853    3.076789
     19          6           0       -4.849269   -1.656908   -1.323780
     20          6           0        2.197460   -1.914757   -0.023367
     21          6           0        2.043444   -0.742525   -0.745106
     22          6           0       -3.671662   -1.036059   -1.839850
     23          6           0        2.983858   -0.314995   -1.833969
     24          6           0       -1.385289   -1.055388    3.604694
     25          6           0       -5.855767   -2.469255    0.927668
     26          6           0        2.519045    0.851740   -2.314143
     27          6           0        2.053497    0.551773    2.887087
     28          6           0        1.326988    1.190033   -1.644990
     29          6           0        4.145575   -1.110971   -2.336415
     30          6           0       -5.961184   -1.959425   -2.116620
     31          6           0        5.409525   -0.787957   -1.418257
     32          6           0        3.155527    1.742887   -3.437765
     33          6           0        0.565307    2.368401   -1.644120
     34          6           0        3.126346    1.047197    3.769539
     35          6           0       -0.627606    2.447641   -0.740943
     36          6           0       -6.896226   -2.895060   -2.015531
     37          6           0        6.653428   -1.752138   -1.715286
     38          6           0       -1.412042    3.671409   -0.645079
     39          6           0       -2.237424    3.456098    0.398952
     40          6           0       -1.942297    2.018686    0.859490
     41          6           0       -1.171051    4.920737   -1.452309
     42          6           0       -3.405495    4.154304    0.940511
     43          6           0       -1.750210    6.063077   -1.355066
     44          1           0       -3.412955   -0.646642    1.008254
     45          1           0       -2.803060   -3.517543    0.350226
     46          1           0       -3.133295   -3.006841    1.982172
     47          1           0       -0.315074   -2.753175   -0.453669
     48          1           0       -2.209017   -0.135455   -0.915758
     49          1           0        1.494756   -1.363094    4.007775
     50          1           0        2.868773   -1.458769    2.837877
     51          1           0        2.988311   -2.545233    0.032791
     52          1           0       -2.278667   -1.657625    3.888781
     53          1           0       -0.451800   -0.785059    4.319045
     54          1           0       -1.793142   -0.005429    3.088955
     55          1           0       -5.748863   -2.288158    1.961428
     56          1           0       -5.877766   -3.524900    0.743769
     57          1           0       -6.748908   -2.230705    0.546069
     58          1           0        2.188724    0.742711    1.972713
     59          1           0        1.143953    1.103871    3.195521
     60          1           0        0.271102    0.212604   -0.030633
     61          1           0        4.315191   -1.130928   -3.260558
     62          1           0        4.074216   -2.164508   -2.132010
     63          1           0       -6.085843   -1.379883   -3.042727
     64          1           0        5.102010   -1.138015   -0.528014
     65          1           0        5.784263    0.200184   -1.420552
     66          1           0        3.906519    1.221180   -3.970032
     67          1           0        3.246905    2.930901   -3.105036
     68          1           0        2.430016    1.716987   -4.296318
     69          1           0        0.707339    3.057820   -2.368067
     70          1           0       -6.845469   -3.422810   -1.206599
     71          1           0       -7.781762   -3.138805   -2.672605
     72          1           0        3.977615    2.565536    4.212298
     73          1           0       -0.416674    4.741083   -2.277484
     74          1           0       -4.174559    4.088498    0.158469
     75          1           0       -3.605074    3.730028    1.959705
     76          1           0       -3.097581    5.317069    1.129926
     77          1           0        8.259040   -2.330006   -1.184490
     78          1           0       -1.735346    6.862958   -2.165754
     79          1           0       -2.654563    6.116940   -0.710401
 ---------------------------------------------------------------------

 SCF Done:  E(RB3LYP) =  -1947.79444281     A.U. after   19 cycles

 Excitation energies and oscillator strengths:

 Excited State   1:      Singlet-A      0.7727 eV 1604.63 nm  f=0.0007  <S**2>=0.000
     155 ->156         0.70563
 This state for optimization and/or second-order correction.
 Total Energy, E(TD-HF/TD-DFT) =  -1947.76604781
 Copying the excited state density for this state as the 1-particle RhoCI density.

 The electronic state is 1-A.
 Alpha  occ. eigenvalues --  -19.20725 -19.18234 -19.14569 -19.13057 -19.12830
 Alpha  occ. eigenvalues --  -19.07753 -14.37430 -14.35642 -14.32471 -14.31704
 Alpha  occ. eigenvalues --  -10.33323 -10.32021 -10.28662 -10.26542 -10.26501
 Alpha  occ. eigenvalues --  -10.25421 -10.24959 -10.22497 -10.22125 -10.21977
 Alpha  occ. eigenvalues --  -10.21712 -10.21686 -10.21540 -10.21475 -10.21340
 Alpha  occ. eigenvalues --  -10.21319 -10.21111 -10.21052 -10.20365 -10.20359
 Alpha  occ. eigenvalues --  -10.20334 -10.20222 -10.20077 -10.20019 -10.19133
 Alpha  occ. eigenvalues --  -10.18968 -10.18849 -10.18540 -10.17830 -10.17139
 Alpha  occ. eigenvalues --  -10.16899 -10.16886 -10.16792  -1.11261  -1.09226
 Alpha  occ. eigenvalues --   -1.05266  -1.02547  -1.01966  -1.01479  -0.99186
 Alpha  occ. eigenvalues --   -0.96614  -0.95578  -0.93060  -0.83718  -0.82841
 Alpha  occ. eigenvalues --   -0.82555  -0.81575  -0.80883  -0.78501  -0.78048
 Alpha  occ. eigenvalues --   -0.77451  -0.77055  -0.76190  -0.74328  -0.72547
 Alpha  occ. eigenvalues --   -0.71574  -0.71498  -0.70701  -0.69472  -0.67793
 Alpha  occ. eigenvalues --   -0.67062  -0.66737  -0.63721  -0.61660  -0.60748
 Alpha  occ. eigenvalues --   -0.60465  -0.59103  -0.59005  -0.58155  -0.57049
 Alpha  occ. eigenvalues --   -0.56702  -0.55886  -0.54768  -0.54217  -0.52923
 Alpha  occ. eigenvalues --   -0.52391  -0.51819  -0.51232  -0.51025  -0.50370
 Alpha  occ. eigenvalues --   -0.49920  -0.49725  -0.48929  -0.48710  -0.48587
 Alpha  occ. eigenvalues --   -0.47952  -0.47734  -0.47405  -0.47033  -0.46608
 Alpha  occ. eigenvalues --   -0.46507  -0.45806  -0.45415  -0.45225  -0.44742
 Alpha  occ. eigenvalues --   -0.43988  -0.43720  -0.43561  -0.43033  -0.42903
 Alpha  occ. eigenvalues --   -0.42355  -0.42114  -0.41745  -0.41471  -0.41115
 Alpha  occ. eigenvalues --   -0.40891  -0.40597  -0.40246  -0.39923  -0.39733
 Alpha  occ. eigenvalues --   -0.39440  -0.39294  -0.39218  -0.39159  -0.38812
 Alpha  occ. eigenvalues --   -0.38270  -0.37884  -0.37680  -0.37580  -0.36930
 Alpha  occ. eigenvalues --   -0.36706  -0.36317  -0.35837  -0.34956  -0.34776
 Alpha  occ. eigenvalues --   -0.34191  -0.33806  -0.33505  -0.32709  -0.32223
 Alpha  occ. eigenvalues --   -0.31992  -0.30594  -0.30065  -0.30029  -0.29557
 Alpha  occ. eigenvalues --   -0.28262  -0.27136  -0.26900  -0.25209  -0.24843
 Alpha  occ. eigenvalues --   -0.23767  -0.23211  -0.22786  -0.22453  -0.18125
 Alpha virt. eigenvalues --   -0.12871  -0.07302  -0.03745  -0.01640  -0.00596
 Alpha virt. eigenvalues --   -0.00425   0.01705   0.02232   0.02887   0.03124
 Alpha virt. eigenvalues --    0.04168   0.04807   0.05176   0.05450   0.05900

 Mulliken charges:
               1
     1  O   -0.220931
     2  O   -0.185607
     3  O   -0.259318
     4  O   -0.209198
     5  O   -0.212476
     6  O   -0.189046
     7  N   -0.023693
     8  N   -0.202534
     9  N   -0.069710
    10  N   -0.233943
    11  C    0.264295
    12  C    0.204133
    13  C   -0.090896
    14  C   -0.129404
    15  C   -0.101936
    16  C   -0.107052
    17  C   -0.245888
    18  C    0.082024
    19  C    0.032673
    20  C   -0.075953
    21  C    0.098487
    22  C    0.077953
    23  C   -0.094735
    24  C    0.001210
    25  C    0.185568
    26  C   -0.135960
    27  C    0.134157
    28  C    0.130937
    29  C    0.219940
    30  C   -0.062006
    31  C    0.039977
    32  C    0.094176
    33  C   -0.040538
    34  C    0.144000
    35  C    0.069606
    36  C    0.020537
    37  C    0.118632
    38  C    0.039637
    39  C   -0.238154
    40  C    0.133134
    41  C    0.020748
    42  C    0.042056
    43  C   -0.046677
    44  H   -0.084698
    45  H   -0.011774
    46  H   -0.011037
    47  H    0.088289
    48  H    0.130413
    49  H    0.014919
    50  H    0.007493
    51  H   -0.021062
    52  H    0.018825
    53  H    0.016510
    54  H    0.081603
    55  H    0.006171
    56  H    0.022405
    57  H   -0.012799
    58  H   -0.044366
    59  H    0.037159
    60  H    0.236452
    61  H   -0.059393
    62  H   -0.011534
    63  H   -0.003499
    64  H   -0.005418
    65  H    0.038655
    66  H    0.001690
    67  H    0.067059
    68  H    0.023195
    69  H   -0.062005
    70  H   -0.075820
    71  H    0.030456
    72  H    0.169083
    73  H    0.002022
    74  H    0.061906
    75  H    0.049116
    76  H    0.050361
    77  H    0.211906
    78  H    0.043195
    79  H    0.016299
 Sum of Mulliken charges =  -0.00000

 Dipole moment (field-independent basis, Debye):
    X=              2.2095    Y=              2.9789    Z=             -0.8286  Tot=              3.8003
 Quadrupole moment (field-independent basis, Debye-Ang):
   XX=           -236.0994   YY=           -232.1070   ZZ=           -274.6584
   XY=              1.7757   XZ=            -20.2234   YZ=             -8.2100

 Normal termination of Gaussian 16 at Tue Jul 30 13:24:31 2019.
