 Gaussian 16, Revision A.03,
 Gaussian 16:  ES64L-G16RevA.03 25-Dec-2016

 --------------------------
 # td=(NStates=1) B3LYP/SVP
 --------------------------

 --
 TD
 --
 Symbolic Z-matrix:
 Charge =  0 Multiplicity = 1

                         Standard orientation:
 ---------------------------------------------------------------------
 Center     Atomic      Atomic             Coordinates (Angstroms)
 Number     Number       Type             X           Y           Z
 ---------------------------------------------------------------------
      1          8           0        5.246256   -0.296267   -3.288191
      2          8           0       -2.977429   -2.818541    3.113638
      3          8           0       -3.314049   -0.623562    3.047472
      4          8           0       -1.857718    7.273273    1.177436
      5          8           0       -0.754071    6.942791   -0.715680
      6          8           0       -1.438644   -4.019624    0.134503
      7          7           0        2.333103    1.265362    0.746422
      8          7           0        4.287946   -0.550174   -1.204797
      9          7           0       -1.894251    0.675604   -0.364638
     10          7           0       -2.381830   -2.009063   -0.535941
     11          6           0        4.753728   -1.008162    0.093337
     12          6           0        4.322239   -0.090139    1.310296
     13          6           0        2.894371    0.169315    1.480603
     14          6           0        2.003547   -0.510824    2.161132
     15          6           0        0.706020    0.200321    1.814572
     16          6           0        0.967836    1.075157    0.907308
     17          6           0        6.273917   -1.175868   -0.126944
     18          6           0       -0.551767   -0.045584    2.517878
     19          6           0        6.618486   -0.863888   -1.519364
     20          6           0        0.091147    1.999749    0.185865
     21          6           0       -1.172394    1.856721   -0.255819
     22          6           0        5.273855   -0.444092   -2.126751
     23          6           0       -2.149012    2.830581   -0.956947
     24          6           0        2.131837   -1.430156    3.370595
     25          6           0        7.074280   -1.707024    0.958749
     26          6           0       -3.316935    2.209714   -1.368522
     27          6           0       -1.036047   -1.439483    2.587118
     28          6           0       -3.094361    0.781076   -1.005447
     29          6           0       -1.787944    4.236264   -1.060829
     30          6           0        7.919738   -0.847115   -2.041293
     31          6           0       -1.829791    5.105281    0.233298
     32          6           0       -4.551160    2.769139   -2.156392
     33          6           0       -3.887482   -0.305121   -1.356004
     34          6           0       -2.518054   -1.531429    3.016416
     35          6           0       -3.561906   -1.718199   -1.059460
     36          6           0        9.062947   -0.732161   -1.440922
     37          6           0       -1.429440    6.445247    0.173992
     38          6           0       -4.416860   -2.855818   -1.347370
     39          6           0       -3.564224   -3.946629   -1.004943
     40          6           0       -2.362389   -3.388891   -0.407657
     41          6           0       -5.679619   -2.734792   -1.863011
     42          6           0       -3.859360   -5.466605   -1.123712
     43          6           0       -6.515612   -3.832999   -2.248431
     44          1           0        4.374940   -2.080181    0.161290
     45          1           0        4.832264    0.780204    1.113105
     46          1           0        4.711786   -0.685853    2.003637
     47          1           0        2.709538    1.625537   -0.106832
     48          1           0        3.481336   -1.051824   -1.701834
     49          1           0       -0.643661    0.464319    3.468836
     50          1           0       -1.341361    0.545326    1.972423
     51          1           0        0.648163    3.096985    0.072724
     52          1           0        2.959711   -1.359587    3.653483
     53          1           0        1.419233   -1.019226    4.203238
     54          1           0        1.795325   -2.375780    3.105305
     55          1           0        6.504444   -2.338963    1.468666
     56          1           0        7.678121   -0.895067    1.482566
     57          1           0        7.820320   -2.470183    0.327839
     58          1           0       -1.008376   -1.998288    1.471775
     59          1           0       -0.581755   -2.155311    3.139731
     60          1           0       -1.603528   -0.358363   -0.241874
     61          1           0       -2.398148    4.550193   -1.862508
     62          1           0       -0.681578    4.208902   -1.399093
     63          1           0        7.818564   -1.006835   -3.091324
     64          1           0       -1.221751    4.746566    1.016888
     65          1           0       -2.945777    5.083003    0.703070
     66          1           0       -4.334460    3.918813   -2.328781
     67          1           0       -5.458005    2.609888   -1.502383
     68          1           0       -4.511843    2.403313   -3.236931
     69          1           0       -4.838476    0.050675   -1.635833
     70          1           0        8.993008   -0.539247   -0.259513
     71          1           0       10.065808   -0.698032   -2.001684
     72          1           0       -3.926397   -2.821585    3.081904
     73          1           0       -6.137754   -1.645955   -1.941858
     74          1           0       -4.817246   -5.769718   -0.578297
     75          1           0       -3.856883   -5.937840   -2.049646
     76          1           0       -2.857078   -5.846263   -0.794745
     77          1           0       -1.537333    8.193826    1.078030
     78          1           0       -7.511162   -3.385348   -2.649037
     79          1           0       -6.107071   -4.796261   -2.431140
 ---------------------------------------------------------------------

 SCF Done:  E(RB3LYP) =  -1947.79328351     A.U. after   17 cycles

 Excitation energies and oscillator strengths:

 Excited State   1:      Singlet-A      1.9459 eV  637.16 nm  f=0.3110  <S**2>=0.000
     154 ->156         0.17429
     155 ->156         0.68149
 This state for optimization and/or second-order correction.
 Total Energy, E(TD-HF/TD-DFT) =  -1947.72177321
 Copying the excited state density for this state as the 1-particle RhoCI density.

 The electronic state is 1-A.
 Alpha  occ. eigenvalues --  -19.17653 -19.15851 -19.11984 -19.11166 -19.11027
 Alpha  occ. eigenvalues --  -19.09815 -14.36472 -14.36203 -14.35323 -14.29881
 Alpha  occ. eigenvalues --  -10.32003 -10.30478 -10.27949 -10.26945 -10.25152
 Alpha  occ. eigenvalues --  -10.24914 -10.24903 -10.24378 -10.23265 -10.22750
 Alpha  occ. eigenvalues --  -10.22303 -10.22274 -10.22255 -10.22084 -10.21942
 Alpha  occ. eigenvalues --  -10.21733 -10.21521 -10.21424 -10.21354 -10.21088
 Alpha  occ. eigenvalues --  -10.20998 -10.20507 -10.20286 -10.19833 -10.19586
 Alpha  occ. eigenvalues --  -10.19465 -10.19414 -10.18958 -10.18751 -10.18264
 Alpha  occ. eigenvalues --  -10.18216 -10.17838 -10.17739  -1.08870  -1.07760
 Alpha  occ. eigenvalues --   -1.04852  -1.01234  -0.99249  -0.98636  -0.97802
 Alpha  occ. eigenvalues --   -0.97203  -0.94383  -0.93406  -0.83326  -0.82401
 Alpha  occ. eigenvalues --   -0.81989  -0.81506  -0.81104  -0.80097  -0.78836
 Alpha  occ. eigenvalues --   -0.77978  -0.76502  -0.75896  -0.74614  -0.73201
 Alpha  occ. eigenvalues --   -0.72564  -0.70592  -0.70382  -0.69633  -0.68904
 Alpha  occ. eigenvalues --   -0.67091  -0.66303  -0.64766  -0.61491  -0.60745
 Alpha  occ. eigenvalues --   -0.60634  -0.59796  -0.58469  -0.56556  -0.56370
 Alpha  occ. eigenvalues --   -0.55496  -0.55357  -0.55195  -0.54226  -0.53256
 Alpha  occ. eigenvalues --   -0.52427  -0.52113  -0.51068  -0.50987  -0.49971
 Alpha  occ. eigenvalues --   -0.49595  -0.48445  -0.48090  -0.47461  -0.47093
 Alpha  occ. eigenvalues --   -0.46849  -0.46572  -0.46422  -0.46205  -0.45684
 Alpha  occ. eigenvalues --   -0.45533  -0.45394  -0.45062  -0.44201  -0.43880
 Alpha  occ. eigenvalues --   -0.43784  -0.43544  -0.43185  -0.42793  -0.42729
 Alpha  occ. eigenvalues --   -0.42210  -0.41783  -0.41750  -0.41454  -0.41333
 Alpha  occ. eigenvalues --   -0.41159  -0.40851  -0.40611  -0.40568  -0.40199
 Alpha  occ. eigenvalues --   -0.39626  -0.39559  -0.39223  -0.39067  -0.38717
 Alpha  occ. eigenvalues --   -0.38393  -0.37917  -0.37555  -0.37128  -0.36707
 Alpha  occ. eigenvalues --   -0.36476  -0.36077  -0.35659  -0.34899  -0.34108
 Alpha  occ. eigenvalues --   -0.33608  -0.32809  -0.31859  -0.31764  -0.31468
 Alpha  occ. eigenvalues --   -0.31154  -0.30685  -0.29210  -0.28523  -0.27577
 Alpha  occ. eigenvalues --   -0.27479  -0.26566  -0.26242  -0.25009  -0.24861
 Alpha  occ. eigenvalues --   -0.24311  -0.24219  -0.23031  -0.22261  -0.19921
 Alpha virt. eigenvalues --   -0.11941  -0.07304  -0.05740  -0.02100  -0.00344
 Alpha virt. eigenvalues --    0.00937   0.01147   0.01829   0.02991   0.03396
 Alpha virt. eigenvalues --    0.03887   0.04308   0.04923   0.05083   0.05327

 Mulliken charges:
               1
     1  O   -0.174631
     2  O   -0.190530
     3  O   -0.232591
     4  O   -0.215160
     5  O   -0.240489
     6  O   -0.223666
     7  N   -0.106416
     8  N   -0.186400
     9  N   -0.121178
    10  N   -0.261811
    11  C    0.006610
    12  C    0.386766
    13  C   -0.065455
    14  C   -0.193474
    15  C   -0.092904
    16  C    0.051782
    17  C   -0.243085
    18  C    0.123991
    19  C   -0.045927
    20  C   -0.149456
    21  C    0.161884
    22  C    0.100299
    23  C   -0.124890
    24  C    0.289498
    25  C    0.093028
    26  C   -0.121831
    27  C   -0.036573
    28  C    0.044101
    29  C    0.125893
    30  C    0.011791
    31  C    0.041148
    32  C    0.051054
    33  C   -0.055191
    34  C    0.123604
    35  C    0.078096
    36  C   -0.065763
    37  C    0.105352
    38  C    0.111751
    39  C   -0.192752
    40  C    0.161827
    41  C   -0.144853
    42  C    0.078488
    43  C   -0.014667
    44  H    0.025559
    45  H   -0.046200
    46  H   -0.073361
    47  H    0.113176
    48  H    0.153858
    49  H    0.000260
    50  H    0.000173
    51  H    0.039904
    52  H   -0.116019
    53  H    0.028216
    54  H    0.019957
    55  H   -0.015244
    56  H    0.072314
    57  H    0.057316
    58  H    0.107261
    59  H   -0.020504
    60  H    0.176841
    61  H   -0.008369
    62  H    0.032688
    63  H   -0.013779
    64  H    0.029429
    65  H    0.059302
    66  H    0.028718
    67  H    0.065102
    68  H    0.059795
    69  H   -0.051568
    70  H    0.028735
    71  H    0.046457
    72  H    0.166036
    73  H    0.031790
    74  H    0.048024
    75  H    0.010511
    76  H    0.026185
    77  H    0.194009
    78  H    0.047550
    79  H    0.028610
 Sum of Mulliken charges =  -0.00000

 Dipole moment (field-independent basis, Debye):
    X=             -1.1976    Y=              1.1406    Z=              1.7212  Tot=              2.3870
 Quadrupole moment (field-independent basis, Debye-Ang):
   XX=           -220.5729   YY=           -247.9870   ZZ=           -263.7289
   XY=             -8.8535   XZ=             34.6460   YZ=              8.1864

 Normal termination of Gaussian 16 at Wed Oct  2 18:50:34 2019.
