 Gaussian 16, Revision A.03,
 Gaussian 16:  ES64L-G16RevA.03 25-Dec-2016

 --------------------------
 # td=(NStates=1) B3LYP/SVP
 --------------------------

 --
 TD
 --
 Symbolic Z-matrix:
 Charge =  0 Multiplicity = 1

                         Standard orientation:
 ---------------------------------------------------------------------
 Center     Atomic      Atomic             Coordinates (Angstroms)
 Number     Number       Type             X           Y           Z
 ---------------------------------------------------------------------
      1          8           0        5.408793    0.002203   -3.258522
      2          8           0       -3.028524   -2.951849    3.297810
      3          8           0       -3.457966   -0.735194    3.014163
      4          8           0       -1.430815    6.933682    1.832987
      5          8           0       -0.838177    7.093122   -0.507286
      6          8           0       -1.757916   -3.962188    0.124473
      7          7           0        2.410845    0.937407    0.643419
      8          7           0        4.295035   -0.752044   -1.211104
      9          7           0       -1.784511    0.740381   -0.432254
     10          7           0       -2.629563   -1.862670   -0.639732
     11          6           0        4.749608   -1.178882    0.070839
     12          6           0        4.359868   -0.339693    1.334692
     13          6           0        2.863807   -0.060074    1.407786
     14          6           0        1.907955   -0.682874    2.119800
     15          6           0        0.682733   -0.014489    1.795241
     16          6           0        0.962969    1.008346    0.870496
     17          6           0        6.241907   -1.379598   -0.155350
     18          6           0       -0.669198   -0.182859    2.478742
     19          6           0        6.659808   -0.854475   -1.348019
     20          6           0        0.214293    2.007285    0.170313
     21          6           0       -1.056187    1.886486   -0.376615
     22          6           0        5.328616   -0.481669   -2.083470
     23          6           0       -1.813461    2.941312   -1.027445
     24          6           0        2.046657   -1.700701    3.187230
     25          6           0        7.115105   -1.974556    0.927580
     26          6           0       -3.110363    2.420475   -1.378382
     27          6           0       -1.171258   -1.587423    2.676045
     28          6           0       -3.022888    0.974501   -1.079133
     29          6           0       -1.343707    4.368817   -1.006323
     30          6           0        7.894179   -0.724535   -2.121110
     31          6           0       -1.653441    5.003639    0.341625
     32          6           0       -4.328806    3.057760   -2.007339
     33          6           0       -3.936407   -0.069375   -1.475469
     34          6           0       -2.683042   -1.644192    3.101303
     35          6           0       -3.726692   -1.467318   -1.255650
     36          6           0        9.097957   -0.881103   -1.531064
     37          6           0       -1.225014    6.404163    0.418154
     38          6           0       -4.530987   -2.667214   -1.495291
     39          6           0       -3.814856   -3.738181   -1.088451
     40          6           0       -2.580794   -3.303915   -0.470892
     41          6           0       -5.768640   -2.406680   -2.185930
     42          6           0       -4.260546   -5.277550   -1.119253
     43          6           0       -6.643311   -3.328331   -2.636132
     44          1           0        4.200499   -2.336630    0.051278
     45          1           0        4.935724    0.608151    1.070436
     46          1           0        4.806339   -0.974404    2.047978
     47          1           0        2.799682    1.623481    0.131923
     48          1           0        3.305516   -0.710526   -1.592221
     49          1           0       -0.726074    0.312098    3.608597
     50          1           0       -1.439843    0.294555    1.856998
     51          1           0        0.743881    2.941187   -0.298751
     52          1           0        2.971805   -1.741415    3.603907
     53          1           0        1.406794   -1.397289    4.246386
     54          1           0        1.759678   -2.612210    2.957363
     55          1           0        6.675711   -2.544920    1.844523
     56          1           0        7.829963   -1.060457    1.501874
     57          1           0        7.848602   -2.802782    0.354788
     58          1           0       -1.136687   -2.092362    1.666451
     59          1           0       -0.592248   -2.184812    3.353522
     60          1           0       -1.638585   -0.311159   -0.170297
     61          1           0       -1.989335    4.940889   -1.722666
     62          1           0       -0.181589    4.459663   -1.300125
     63          1           0        7.783418   -0.280797   -3.114117
     64          1           0       -1.051937    4.488581    1.088723
     65          1           0       -2.729934    4.802366    0.455984
     66          1           0       -4.045259    4.063139   -2.216514
     67          1           0       -5.211897    3.013677   -0.980724
     68          1           0       -4.465396    2.407830   -3.010561
     69          1           0       -4.628985    0.244795   -2.072430
     70          1           0        9.401421   -1.242347   -0.467022
     71          1           0        9.986419   -0.653383   -2.242011
     72          1           0       -4.080180   -2.960764    3.522400
     73          1           0       -5.894927   -1.254554   -2.370354
     74          1           0       -5.158468   -5.277556   -0.602270
     75          1           0       -4.322194   -5.616660   -2.129008
     76          1           0       -3.452462   -5.711712   -0.478998
     77          1           0       -1.353171    7.900862    1.771484
     78          1           0       -7.593544   -3.174400   -2.942770
     79          1           0       -6.683719   -4.402441   -2.326260
 ---------------------------------------------------------------------

 SCF Done:  E(RB3LYP) =  -1947.81979717     A.U. after   17 cycles

 Excitation energies and oscillator strengths:

 Excited State   1:      Singlet-A      1.9026 eV  651.66 nm  f=0.4055  <S**2>=0.000
     154 ->156         0.13444
     155 ->156         0.69237
     155 <-156        -0.12743
 This state for optimization and/or second-order correction.
 Total Energy, E(TD-HF/TD-DFT) =  -1947.74987788
 Copying the excited state density for this state as the 1-particle RhoCI density.

 The electronic state is 1-A.
 Alpha  occ. eigenvalues --  -19.17619 -19.16825 -19.15765 -19.12093 -19.11729
 Alpha  occ. eigenvalues --  -19.09832 -14.38339 -14.36842 -14.36557 -14.28491
 Alpha  occ. eigenvalues --  -10.33863 -10.30931 -10.28822 -10.26911 -10.26666
 Alpha  occ. eigenvalues --  -10.25294 -10.24436 -10.24138 -10.24064 -10.23844
 Alpha  occ. eigenvalues --  -10.23822 -10.22967 -10.22839 -10.22822 -10.22524
 Alpha  occ. eigenvalues --  -10.22335 -10.22232 -10.22057 -10.21928 -10.21203
 Alpha  occ. eigenvalues --  -10.20825 -10.20446 -10.20367 -10.20227 -10.20026
 Alpha  occ. eigenvalues --  -10.19657 -10.19376 -10.19308 -10.19286 -10.19106
 Alpha  occ. eigenvalues --  -10.19026 -10.18699 -10.18343  -1.07442  -1.07170
 Alpha  occ. eigenvalues --   -1.02496  -0.99926  -0.99266  -0.99252  -0.99240
 Alpha  occ. eigenvalues --   -0.97148  -0.94061  -0.92454  -0.83364  -0.82459
 Alpha  occ. eigenvalues --   -0.81839  -0.81444  -0.79883  -0.79634  -0.78235
 Alpha  occ. eigenvalues --   -0.77267  -0.76573  -0.75351  -0.74149  -0.72933
 Alpha  occ. eigenvalues --   -0.72081  -0.69977  -0.69546  -0.69096  -0.67797
 Alpha  occ. eigenvalues --   -0.66291  -0.65868  -0.64401  -0.61417  -0.60393
 Alpha  occ. eigenvalues --   -0.59892  -0.59113  -0.57817  -0.57679  -0.57100
 Alpha  occ. eigenvalues --   -0.56419  -0.55412  -0.54229  -0.53860  -0.53314
 Alpha  occ. eigenvalues --   -0.52215  -0.51407  -0.50876  -0.50718  -0.50106
 Alpha  occ. eigenvalues --   -0.49491  -0.48214  -0.47779  -0.47296  -0.47164
 Alpha  occ. eigenvalues --   -0.46955  -0.46771  -0.46610  -0.45944  -0.45758
 Alpha  occ. eigenvalues --   -0.45543  -0.44615  -0.44234  -0.43889  -0.43858
 Alpha  occ. eigenvalues --   -0.43763  -0.43570  -0.42831  -0.42636  -0.42347
 Alpha  occ. eigenvalues --   -0.41940  -0.41798  -0.41702  -0.41320  -0.41078
 Alpha  occ. eigenvalues --   -0.40677  -0.40616  -0.40264  -0.40121  -0.39953
 Alpha  occ. eigenvalues --   -0.39473  -0.39463  -0.39115  -0.38836  -0.37755
 Alpha  occ. eigenvalues --   -0.37681  -0.37239  -0.37134  -0.37029  -0.36803
 Alpha  occ. eigenvalues --   -0.36233  -0.36008  -0.35509  -0.35096  -0.34620
 Alpha  occ. eigenvalues --   -0.34244  -0.33570  -0.33246  -0.32352  -0.31604
 Alpha  occ. eigenvalues --   -0.31514  -0.31363  -0.29998  -0.29139  -0.27587
 Alpha  occ. eigenvalues --   -0.27232  -0.26139  -0.25650  -0.25390  -0.24726
 Alpha  occ. eigenvalues --   -0.24552  -0.23808  -0.23717  -0.22429  -0.19011
 Alpha virt. eigenvalues --   -0.11568  -0.07485  -0.05858  -0.03023  -0.00787
 Alpha virt. eigenvalues --    0.00299   0.00932   0.01139   0.01445   0.02392
 Alpha virt. eigenvalues --    0.03200   0.03291   0.03556   0.03989   0.04186

 Mulliken charges:
               1
     1  O   -0.288476
     2  O   -0.242189
     3  O   -0.212226
     4  O   -0.300931
     5  O   -0.196123
     6  O   -0.187859
     7  N   -0.047272
     8  N   -0.208207
     9  N   -0.124903
    10  N   -0.337481
    11  C    0.010016
    12  C    0.267396
    13  C   -0.052316
    14  C   -0.122234
    15  C   -0.073678
    16  C    0.078702
    17  C   -0.151772
    18  C    0.049949
    19  C   -0.031366
    20  C   -0.086588
    21  C    0.072206
    22  C    0.163601
    23  C   -0.092078
    24  C    0.156023
    25  C   -0.086913
    26  C   -0.153000
    27  C   -0.048099
    28  C    0.086544
    29  C    0.012106
    30  C    0.015463
    31  C    0.048549
    32  C    0.035160
    33  C   -0.001206
    34  C    0.150901
    35  C    0.080907
    36  C   -0.074324
    37  C    0.189246
    38  C    0.093507
    39  C   -0.269074
    40  C    0.186670
    41  C   -0.039849
    42  C    0.140256
    43  C   -0.004394
    44  H    0.038169
    45  H    0.003963
    46  H   -0.019684
    47  H    0.079154
    48  H    0.158957
    49  H    0.032378
    50  H    0.011949
    51  H    0.007443
    52  H   -0.030054
    53  H    0.027842
    54  H    0.000385
    55  H    0.046354
    56  H    0.061861
    57  H    0.071453
    58  H    0.073286
    59  H    0.010083
    60  H    0.181796
    61  H    0.019785
    62  H    0.048413
    63  H    0.030040
    64  H    0.041120
    65  H    0.057837
    66  H    0.011911
    67  H    0.080419
    68  H    0.078244
    69  H   -0.115571
    70  H    0.051007
    71  H    0.035162
    72  H    0.216719
    73  H    0.024456
    74  H    0.010719
    75  H    0.031122
    76  H    0.031161
    77  H    0.181327
    78  H   -0.011541
    79  H    0.017693
 Sum of Mulliken charges =  -0.00000

 Dipole moment (field-independent basis, Debye):
    X=             -0.4074    Y=              1.3054    Z=              3.1214  Tot=              3.4078
 Quadrupole moment (field-independent basis, Debye-Ang):
   XX=           -224.8613   YY=           -252.9205   ZZ=           -263.8264
   XY=             -5.9378   XZ=             31.6921   YZ=             -1.8314

 Normal termination of Gaussian 16 at Mon Oct  7 09:26:57 2019.
