 Gaussian 16, Revision A.03,
 Gaussian 16:  ES64L-G16RevA.03 25-Dec-2016

 --------------------------
 # td=(NStates=1) B3LYP/SVP
 --------------------------

 --
 TD
 --
 Symbolic Z-matrix:
 Charge =  0 Multiplicity = 1

                         Standard orientation:
 ---------------------------------------------------------------------
 Center     Atomic      Atomic             Coordinates (Angstroms)
 Number     Number       Type             X           Y           Z
 ---------------------------------------------------------------------
      1          8           0        5.432299   -0.268904   -3.302276
      2          8           0       -3.116050   -2.855991    2.995114
      3          8           0       -3.430790   -0.697801    2.901144
      4          8           0       -1.648951    7.180449    1.383011
      5          8           0       -0.338094    6.920842   -0.408405
      6          8           0       -1.745280   -3.929499   -0.020658
      7          7           0        2.455925    0.946122    0.622390
      8          7           0        4.451515   -0.564291   -1.242938
      9          7           0       -1.742358    0.617760   -0.447635
     10          7           0       -2.641104   -1.834451   -0.442237
     11          6           0        4.800058   -1.149465   -0.008762
     12          6           0        4.372826   -0.347814    1.304029
     13          6           0        2.954899   -0.049308    1.327064
     14          6           0        1.962373   -0.689781    2.090746
     15          6           0        0.663707    0.008186    1.709900
     16          6           0        1.050999    0.959071    0.720668
     17          6           0        6.267788   -1.455837   -0.145118
     18          6           0       -0.615431   -0.159274    2.405045
     19          6           0        6.707749   -1.019652   -1.415307
     20          6           0        0.204268    1.912476    0.144553
     21          6           0       -1.155799    1.854497   -0.363150
     22          6           0        5.514401   -0.542797   -2.104844
     23          6           0       -1.909326    2.952077   -0.843294
     24          6           0        2.195022   -1.720731    3.194432
     25          6           0        6.970207   -2.052976    1.016946
     26          6           0       -3.123641    2.322870   -1.286978
     27          6           0       -1.133773   -1.588384    2.357333
     28          6           0       -3.037728    0.902381   -0.964288
     29          6           0       -1.427091    4.342102   -0.945215
     30          6           0        8.052904   -0.809468   -1.925518
     31          6           0       -1.800497    5.175883    0.330466
     32          6           0       -4.336892    2.995216   -1.876531
     33          6           0       -4.026752   -0.042903   -1.243511
     34          6           0       -2.735767   -1.587032    2.746349
     35          6           0       -3.707636   -1.461339   -1.009742
     36          6           0        9.211649   -0.747086   -1.324441
     37          6           0       -1.200638    6.446467    0.338388
     38          6           0       -4.646010   -2.565092   -1.419796
     39          6           0       -3.915226   -3.727524   -1.076329
     40          6           0       -2.656450   -3.212399   -0.497288
     41          6           0       -5.972685   -2.429468   -1.924461
     42          6           0       -4.268154   -5.166013   -1.121991
     43          6           0       -6.950554   -3.383680   -2.267910
     44          1           0        4.370102   -2.233749    0.148215
     45          1           0        5.065239    0.764679    1.203996
     46          1           0        4.723171   -0.672832    2.243702
     47          1           0        2.871467    1.396083   -0.029224
     48          1           0        3.536091   -0.582976   -1.636134
     49          1           0       -0.437418    0.261894    3.422948
     50          1           0       -1.405115    0.409044    1.957050
     51          1           0        0.631390    2.921342    0.141735
     52          1           0        3.368401   -1.630615    3.279483
     53          1           0        1.452453   -1.472093    4.003517
     54          1           0        1.969142   -2.815894    2.933585
     55          1           0        6.257380   -2.923220    1.535508
     56          1           0        6.997688   -1.376106    1.845876
     57          1           0        7.878785   -2.597990    0.669940
     58          1           0       -0.913938   -2.297656    1.440751
     59          1           0       -0.541445   -2.309915    3.171202
     60          1           0       -1.513383   -0.455667   -0.583772
     61          1           0       -1.788096    4.855226   -1.966781
     62          1           0       -0.429038    4.403206   -1.042201
     63          1           0        8.070779   -0.438509   -2.863874
     64          1           0       -1.342953    4.610417    1.221411
     65          1           0       -2.818049    5.016829    0.563763
     66          1           0       -4.377338    4.104400   -1.499689
     67          1           0       -5.337088    2.520068   -1.333019
     68          1           0       -4.108933    2.971371   -3.112200
     69          1           0       -4.996219    0.306670   -1.606131
     70          1           0        9.347437   -0.936591   -0.274438
     71          1           0       10.221621   -0.408250   -1.737246
     72          1           0       -3.899034   -2.964590    3.286802
     73          1           0       -6.187529   -1.372821   -2.353614
     74          1           0       -5.159825   -5.120941   -0.433940
     75          1           0       -4.757413   -5.382563   -1.897437
     76          1           0       -3.530324   -5.813154   -0.881527
     77          1           0       -1.103207    8.034707    1.500086
     78          1           0       -7.992051   -3.117795   -2.565099
     79          1           0       -6.868448   -4.379966   -2.092408
 ---------------------------------------------------------------------

 SCF Done:  E(RB3LYP) =  -1947.80845284     A.U. after   18 cycles

 Excitation energies and oscillator strengths:

 Excited State   1:      Singlet-A      1.9419 eV  638.45 nm  f=0.4669  <S**2>=0.000
     155 ->156         0.70341
     155 <-156        -0.13177
 This state for optimization and/or second-order correction.
 Total Energy, E(TD-HF/TD-DFT) =  -1947.73708753
 Copying the excited state density for this state as the 1-particle RhoCI density.

 The electronic state is 1-A.
 Alpha  occ. eigenvalues --  -19.18371 -19.14658 -19.12917 -19.11993 -19.10353
 Alpha  occ. eigenvalues --  -19.09637 -14.37715 -14.35882 -14.35795 -14.29658
 Alpha  occ. eigenvalues --  -10.32578 -10.30519 -10.28345 -10.26617 -10.25983
 Alpha  occ. eigenvalues --  -10.24393 -10.23909 -10.23625 -10.23516 -10.23443
 Alpha  occ. eigenvalues --  -10.23107 -10.23010 -10.22983 -10.22398 -10.21755
 Alpha  occ. eigenvalues --  -10.21661 -10.21646 -10.21427 -10.21315 -10.21300
 Alpha  occ. eigenvalues --  -10.21258 -10.21010 -10.20428 -10.20365 -10.20187
 Alpha  occ. eigenvalues --  -10.20119 -10.19954 -10.19655 -10.19499 -10.19140
 Alpha  occ. eigenvalues --  -10.19106 -10.18529 -10.17438  -1.10929  -1.09161
 Alpha  occ. eigenvalues --   -1.02629  -1.02505  -1.00690  -1.00312  -0.99411
 Alpha  occ. eigenvalues --   -0.96785  -0.95105  -0.93972  -0.83293  -0.82682
 Alpha  occ. eigenvalues --   -0.81889  -0.81153  -0.80962  -0.79352  -0.78612
 Alpha  occ. eigenvalues --   -0.77754  -0.76178  -0.75354  -0.74728  -0.72560
 Alpha  occ. eigenvalues --   -0.72237  -0.70873  -0.70665  -0.69100  -0.68242
 Alpha  occ. eigenvalues --   -0.67639  -0.66439  -0.64285  -0.61920  -0.61477
 Alpha  occ. eigenvalues --   -0.60632  -0.60132  -0.58799  -0.57935  -0.57408
 Alpha  occ. eigenvalues --   -0.56973  -0.55398  -0.55096  -0.54363  -0.53883
 Alpha  occ. eigenvalues --   -0.52794  -0.52689  -0.51840  -0.51524  -0.49877
 Alpha  occ. eigenvalues --   -0.48923  -0.48705  -0.48554  -0.47908  -0.47600
 Alpha  occ. eigenvalues --   -0.47078  -0.47038  -0.46635  -0.46508  -0.45973
 Alpha  occ. eigenvalues --   -0.45607  -0.45059  -0.44579  -0.44167  -0.43738
 Alpha  occ. eigenvalues --   -0.43595  -0.43282  -0.43221  -0.42871  -0.42549
 Alpha  occ. eigenvalues --   -0.42297  -0.42059  -0.41907  -0.41518  -0.41008
 Alpha  occ. eigenvalues --   -0.40719  -0.40406  -0.40204  -0.40133  -0.39797
 Alpha  occ. eigenvalues --   -0.39551  -0.39440  -0.39133  -0.38743  -0.38530
 Alpha  occ. eigenvalues --   -0.38364  -0.37731  -0.37580  -0.36944  -0.36200
 Alpha  occ. eigenvalues --   -0.36028  -0.35747  -0.35427  -0.34546  -0.34332
 Alpha  occ. eigenvalues --   -0.33658  -0.33386  -0.32388  -0.32233  -0.32099
 Alpha  occ. eigenvalues --   -0.30781  -0.30594  -0.28725  -0.28542  -0.28374
 Alpha  occ. eigenvalues --   -0.27372  -0.26919  -0.25476  -0.25376  -0.24664
 Alpha  occ. eigenvalues --   -0.24330  -0.23952  -0.23370  -0.22193  -0.18352
 Alpha virt. eigenvalues --   -0.10996  -0.07289  -0.06681  -0.01626  -0.01316
 Alpha virt. eigenvalues --    0.00612   0.01128   0.02254   0.02558   0.03086
 Alpha virt. eigenvalues --    0.03565   0.03955   0.04821   0.05014   0.05062

 Mulliken charges:
               1
     1  O   -0.238553
     2  O   -0.116501
     3  O   -0.144242
     4  O   -0.221310
     5  O   -0.249240
     6  O   -0.234901
     7  N    0.070855
     8  N   -0.131568
     9  N   -0.143354
    10  N   -0.211856
    11  C    0.078341
    12  C    0.070065
    13  C   -0.069534
    14  C   -0.150514
    15  C   -0.111831
    16  C    0.075452
    17  C   -0.176004
    18  C    0.175020
    19  C   -0.016802
    20  C   -0.132242
    21  C    0.079605
    22  C    0.117707
    23  C   -0.066033
    24  C    0.051066
    25  C    0.060482
    26  C   -0.153515
    27  C   -0.157289
    28  C    0.125821
    29  C    0.141437
    30  C    0.063275
    31  C    0.004017
    32  C   -0.027386
    33  C   -0.124524
    34  C    0.127452
    35  C    0.061203
    36  C   -0.059670
    37  C    0.163981
    38  C    0.033143
    39  C   -0.240130
    40  C    0.140882
    41  C   -0.061521
    42  C    0.295128
    43  C   -0.027404
    44  H    0.040028
    45  H    0.017840
    46  H   -0.003834
    47  H    0.038070
    48  H    0.124929
    49  H    0.021730
    50  H    0.006820
    51  H   -0.013527
    52  H    0.012790
    53  H    0.041941
    54  H    0.045627
    55  H    0.026988
    56  H    0.038148
    57  H    0.057766
    58  H    0.092525
    59  H    0.023462
    60  H    0.205588
    61  H    0.041471
    62  H   -0.031073
    63  H   -0.036051
    64  H    0.057744
    65  H    0.024149
    66  H    0.036673
    67  H    0.067750
    68  H    0.077126
    69  H   -0.024572
    70  H   -0.004945
    71  H    0.040420
    72  H    0.093558
    73  H    0.021748
    74  H    0.017584
    75  H   -0.057908
    76  H    0.003866
    77  H    0.208873
    78  H    0.035416
    79  H   -0.017733
 Sum of Mulliken charges =  -0.00000

 Dipole moment (field-independent basis, Debye):
    X=             -0.3273    Y=              1.5938    Z=              3.8351  Tot=              4.1660
 Quadrupole moment (field-independent basis, Debye-Ang):
   XX=           -222.0548   YY=           -246.3650   ZZ=           -264.1281
   XY=             -4.5931   XZ=             32.8615   YZ=              4.7329

 Normal termination of Gaussian 16 at Thu Sep 12 22:14:00 2019.
