 Gaussian 16, Revision A.03,
 Gaussian 16:  ES64L-G16RevA.03 25-Dec-2016

 --------------------------
 # td=(NStates=1) B3LYP/SVP
 --------------------------

 --
 TD
 --
 Symbolic Z-matrix:
 Charge =  0 Multiplicity = 1

                         Standard orientation:
 ---------------------------------------------------------------------
 Center     Atomic      Atomic             Coordinates (Angstroms)
 Number     Number       Type             X           Y           Z
 ---------------------------------------------------------------------
      1          8           0        5.372761   -0.238251   -3.279384
      2          8           0       -3.163742   -2.878069    3.199669
      3          8           0       -3.537295   -0.713089    2.657425
      4          8           0       -1.215134    7.232471    1.607210
      5          8           0       -0.406810    7.133634   -0.480422
      6          8           0       -1.908453   -4.002848    0.124056
      7          7           0        2.430182    0.994898    0.555285
      8          7           0        4.436836   -0.697975   -1.234650
      9          7           0       -1.786965    0.641798   -0.501171
     10          7           0       -2.732373   -1.910612   -0.456700
     11          6           0        4.768004   -1.258966    0.055163
     12          6           0        4.447720   -0.315365    1.170187
     13          6           0        2.931785    0.063426    1.366471
     14          6           0        2.063154   -0.580798    2.086716
     15          6           0        0.771150   -0.037320    1.730046
     16          6           0        0.993461    1.023267    0.755625
     17          6           0        6.225549   -1.544160   -0.098564
     18          6           0       -0.647058   -0.159934    2.476769
     19          6           0        6.632538   -1.073250   -1.349409
     20          6           0        0.209656    1.959026    0.163097
     21          6           0       -1.109747    1.815419   -0.315038
     22          6           0        5.506432   -0.674927   -2.136000
     23          6           0       -1.894100    2.972624   -0.860847
     24          6           0        2.194804   -1.814492    2.949296
     25          6           0        7.069991   -2.078747    0.992689
     26          6           0       -3.084206    2.337692   -1.373218
     27          6           0       -1.079026   -1.613810    2.567266
     28          6           0       -3.031424    0.936809   -1.091631
     29          6           0       -1.374838    4.412273   -0.913497
     30          6           0        7.961272   -1.065913   -2.021945
     31          6           0       -1.579711    5.170382    0.354643
     32          6           0       -4.242418    3.008295   -1.923610
     33          6           0       -3.984099   -0.033123   -1.326407
     34          6           0       -2.714274   -1.586396    2.867998
     35          6           0       -3.803074   -1.431182   -1.034509
     36          6           0        9.170124   -1.071243   -1.407399
     37          6           0       -1.007936    6.504897    0.360635
     38          6           0       -4.690885   -2.523725   -1.349218
     39          6           0       -4.142314   -3.700583   -0.884244
     40          6           0       -2.853095   -3.274862   -0.358146
     41          6           0       -5.915521   -2.245963   -2.067201
     42          6           0       -4.531416   -5.164877   -1.014121
     43          6           0       -6.835197   -3.122017   -2.455520
     44          1           0        4.071622   -2.184629    0.285368
     45          1           0        5.191038    0.586588    0.994975
     46          1           0        4.702526   -0.728039    2.181229
     47          1           0        2.796248    1.543219   -0.291490
     48          1           0        3.480081   -0.531586   -1.655076
     49          1           0       -0.522426    0.320434    3.548149
     50          1           0       -1.408247    0.287764    1.664814
     51          1           0        0.786822    2.808236    0.061511
     52          1           0        3.260733   -1.715042    3.208502
     53          1           0        1.655379   -1.498343    3.896895
     54          1           0        1.871544   -2.805713    2.708004
     55          1           0        6.402927   -2.756297    1.778764
     56          1           0        7.655580   -1.177968    1.457252
     57          1           0        7.857238   -2.853147    0.604577
     58          1           0       -1.079024   -2.197612    1.665693
     59          1           0       -0.751594   -2.266627    3.403687
     60          1           0       -1.730386   -0.475615   -0.173434
     61          1           0       -1.565808    5.018634   -2.042163
     62          1           0       -0.499912    4.449148   -1.007274
     63          1           0        7.992508   -0.650470   -3.054479
     64          1           0       -0.991578    4.802667    1.337624
     65          1           0       -2.610873    5.507719    0.686580
     66          1           0       -4.004940    4.050360   -1.876747
     67          1           0       -5.228753    3.015670   -1.115728
     68          1           0       -4.647366    2.586669   -2.729001
     69          1           0       -4.903687    0.369838   -1.770271
     70          1           0        9.368004   -0.952479   -0.426087
     71          1           0       10.138586   -1.049362   -1.886700
     72          1           0       -4.033862   -2.964068    3.197683
     73          1           0       -6.190367   -1.382459   -2.420444
     74          1           0       -5.840098   -5.034974   -0.985183
     75          1           0       -4.368274   -5.613377   -2.040168
     76          1           0       -3.942869   -5.738256   -0.182778
     77          1           0       -0.451795    7.945867    1.591597
     78          1           0       -7.878261   -2.900612   -2.931451
     79          1           0       -6.696887   -4.278415   -2.348663
 ---------------------------------------------------------------------

 SCF Done:  E(RB3LYP) =  -1947.74690553     A.U. after   19 cycles

 Excitation energies and oscillator strengths:

 Excited State   1:      Singlet-A      1.9318 eV  641.80 nm  f=0.4594  <S**2>=0.000
     154 ->156         0.13102
     155 ->156         0.70095
     155 <-156        -0.14815
 This state for optimization and/or second-order correction.
 Total Energy, E(TD-HF/TD-DFT) =  -1947.67591299
 Copying the excited state density for this state as the 1-particle RhoCI density.

 The electronic state is 1-A.
 Alpha  occ. eigenvalues --  -19.16607 -19.14953 -19.13910 -19.12168 -19.10138
 Alpha  occ. eigenvalues --  -19.09880 -14.38959 -14.36671 -14.35051 -14.29530
 Alpha  occ. eigenvalues --  -10.32742 -10.31287 -10.28103 -10.26364 -10.25700
 Alpha  occ. eigenvalues --  -10.25242 -10.24193 -10.23830 -10.23733 -10.23684
 Alpha  occ. eigenvalues --  -10.23323 -10.23218 -10.23090 -10.22830 -10.22769
 Alpha  occ. eigenvalues --  -10.22223 -10.21789 -10.21747 -10.21460 -10.21273
 Alpha  occ. eigenvalues --  -10.21098 -10.21023 -10.20756 -10.20643 -10.20312
 Alpha  occ. eigenvalues --  -10.20224 -10.20188 -10.20162 -10.20037 -10.19808
 Alpha  occ. eigenvalues --  -10.19378 -10.19180 -10.19091  -1.07737  -1.07150
 Alpha  occ. eigenvalues --   -1.01940  -0.99188  -0.99082  -0.98800  -0.97947
 Alpha  occ. eigenvalues --   -0.96951  -0.94017  -0.92911  -0.84161  -0.82684
 Alpha  occ. eigenvalues --   -0.81908  -0.81433  -0.81082  -0.80129  -0.79151
 Alpha  occ. eigenvalues --   -0.77940  -0.76493  -0.75701  -0.75206  -0.73387
 Alpha  occ. eigenvalues --   -0.71866  -0.71342  -0.70247  -0.69293  -0.69014
 Alpha  occ. eigenvalues --   -0.66613  -0.65873  -0.64060  -0.61761  -0.60968
 Alpha  occ. eigenvalues --   -0.59298  -0.58511  -0.57886  -0.57681  -0.57228
 Alpha  occ. eigenvalues --   -0.56422  -0.55693  -0.54909  -0.54550  -0.54049
 Alpha  occ. eigenvalues --   -0.52961  -0.51567  -0.51428  -0.51004  -0.50322
 Alpha  occ. eigenvalues --   -0.49301  -0.48284  -0.48140  -0.47861  -0.47703
 Alpha  occ. eigenvalues --   -0.47357  -0.46942  -0.46581  -0.46128  -0.45407
 Alpha  occ. eigenvalues --   -0.45148  -0.44825  -0.44580  -0.44184  -0.43772
 Alpha  occ. eigenvalues --   -0.43340  -0.43212  -0.43041  -0.42874  -0.42551
 Alpha  occ. eigenvalues --   -0.42179  -0.42042  -0.41953  -0.41445  -0.41309
 Alpha  occ. eigenvalues --   -0.40752  -0.40304  -0.39979  -0.39894  -0.39747
 Alpha  occ. eigenvalues --   -0.39512  -0.39151  -0.38981  -0.38721  -0.38670
 Alpha  occ. eigenvalues --   -0.38293  -0.37913  -0.37411  -0.36900  -0.36856
 Alpha  occ. eigenvalues --   -0.36539  -0.36203  -0.35372  -0.35004  -0.34592
 Alpha  occ. eigenvalues --   -0.34126  -0.33379  -0.32652  -0.31753  -0.31191
 Alpha  occ. eigenvalues --   -0.31089  -0.30872  -0.28987  -0.28440  -0.27524
 Alpha  occ. eigenvalues --   -0.26694  -0.26029  -0.25798  -0.25540  -0.25220
 Alpha  occ. eigenvalues --   -0.24950  -0.24372  -0.24115  -0.22732  -0.18977
 Alpha virt. eigenvalues --   -0.11824  -0.07507  -0.07261  -0.01138  -0.00684
 Alpha virt. eigenvalues --   -0.00260   0.00435   0.01071   0.02019   0.02400
 Alpha virt. eigenvalues --    0.02819   0.03184   0.04067   0.04471   0.04849

 Mulliken charges:
               1
     1  O   -0.238533
     2  O   -0.178509
     3  O   -0.225976
     4  O   -0.315902
     5  O   -0.212139
     6  O   -0.269439
     7  N   -0.125427
     8  N   -0.243015
     9  N   -0.177145
    10  N   -0.252025
    11  C    0.122100
    12  C    0.100727
    13  C   -0.049727
    14  C   -0.150146
    15  C   -0.097920
    16  C    0.086602
    17  C   -0.139642
    18  C    0.028307
    19  C   -0.050058
    20  C   -0.124121
    21  C    0.151030
    22  C    0.151895
    23  C   -0.090709
    24  C    0.143053
    25  C   -0.020036
    26  C   -0.149007
    27  C   -0.022599
    28  C    0.123786
    29  C    0.273540
    30  C    0.013028
    31  C   -0.026122
    32  C    0.125636
    33  C   -0.103583
    34  C    0.147744
    35  C    0.107142
    36  C   -0.019550
    37  C    0.113227
    38  C    0.099832
    39  C   -0.160228
    40  C    0.148257
    41  C    0.055797
    42  C   -0.024563
    43  C   -0.111759
    44  H    0.033531
    45  H    0.005781
    46  H    0.009702
    47  H    0.155252
    48  H    0.138447
    49  H    0.049847
    50  H    0.059788
    51  H   -0.041315
    52  H   -0.017173
    53  H    0.015459
    54  H    0.054901
    55  H    0.049681
    56  H    0.071978
    57  H    0.060307
    58  H    0.059904
    59  H    0.031168
    60  H    0.227016
    61  H    0.066416
    62  H   -0.140086
    63  H    0.036794
    64  H    0.083578
    65  H    0.065844
    66  H    0.007562
    67  H    0.033188
    68  H   -0.001609
    69  H   -0.027913
    70  H   -0.021000
    71  H    0.021533
    72  H    0.122549
    73  H   -0.085661
    74  H    0.048304
    75  H    0.058127
    76  H    0.069186
    77  H    0.214093
    78  H    0.043492
    79  H    0.027513
 Sum of Mulliken charges =  -0.00000

 Dipole moment (field-independent basis, Debye):
    X=              1.6659    Y=              1.7533    Z=              2.8254  Tot=              3.7192
 Quadrupole moment (field-independent basis, Debye-Ang):
   XX=           -217.1756   YY=           -263.1535   ZZ=           -263.6630
   XY=             -1.9659   XZ=             37.8990   YZ=              1.3201

 Normal termination of Gaussian 16 at Fri Oct  4 06:59:09 2019.
