 Gaussian 16, Revision A.03,
 Gaussian 16:  ES64L-G16RevA.03 25-Dec-2016

 --------------------------
 # td=(NStates=1) B3LYP/SVP
 --------------------------

 --
 TD
 --
 Symbolic Z-matrix:
 Charge =  0 Multiplicity = 1

                         Standard orientation:
 ---------------------------------------------------------------------
 Center     Atomic      Atomic             Coordinates (Angstroms)
 Number     Number       Type             X           Y           Z
 ---------------------------------------------------------------------
      1          8           0       -3.161498   -1.501163   -2.830596
      2          8           0        2.956117    3.253131    3.032413
      3          8           0        3.554649    1.597516    4.406489
      4          8           0        7.799420   -1.731846   -0.907765
      5          8           0        6.584816   -3.233855   -2.036127
      6          8           0       -2.600439    1.626349    1.325175
      7          7           0       -0.376728   -2.267530    0.978361
      8          7           0       -2.693680   -1.254398   -0.586013
      9          7           0        1.144641    0.086077   -0.670536
     10          7           0       -1.026364    1.338829   -0.338417
     11          6           0       -3.475156   -1.335358    0.648103
     12          6           0       -2.704494   -2.208730    1.724827
     13          6           0       -1.280987   -1.899537    1.885493
     14          6           0       -0.670990   -1.038135    2.834918
     15          6           0        0.709372   -0.986515    2.517531
     16          6           0        1.012559   -1.719415    1.315308
     17          6           0       -4.837716   -1.917345    0.258327
     18          6           0        1.797034   -0.334099    3.183553
     19          6           0       -4.851666   -2.039396   -1.067428
     20          6           0        2.007537   -1.891080    0.458786
     21          6           0        2.096854   -0.903004   -0.501985
     22          6           0       -3.458503   -1.550783   -1.662122
     23          6           0        3.125691   -0.723890   -1.610797
     24          6           0       -1.340190   -0.436983    3.985012
     25          6           0       -5.981556   -2.165498    1.155210
     26          6           0        2.719196    0.438599   -2.282999
     27          6           0        1.822372    1.184161    2.838934
     28          6           0        1.448829    0.872620   -1.764566
     29          6           0        4.217339   -1.533505   -1.884624
     30          6           0       -5.808835   -2.436478   -2.036636
     31          6           0        5.446182   -1.386055   -0.941000
     32          6           0        3.308599    1.105191   -3.463922
     33          6           0        0.592369    1.922202   -1.996729
     34          6           0        2.768300    1.997441    3.482900
     35          6           0       -0.562207    2.239056   -1.289293
     36          6           0       -6.920619   -3.349621   -1.711687
     37          6           0        6.649174   -2.177723   -1.403213
     38          6           0       -1.371604    3.520691   -1.405389
     39          6           0       -2.256909    3.396474   -0.340496
     40          6           0       -1.930254    2.086557    0.391051
     41          6           0       -1.144379    4.571752   -2.456780
     42          6           0       -3.193132    4.463913    0.066297
     43          6           0       -1.760812    5.693561   -2.648593
     44          1           0       -3.516213   -0.368401    1.088448
     45          1           0       -2.755498   -3.246793    1.361241
     46          1           0       -3.240790   -2.099606    2.655991
     47          1           0       -0.500570   -2.791426    0.125691
     48          1           0       -1.911678   -0.613590   -0.482181
     49          1           0        1.665294   -0.213640    4.373576
     50          1           0        2.614309   -0.857902    2.992582
     51          1           0        2.838021   -2.629853    0.768390
     52          1           0       -2.105462   -1.035861    4.362109
     53          1           0       -0.693576   -0.004458    4.821603
     54          1           0       -2.162484    0.251045    3.575719
     55          1           0       -5.863101   -1.514800    1.981888
     56          1           0       -5.990904   -3.199289    1.484685
     57          1           0       -6.834959   -2.088444    0.567269
     58          1           0        1.796891    1.408946    1.726757
     59          1           0        0.729454    1.721069    3.222633
     60          1           0        0.341020    0.369876   -0.112236
     61          1           0        4.535190   -1.288719   -2.869539
     62          1           0        3.934736   -2.704689   -1.981355
     63          1           0       -5.764296   -2.337834   -3.098861
     64          1           0        5.317327   -1.944270    0.187360
     65          1           0        5.852573   -0.381964   -0.803692
     66          1           0        4.414005    0.686548   -3.840982
     67          1           0        3.662197    2.091957   -3.147558
     68          1           0        2.557956    1.115073   -4.453862
     69          1           0        0.761608    2.573453   -2.826021
     70          1           0       -7.034675   -3.674920   -0.763292
     71          1           0       -7.653790   -3.347243   -2.502929
     72          1           0        3.827006    3.553511    3.573032
     73          1           0       -0.377445    4.209838   -3.111483
     74          1           0       -3.900865    4.625370   -0.715198
     75          1           0       -3.775198    4.208436    1.023375
     76          1           0       -2.807170    5.353874    0.403186
     77          1           0        8.572672   -2.351345   -1.287402
     78          1           0       -1.499118    6.328907   -3.531218
     79          1           0       -2.460454    6.040846   -2.036154
 ---------------------------------------------------------------------

 SCF Done:  E(RB3LYP) =  -1947.84761790     A.U. after   19 cycles

 Excitation energies and oscillator strengths:

 Excited State   1:      Singlet-A      0.8215 eV 1509.25 nm  f=0.0071  <S**2>=0.000
     155 ->156         0.70349
 This state for optimization and/or second-order correction.
 Total Energy, E(TD-HF/TD-DFT) =  -1947.81742844
 Copying the excited state density for this state as the 1-particle RhoCI density.

 The electronic state is 1-A.
 Alpha  occ. eigenvalues --  -19.20306 -19.18230 -19.12945 -19.11744 -19.10881
 Alpha  occ. eigenvalues --  -19.07723 -14.36934 -14.36180 -14.32476 -14.31242
 Alpha  occ. eigenvalues --  -10.33034 -10.31143 -10.28390 -10.26584 -10.26173
 Alpha  occ. eigenvalues --  -10.26050 -10.25714 -10.24220 -10.23796 -10.23365
 Alpha  occ. eigenvalues --  -10.23112 -10.22459 -10.22186 -10.21888 -10.21825
 Alpha  occ. eigenvalues --  -10.21743 -10.21549 -10.21324 -10.20578 -10.20391
 Alpha  occ. eigenvalues --  -10.20198 -10.19685 -10.19566 -10.19173 -10.19148
 Alpha  occ. eigenvalues --  -10.19139 -10.18874 -10.18149 -10.18065 -10.17749
 Alpha  occ. eigenvalues --  -10.17717 -10.17558 -10.16719  -1.10406  -1.07778
 Alpha  occ. eigenvalues --   -1.02082  -1.00472  -1.00073  -0.99596  -0.96115
 Alpha  occ. eigenvalues --   -0.94830  -0.92808  -0.91714  -0.85061  -0.83766
 Alpha  occ. eigenvalues --   -0.81954  -0.81401  -0.80881  -0.79349  -0.78974
 Alpha  occ. eigenvalues --   -0.77338  -0.76953  -0.76000  -0.74277  -0.73549
 Alpha  occ. eigenvalues --   -0.71805  -0.71432  -0.69921  -0.69726  -0.67937
 Alpha  occ. eigenvalues --   -0.67247  -0.65671  -0.63490  -0.61762  -0.60776
 Alpha  occ. eigenvalues --   -0.60194  -0.59534  -0.57601  -0.57181  -0.56875
 Alpha  occ. eigenvalues --   -0.56120  -0.55850  -0.55206  -0.53787  -0.52920
 Alpha  occ. eigenvalues --   -0.51963  -0.51642  -0.50868  -0.50214  -0.49684
 Alpha  occ. eigenvalues --   -0.49216  -0.48900  -0.48757  -0.48561  -0.47929
 Alpha  occ. eigenvalues --   -0.47282  -0.47035  -0.46998  -0.46612  -0.46296
 Alpha  occ. eigenvalues --   -0.46264  -0.45559  -0.45183  -0.44982  -0.44612
 Alpha  occ. eigenvalues --   -0.43953  -0.43566  -0.42998  -0.42777  -0.42587
 Alpha  occ. eigenvalues --   -0.42307  -0.42053  -0.41253  -0.41219  -0.41185
 Alpha  occ. eigenvalues --   -0.40709  -0.40414  -0.39974  -0.39750  -0.39578
 Alpha  occ. eigenvalues --   -0.39475  -0.39156  -0.39032  -0.38868  -0.38125
 Alpha  occ. eigenvalues --   -0.37984  -0.37788  -0.36948  -0.36752  -0.36190
 Alpha  occ. eigenvalues --   -0.35779  -0.35584  -0.35499  -0.35321  -0.34771
 Alpha  occ. eigenvalues --   -0.34103  -0.33953  -0.32833  -0.32810  -0.32300
 Alpha  occ. eigenvalues --   -0.30358  -0.30049  -0.29306  -0.29015  -0.28652
 Alpha  occ. eigenvalues --   -0.27094  -0.26402  -0.25820  -0.24568  -0.24185
 Alpha  occ. eigenvalues --   -0.23216  -0.22719  -0.22606  -0.21400  -0.18403
 Alpha virt. eigenvalues --   -0.12894  -0.07648  -0.04502  -0.01877  -0.01674
 Alpha virt. eigenvalues --   -0.01023   0.00696   0.01299   0.02503   0.02697
 Alpha virt. eigenvalues --    0.03031   0.03401   0.03877   0.04793   0.04941

 Mulliken charges:
               1
     1  O   -0.221295
     2  O   -0.227754
     3  O   -0.313974
     4  O   -0.208326
     5  O   -0.259261
     6  O   -0.225963
     7  N   -0.112058
     8  N   -0.194432
     9  N   -0.095573
    10  N   -0.338608
    11  C    0.063319
    12  C    0.236072
    13  C   -0.097920
    14  C   -0.098929
    15  C   -0.108391
    16  C    0.051601
    17  C   -0.176705
    18  C    0.179569
    19  C   -0.036828
    20  C   -0.193142
    21  C    0.141513
    22  C    0.146404
    23  C   -0.012921
    24  C    0.136147
    25  C    0.185243
    26  C   -0.081028
    27  C   -0.078419
    28  C    0.140500
    29  C    0.064295
    30  C   -0.074259
    31  C   -0.029239
    32  C   -0.016731
    33  C   -0.086574
    34  C    0.157998
    35  C    0.082105
    36  C   -0.009731
    37  C    0.114135
    38  C    0.049119
    39  C   -0.209009
    40  C    0.205491
    41  C    0.033852
    42  C    0.098810
    43  C    0.042674
    44  H    0.025791
    45  H   -0.027345
    46  H   -0.025843
    47  H    0.110166
    48  H    0.142678
    49  H    0.024793
    50  H   -0.039687
    51  H    0.034078
    52  H   -0.040423
    53  H    0.027416
    54  H    0.010459
    55  H    0.006310
    56  H    0.021306
    57  H    0.003428
    58  H    0.040089
    59  H    0.084321
    60  H    0.182612
    61  H   -0.003841
    62  H    0.066092
    63  H    0.005103
    64  H    0.086762
    65  H    0.032866
    66  H    0.034536
    67  H    0.034369
    68  H    0.082306
    69  H   -0.042893
    70  H   -0.019883
    71  H    0.024519
    72  H    0.224952
    73  H   -0.027482
    74  H    0.030707
    75  H    0.020211
    76  H    0.014968
    77  H    0.230966
    78  H    0.033898
    79  H   -0.030083
 Sum of Mulliken charges =  -0.00000

 Dipole moment (field-independent basis, Debye):
    X=              3.8234    Y=              3.7693    Z=             -1.3665  Tot=              5.5401
 Quadrupole moment (field-independent basis, Debye-Ang):
   XX=           -227.6710   YY=           -238.8954   ZZ=           -269.3677
   XY=             -0.2881   XZ=            -25.8779   YZ=            -18.4864

 Normal termination of Gaussian 16 at Sun Jul 28 04:31:35 2019.
