 Gaussian 16, Revision A.03,
 Gaussian 16:  ES64L-G16RevA.03 25-Dec-2016

 --------------------------
 # td=(NStates=1) B3LYP/SVP
 --------------------------

 --
 TD
 --
 Symbolic Z-matrix:
 Charge =  0 Multiplicity = 1

                         Standard orientation:
 ---------------------------------------------------------------------
 Center     Atomic      Atomic             Coordinates (Angstroms)
 Number     Number       Type             X           Y           Z
 ---------------------------------------------------------------------
      1          8           0       -3.283827   -2.043116   -2.577971
      2          8           0        3.231395    3.845766    2.308348
      3          8           0        3.711041    2.402342    4.061311
      4          8           0        7.674104   -1.721497   -0.281248
      5          8           0        6.708759   -3.361035   -1.381224
      6          8           0       -2.626007    1.877878    1.028752
      7          7           0       -0.250660   -2.052896    1.553062
      8          7           0       -2.663440   -1.438625   -0.347939
      9          7           0        1.127559   -0.190294   -0.838498
     10          7           0       -1.040795    1.174547   -0.662499
     11          6           0       -3.357797   -1.172406    0.917935
     12          6           0       -2.629768   -1.862375    2.195432
     13          6           0       -1.253699   -1.455162    2.297312
     14          6           0       -0.563828   -0.409355    3.035914
     15          6           0        0.791889   -0.407279    2.688997
     16          6           0        0.941009   -1.466980    1.674430
     17          6           0       -4.815459   -1.675363    0.663064
     18          6           0        1.844866    0.563587    3.082791
     19          6           0       -4.964722   -2.206214   -0.611724
     20          6           0        2.004349   -1.744057    0.756259
     21          6           0        2.138424   -1.076549   -0.441553
     22          6           0       -3.562369   -1.877690   -1.351802
     23          6           0        3.066947   -1.187272   -1.557075
     24          6           0       -1.320007    0.538734    4.012580
     25          6           0       -5.794219   -1.585906    1.796378
     26          6           0        2.568975   -0.270859   -2.512734
     27          6           0        1.937770    1.839359    2.421243
     28          6           0        1.474532    0.415194   -2.005540
     29          6           0        4.167196   -2.028537   -1.601444
     30          6           0       -5.972684   -2.734036   -1.352816
     31          6           0        5.365184   -1.516248   -0.908841
     32          6           0        3.130368    0.016656   -3.959447
     33          6           0        0.482802    1.385953   -2.484599
     34          6           0        3.078427    2.741103    3.082024
     35          6           0       -0.632080    1.796215   -1.797260
     36          6           0       -7.128726   -3.359897   -0.857587
     37          6           0        6.607118   -2.303866   -0.832766
     38          6           0       -1.403906    3.107498   -2.052169
     39          6           0       -2.242246    3.199461   -1.009667
     40          6           0       -2.006557    2.084073   -0.038104
     41          6           0       -1.161985    3.825158   -3.147351
     42          6           0       -3.155433    4.391554   -0.638332
     43          6           0       -1.886510    4.904222   -3.557004
     44          1           0       -3.395805   -0.147305    1.227674
     45          1           0       -3.070490   -2.973464    2.235510
     46          1           0       -3.193990   -1.404908    3.041874
     47          1           0       -0.554349   -2.834524    0.892998
     48          1           0       -1.778457   -0.864046   -0.602298
     49          1           0        1.663366    0.559837    4.054244
     50          1           0        2.778058    0.084952    3.229796
     51          1           0        2.713500   -2.509642    1.070231
     52          1           0       -1.779924   -0.151479    4.689312
     53          1           0       -0.625900    1.214658    4.511134
     54          1           0       -2.013484    1.180788    3.470618
     55          1           0       -5.538258   -0.759231    2.371198
     56          1           0       -5.782906   -2.349304    2.354185
     57          1           0       -6.721711   -1.501260    1.269833
     58          1           0        2.192548    1.724397    1.279409
     59          1           0        1.008184    2.395234    2.315065
     60          1           0        0.183857    0.028525   -0.396015
     61          1           0        4.479073   -2.433593   -2.560804
     62          1           0        3.996142   -2.899486   -1.089228
     63          1           0       -5.855054   -2.939451   -2.336698
     64          1           0        5.111294   -1.143014    0.095080
     65          1           0        5.551231   -0.475324   -1.355480
     66          1           0        3.819769   -0.632655   -4.377087
     67          1           0        3.439782    0.897806   -3.977277
     68          1           0        2.221245   -0.291244   -4.717054
     69          1           0        0.860952    1.671623   -3.414218
     70          1           0       -7.503803   -3.127002    0.215062
     71          1           0       -7.605993   -3.926953   -1.664419
     72          1           0        4.129143    4.376422    2.499050
     73          1           0       -0.085218    3.709792   -3.692079
     74          1           0       -4.054085    4.371046   -1.407041
     75          1           0       -3.863522    4.288397    0.385427
     76          1           0       -2.623090    5.359117   -0.546278
     77          1           0        8.329687   -2.347063   -0.397113
     78          1           0       -1.509383    5.667458   -4.202575
     79          1           0       -2.941940    4.916755   -3.103937
 ---------------------------------------------------------------------

 SCF Done:  E(RB3LYP) =  -1947.81170975     A.U. after   17 cycles

 Excitation energies and oscillator strengths:

 Excited State   1:      Singlet-A      0.8968 eV 1382.52 nm  f=0.0013  <S**2>=0.000
     155 ->156         0.70125
 This state for optimization and/or second-order correction.
 Total Energy, E(TD-HF/TD-DFT) =  -1947.77875302
 Copying the excited state density for this state as the 1-particle RhoCI density.

 The electronic state is 1-A.
 Alpha  occ. eigenvalues --  -19.19395 -19.19110 -19.13727 -19.13196 -19.12239
 Alpha  occ. eigenvalues --  -19.08360 -14.37721 -14.36548 -14.33321 -14.31349
 Alpha  occ. eigenvalues --  -10.33281 -10.32439 -10.28765 -10.27323 -10.26049
 Alpha  occ. eigenvalues --  -10.25587 -10.24686 -10.23278 -10.23214 -10.23038
 Alpha  occ. eigenvalues --  -10.22383 -10.21640 -10.21604 -10.21077 -10.21025
 Alpha  occ. eigenvalues --  -10.20981 -10.20927 -10.20852 -10.20773 -10.20456
 Alpha  occ. eigenvalues --  -10.20391 -10.20383 -10.20215 -10.20193 -10.20147
 Alpha  occ. eigenvalues --  -10.19055 -10.18704 -10.17598 -10.17597 -10.17563
 Alpha  occ. eigenvalues --  -10.17113 -10.17107 -10.16387  -1.13262  -1.08068
 Alpha  occ. eigenvalues --   -1.02945  -1.01154  -1.00530  -0.99671  -0.97363
 Alpha  occ. eigenvalues --   -0.97028  -0.92388  -0.89383  -0.86131  -0.82814
 Alpha  occ. eigenvalues --   -0.82319  -0.80887  -0.80392  -0.79814  -0.78200
 Alpha  occ. eigenvalues --   -0.76656  -0.75880  -0.75242  -0.74272  -0.74042
 Alpha  occ. eigenvalues --   -0.71231  -0.70227  -0.69432  -0.69275  -0.67911
 Alpha  occ. eigenvalues --   -0.66672  -0.65846  -0.63422  -0.62586  -0.61352
 Alpha  occ. eigenvalues --   -0.59906  -0.59464  -0.58740  -0.58369  -0.57564
 Alpha  occ. eigenvalues --   -0.55733  -0.55425  -0.55119  -0.53692  -0.53047
 Alpha  occ. eigenvalues --   -0.52614  -0.51429  -0.50837  -0.50524  -0.49945
 Alpha  occ. eigenvalues --   -0.49589  -0.49044  -0.48552  -0.48495  -0.48295
 Alpha  occ. eigenvalues --   -0.47763  -0.47591  -0.46971  -0.46601  -0.45810
 Alpha  occ. eigenvalues --   -0.45418  -0.45305  -0.44713  -0.44647  -0.44270
 Alpha  occ. eigenvalues --   -0.44129  -0.43752  -0.43403  -0.43340  -0.42614
 Alpha  occ. eigenvalues --   -0.42271  -0.42065  -0.41880  -0.41489  -0.40872
 Alpha  occ. eigenvalues --   -0.40729  -0.40381  -0.40250  -0.40081  -0.39816
 Alpha  occ. eigenvalues --   -0.39681  -0.39220  -0.38422  -0.38239  -0.37653
 Alpha  occ. eigenvalues --   -0.37359  -0.37149  -0.36649  -0.36358  -0.35800
 Alpha  occ. eigenvalues --   -0.35501  -0.35064  -0.34937  -0.34504  -0.34148
 Alpha  occ. eigenvalues --   -0.34087  -0.33994  -0.32875  -0.32745  -0.32220
 Alpha  occ. eigenvalues --   -0.31320  -0.30610  -0.29756  -0.29521  -0.29162
 Alpha  occ. eigenvalues --   -0.28205  -0.26959  -0.25756  -0.24072  -0.23645
 Alpha  occ. eigenvalues --   -0.23346  -0.22866  -0.21656  -0.21172  -0.18683
 Alpha virt. eigenvalues --   -0.12726  -0.08320  -0.04853  -0.01808  -0.01260
 Alpha virt. eigenvalues --   -0.00057   0.01272   0.02358   0.02501   0.03092
 Alpha virt. eigenvalues --    0.03709   0.03746   0.05193   0.05599   0.05765

 Mulliken charges:
               1
     1  O   -0.286230
     2  O   -0.238984
     3  O   -0.217141
     4  O   -0.121046
     5  O   -0.218532
     6  O   -0.230919
     7  N   -0.056478
     8  N   -0.262240
     9  N   -0.131762
    10  N   -0.375761
    11  C    0.114075
    12  C    0.080763
    13  C   -0.065180
    14  C   -0.141157
    15  C   -0.132697
    16  C   -0.020152
    17  C   -0.227508
    18  C    0.247017
    19  C    0.010703
    20  C   -0.129510
    21  C    0.151108
    22  C    0.185178
    23  C   -0.050834
    24  C    0.117387
    25  C    0.240361
    26  C   -0.155670
    27  C   -0.012202
    28  C    0.044397
    29  C    0.219944
    30  C   -0.036552
    31  C   -0.064948
    32  C    0.177716
    33  C   -0.074231
    34  C    0.166004
    35  C    0.182142
    36  C   -0.057691
    37  C    0.131601
    38  C    0.155188
    39  C   -0.178902
    40  C    0.229200
    41  C   -0.126939
    42  C   -0.028344
    43  C   -0.020073
    44  H    0.033849
    45  H    0.017372
    46  H   -0.019588
    47  H    0.138062
    48  H    0.164991
    49  H   -0.051606
    50  H   -0.044064
    51  H    0.010111
    52  H    0.015499
    53  H   -0.007236
    54  H    0.037510
    55  H   -0.003675
    56  H   -0.032445
    57  H    0.022367
    58  H    0.033164
    59  H    0.030824
    60  H    0.206271
    61  H    0.009560
    62  H   -0.031247
    63  H   -0.037997
    64  H    0.026532
    65  H    0.034530
    66  H   -0.006259
    67  H   -0.019720
    68  H    0.050951
    69  H   -0.051171
    70  H    0.033291
    71  H    0.028384
    72  H    0.220852
    73  H    0.028953
    74  H    0.052606
    75  H    0.049431
    76  H    0.053979
    77  H    0.147606
    78  H    0.026009
    79  H    0.041205
 Sum of Mulliken charges =  -0.00000

 Dipole moment (field-independent basis, Debye):
    X=              4.8282    Y=              3.0335    Z=             -1.2516  Tot=              5.8378
 Quadrupole moment (field-independent basis, Debye-Ang):
   XX=           -234.2621   YY=           -240.4373   ZZ=           -262.9029
   XY=              1.1359   XZ=            -23.2014   YZ=            -19.6691

 Normal termination of Gaussian 16 at Tue Jul 30 07:46:45 2019.
