 Gaussian 16, Revision A.03,
 Gaussian 16:  ES64L-G16RevA.03 25-Dec-2016

 --------------------------
 # td=(NStates=1) B3LYP/SVP
 --------------------------

 --
 TD
 --
 Symbolic Z-matrix:
 Charge =  0 Multiplicity = 1

                         Standard orientation:
 ---------------------------------------------------------------------
 Center     Atomic      Atomic             Coordinates (Angstroms)
 Number     Number       Type             X           Y           Z
 ---------------------------------------------------------------------
      1          8           0        5.529389   -0.213645   -3.272812
      2          8           0       -3.291808   -2.843195    3.000116
      3          8           0       -3.534240   -0.648832    2.996023
      4          8           0       -1.445150    7.318182    1.264181
      5          8           0       -0.339882    7.044948   -0.601423
      6          8           0       -1.505033   -4.016956    0.072829
      7          7           0        2.310353    1.050699    0.654081
      8          7           0        4.522978   -0.470965   -1.238446
      9          7           0       -1.882335    0.678707   -0.438807
     10          7           0       -2.499475   -1.838928   -0.641969
     11          6           0        4.788972   -1.031042    0.096951
     12          6           0        4.342165   -0.159134    1.282018
     13          6           0        2.875311   -0.073105    1.350855
     14          6           0        1.915557   -0.593448    2.137466
     15          6           0        0.632173    0.001413    1.787490
     16          6           0        0.914498    1.029709    0.849270
     17          6           0        6.221372   -1.280802   -0.063816
     18          6           0       -0.677392   -0.111941    2.485206
     19          6           0        6.684159   -1.009531   -1.333647
     20          6           0        0.165889    1.953171    0.161362
     21          6           0       -1.153826    1.922620   -0.296559
     22          6           0        5.576234   -0.587849   -2.083376
     23          6           0       -2.042374    2.968565   -0.918714
     24          6           0        1.983251   -1.766069    2.995203
     25          6           0        7.050289   -1.820315    1.126279
     26          6           0       -3.248711    2.295103   -1.259680
     27          6           0       -1.266953   -1.584273    2.625752
     28          6           0       -3.132240    0.823486   -1.004525
     29          6           0       -1.633297    4.381170   -0.926334
     30          6           0        8.038104   -1.068988   -1.894292
     31          6           0       -1.792259    5.165140    0.244803
     32          6           0       -4.366780    2.859669   -1.825267
     33          6           0       -3.902664   -0.161107   -1.325960
     34          6           0       -2.696331   -1.582164    2.958633
     35          6           0       -3.631373   -1.532819   -1.092189
     36          6           0        9.174517   -1.110427   -1.361340
     37          6           0       -1.131567    6.486431    0.178298
     38          6           0       -4.489390   -2.761964   -1.360364
     39          6           0       -3.668826   -3.817688   -1.072303
     40          6           0       -2.447372   -3.291257   -0.517794
     41          6           0       -5.853698   -2.551742   -1.977181
     42          6           0       -4.225502   -5.169013   -1.039366
     43          6           0       -6.646531   -3.566936   -2.552715
     44          1           0        4.307577   -1.951705    0.405362
     45          1           0        4.916959    0.718166    1.288451
     46          1           0        4.554374   -0.827918    2.180707
     47          1           0        2.759544    1.568358   -0.022800
     48          1           0        3.536863   -0.308721   -1.469794
     49          1           0       -0.801250    0.350064    3.500725
     50          1           0       -1.566119    0.348731    1.895721
     51          1           0        0.762568    2.764462   -0.281854
     52          1           0        2.904334   -1.724873    3.573241
     53          1           0        1.282814   -1.447878    3.965207
     54          1           0        1.731293   -2.797060    2.518779
     55          1           0        6.218681   -2.581875    1.568901
     56          1           0        7.533931   -1.048580    1.874878
     57          1           0        7.760500   -2.461644    0.657467
     58          1           0       -1.298390   -2.154769    1.780579
     59          1           0       -0.766879   -2.019475    3.488987
     60          1           0       -1.532645   -0.297909   -0.227079
     61          1           0       -2.233669    4.795142   -1.722277
     62          1           0       -0.718984    4.435124   -1.432904
     63          1           0        7.933507   -1.145469   -3.081876
     64          1           0       -1.219761    4.752699    1.064946
     65          1           0       -2.762903    5.239497    0.591678
     66          1           0       -4.175303    4.050468   -1.592953
     67          1           0       -5.378354    2.689904   -1.456822
     68          1           0       -4.477287    2.748293   -2.966488
     69          1           0       -4.891940    0.251092   -1.782551
     70          1           0        9.248812   -0.709741   -0.206481
     71          1           0       10.183040   -0.943981   -1.907296
     72          1           0       -4.214445   -2.715480    2.997624
     73          1           0       -6.355129   -1.405644   -1.892516
     74          1           0       -5.206987   -5.218915   -0.743450
     75          1           0       -4.154689   -5.611457   -2.032238
     76          1           0       -3.589048   -5.944018   -0.485071
     77          1           0       -0.914135    8.045785    1.232688
     78          1           0       -7.686651   -3.379398   -2.836621
     79          1           0       -6.289529   -4.651069   -2.705165
 ---------------------------------------------------------------------

 SCF Done:  E(RB3LYP) =  -1947.82384700     A.U. after   17 cycles

 Excitation energies and oscillator strengths:

 Excited State   1:      Singlet-A      1.8680 eV  663.72 nm  f=0.3691  <S**2>=0.000
     155 ->156         0.70484
     155 <-156        -0.12039
 This state for optimization and/or second-order correction.
 Total Energy, E(TD-HF/TD-DFT) =  -1947.75519882
 Copying the excited state density for this state as the 1-particle RhoCI density.

 The electronic state is 1-A.
 Alpha  occ. eigenvalues --  -19.16465 -19.15505 -19.13462 -19.11957 -19.11327
 Alpha  occ. eigenvalues --  -19.08828 -14.37705 -14.35920 -14.35393 -14.30424
 Alpha  occ. eigenvalues --  -10.33403 -10.31168 -10.28523 -10.27650 -10.25097
 Alpha  occ. eigenvalues --  -10.24519 -10.23885 -10.23781 -10.23681 -10.23542
 Alpha  occ. eigenvalues --  -10.23505 -10.22468 -10.22383 -10.22308 -10.22133
 Alpha  occ. eigenvalues --  -10.22033 -10.21879 -10.21723 -10.21706 -10.21646
 Alpha  occ. eigenvalues --  -10.21299 -10.21232 -10.20461 -10.20441 -10.20387
 Alpha  occ. eigenvalues --  -10.20231 -10.20175 -10.20172 -10.20032 -10.19763
 Alpha  occ. eigenvalues --  -10.19254 -10.19224 -10.18550  -1.09128  -1.07036
 Alpha  occ. eigenvalues --   -1.01362  -0.98979  -0.98513  -0.97754  -0.96727
 Alpha  occ. eigenvalues --   -0.96027  -0.93949  -0.93287  -0.85615  -0.83095
 Alpha  occ. eigenvalues --   -0.82461  -0.82264  -0.81580  -0.81211  -0.79925
 Alpha  occ. eigenvalues --   -0.78532  -0.77665  -0.76458  -0.75429  -0.73932
 Alpha  occ. eigenvalues --   -0.72685  -0.71981  -0.70136  -0.69640  -0.68769
 Alpha  occ. eigenvalues --   -0.68165  -0.67324  -0.64955  -0.61465  -0.61299
 Alpha  occ. eigenvalues --   -0.60797  -0.59430  -0.58224  -0.57486  -0.57084
 Alpha  occ. eigenvalues --   -0.56644  -0.56038  -0.55393  -0.54314  -0.53519
 Alpha  occ. eigenvalues --   -0.53138  -0.52779  -0.52387  -0.51402  -0.50811
 Alpha  occ. eigenvalues --   -0.49570  -0.48840  -0.48701  -0.48272  -0.48036
 Alpha  occ. eigenvalues --   -0.47631  -0.47237  -0.46674  -0.46094  -0.45754
 Alpha  occ. eigenvalues --   -0.45603  -0.45388  -0.44791  -0.44683  -0.44339
 Alpha  occ. eigenvalues --   -0.44190  -0.43898  -0.43566  -0.43426  -0.43184
 Alpha  occ. eigenvalues --   -0.42704  -0.42142  -0.41806  -0.41525  -0.41447
 Alpha  occ. eigenvalues --   -0.41066  -0.40930  -0.40324  -0.40184  -0.39811
 Alpha  occ. eigenvalues --   -0.39506  -0.39231  -0.38883  -0.38576  -0.38383
 Alpha  occ. eigenvalues --   -0.38192  -0.37822  -0.37551  -0.37489  -0.37236
 Alpha  occ. eigenvalues --   -0.36829  -0.35779  -0.35482  -0.35287  -0.34954
 Alpha  occ. eigenvalues --   -0.33757  -0.32505  -0.32265  -0.32017  -0.31845
 Alpha  occ. eigenvalues --   -0.31445  -0.30070  -0.29551  -0.28340  -0.28126
 Alpha  occ. eigenvalues --   -0.26361  -0.26301  -0.25698  -0.25490  -0.25166
 Alpha  occ. eigenvalues --   -0.25012  -0.24733  -0.24528  -0.23614  -0.19149
 Alpha virt. eigenvalues --   -0.11879  -0.07971  -0.06367  -0.02099  -0.01685
 Alpha virt. eigenvalues --   -0.00124   0.00085   0.01156   0.01662   0.02638
 Alpha virt. eigenvalues --    0.02943   0.03841   0.04231   0.04481   0.04824

 Mulliken charges:
               1
     1  O   -0.256617
     2  O   -0.197401
     3  O   -0.282139
     4  O   -0.189449
     5  O   -0.247112
     6  O   -0.290388
     7  N   -0.119152
     8  N   -0.182364
     9  N   -0.163884
    10  N   -0.259082
    11  C    0.089739
    12  C    0.200350
    13  C   -0.044424
    14  C   -0.126394
    15  C   -0.034270
    16  C    0.130981
    17  C   -0.194932
    18  C   -0.047616
    19  C   -0.023087
    20  C   -0.088722
    21  C    0.088866
    22  C    0.139596
    23  C   -0.099617
    24  C    0.046942
    25  C    0.042570
    26  C   -0.056720
    27  C    0.094168
    28  C    0.138937
    29  C    0.139417
    30  C    0.020938
    31  C    0.167304
    32  C   -0.026894
    33  C   -0.126849
    34  C    0.119947
    35  C    0.063715
    36  C   -0.108891
    37  C    0.105109
    38  C    0.045017
    39  C   -0.164986
    40  C    0.223301
    41  C   -0.069649
    42  C    0.121301
    43  C   -0.054368
    44  H    0.012195
    45  H   -0.012335
    46  H   -0.000364
    47  H    0.086515
    48  H    0.121173
    49  H    0.027285
    50  H    0.042973
    51  H   -0.009723
    52  H   -0.003135
    53  H    0.025347
    54  H    0.088172
    55  H    0.028952
    56  H    0.076953
    57  H    0.031486
    58  H    0.027904
    59  H    0.028273
    60  H    0.166388
    61  H   -0.012384
    62  H   -0.003336
    63  H    0.042537
    64  H    0.033047
    65  H    0.016756
    66  H    0.022914
    67  H    0.032577
    68  H    0.049003
    69  H   -0.014370
    70  H    0.029046
    71  H    0.049541
    72  H    0.156229
    73  H    0.058664
    74  H    0.010808
    75  H    0.012671
    76  H    0.026433
    77  H    0.142121
    78  H    0.035234
    79  H    0.051260
 Sum of Mulliken charges =  -0.00000

 Dipole moment (field-independent basis, Debye):
    X=             -1.4486    Y=              1.1170    Z=              2.8575  Tot=              3.3929
 Quadrupole moment (field-independent basis, Debye-Ang):
   XX=           -221.2924   YY=           -258.1108   ZZ=           -266.4774
   XY=             -0.7378   XZ=             42.3883   YZ=              5.5532

 Normal termination of Gaussian 16 at Tue Sep 17 20:50:00 2019.
