 Gaussian 16, Revision A.03,
 Gaussian 16:  ES64L-G16RevA.03 25-Dec-2016

 --------------------------
 # td=(NStates=1) B3LYP/SVP
 --------------------------

 --
 TD
 --
 Symbolic Z-matrix:
 Charge =  0 Multiplicity = 1

                         Standard orientation:
 ---------------------------------------------------------------------
 Center     Atomic      Atomic             Coordinates (Angstroms)
 Number     Number       Type             X           Y           Z
 ---------------------------------------------------------------------
      1          8           0       -3.109012   -1.601183   -2.830789
      2          8           0        2.930972    3.345900    3.175520
      3          8           0        3.828057    1.524870    4.132179
      4          8           0        7.683815   -1.500471   -0.774625
      5          8           0        6.661010   -3.174350   -2.016185
      6          8           0       -2.666856    1.605102    1.342231
      7          7           0       -0.311169   -2.308060    1.118088
      8          7           0       -2.545899   -1.239520   -0.544060
      9          7           0        1.110392    0.089769   -0.715411
     10          7           0       -0.979808    1.427989   -0.275044
     11          6           0       -3.369564   -1.337735    0.738460
     12          6           0       -2.660924   -2.236488    1.822047
     13          6           0       -1.232140   -1.858217    1.984145
     14          6           0       -0.540040   -1.012556    2.981822
     15          6           0        0.805015   -0.993791    2.586479
     16          6           0        0.950743   -1.779622    1.341167
     17          6           0       -4.677386   -1.842269    0.257371
     18          6           0        2.013079   -0.207295    3.212035
     19          6           0       -4.732895   -2.107383   -1.028931
     20          6           0        2.038253   -1.813004    0.369832
     21          6           0        2.032182   -0.974625   -0.681174
     22          6           0       -3.411599   -1.651645   -1.684608
     23          6           0        3.001626   -0.738399   -1.752335
     24          6           0       -1.206955   -0.310509    4.116442
     25          6           0       -5.760382   -2.201911    1.287115
     26          6           0        2.501069    0.327942   -2.531051
     27          6           0        1.889190    1.242305    2.738980
     28          6           0        1.322842    0.952468   -1.856700
     29          6           0        4.144790   -1.610753   -1.979269
     30          6           0       -5.806790   -2.540401   -1.921344
     31          6           0        5.322841   -1.252576   -1.070825
     32          6           0        3.055587    0.946233   -3.808367
     33          6           0        0.520863    1.963399   -2.110261
     34          6           0        3.032324    2.030136    3.381565
     35          6           0       -0.665357    2.228976   -1.289349
     36          6           0       -6.878247   -3.288727   -1.449110
     37          6           0        6.590812   -2.104215   -1.340023
     38          6           0       -1.435749    3.432211   -1.356924
     39          6           0       -2.342433    3.274172   -0.316428
     40          6           0       -2.056439    2.052397    0.336770
     41          6           0       -1.279856    4.522827   -2.304667
     42          6           0       -3.333098    4.296731    0.064707
     43          6           0       -2.104385    5.554931   -2.615292
     44          1           0       -3.405118   -0.152888    0.924664
     45          1           0       -2.712457   -3.291679    1.457660
     46          1           0       -3.032725   -2.011235    2.770587
     47          1           0       -0.625049   -2.703993    0.203196
     48          1           0       -2.039504   -0.400523   -0.545696
     49          1           0        2.114954   -0.133250    4.223210
     50          1           0        2.923594   -0.565387    2.688379
     51          1           0        2.687176   -2.783874    0.447492
     52          1           0       -1.811197   -1.084470    4.630914
     53          1           0       -0.544801   -0.113984    4.972861
     54          1           0       -1.623515    0.609402    3.630669
     55          1           0       -5.597530   -1.579805    2.223032
     56          1           0       -5.989837   -3.407025    1.120604
     57          1           0       -6.650611   -1.594743    0.830854
     58          1           0        1.855192    1.507770    1.703768
     59          1           0        0.849436    1.640059    3.009884
     60          1           0        0.283971    0.390283   -0.149455
     61          1           0        4.413503   -1.407529   -3.023103
     62          1           0        3.728986   -2.712247   -1.749699
     63          1           0       -5.928061   -2.278311   -2.983192
     64          1           0        5.169082   -1.271269    0.085318
     65          1           0        5.578086   -0.210377   -1.323960
     66          1           0        4.127748    0.573536   -4.240564
     67          1           0        3.062033    2.004304   -3.684982
     68          1           0        2.512339    0.564815   -4.723739
     69          1           0        0.932826    2.491914   -3.163857
     70          1           0       -6.980771   -3.672189   -0.361726
     71          1           0       -7.595933   -3.757508   -1.958980
     72          1           0        3.585328    3.764688    3.778783
     73          1           0       -0.209938    4.556508   -2.916232
     74          1           0       -4.132291    4.652449   -0.699935
     75          1           0       -3.702216    3.930685    0.990872
     76          1           0       -2.836628    5.243257    0.232219
     77          1           0        8.602911   -2.067933   -0.809521
     78          1           0       -1.803010    6.472654   -3.436788
     79          1           0       -3.106325    5.632060   -2.198869
 ---------------------------------------------------------------------

 SCF Done:  E(RB3LYP) =  -1947.85163576     A.U. after   21 cycles

 Excitation energies and oscillator strengths:

 Excited State   1:      Singlet-A      0.4164 eV 2977.78 nm  f=0.0006  <S**2>=0.000
     155 ->156         0.70453
 This state for optimization and/or second-order correction.
 Total Energy, E(TD-HF/TD-DFT) =  -1947.83633467
 Copying the excited state density for this state as the 1-particle RhoCI density.

 The electronic state is 1-A.
 Alpha  occ. eigenvalues --  -19.19545 -19.18082 -19.13445 -19.13272 -19.11927
 Alpha  occ. eigenvalues --  -19.09939 -14.36186 -14.35415 -14.31893 -14.31258
 Alpha  occ. eigenvalues --  -10.33562 -10.30957 -10.29006 -10.27452 -10.26430
 Alpha  occ. eigenvalues --  -10.25735 -10.24677 -10.23353 -10.23219 -10.23082
 Alpha  occ. eigenvalues --  -10.22914 -10.22566 -10.22481 -10.22257 -10.22154
 Alpha  occ. eigenvalues --  -10.22106 -10.21946 -10.21807 -10.21340 -10.21136
 Alpha  occ. eigenvalues --  -10.20172 -10.19965 -10.19830 -10.19816 -10.19375
 Alpha  occ. eigenvalues --  -10.19149 -10.18874 -10.18521 -10.18513 -10.17722
 Alpha  occ. eigenvalues --  -10.17506 -10.17174 -10.16502  -1.09699  -1.07142
 Alpha  occ. eigenvalues --   -1.03232  -1.02476  -1.00411  -0.98289  -0.97052
 Alpha  occ. eigenvalues --   -0.95676  -0.95025  -0.89632  -0.83853  -0.82548
 Alpha  occ. eigenvalues --   -0.82136  -0.80336  -0.79069  -0.78352  -0.77665
 Alpha  occ. eigenvalues --   -0.76786  -0.75517  -0.75178  -0.73839  -0.72687
 Alpha  occ. eigenvalues --   -0.71865  -0.69448  -0.68925  -0.68756  -0.67309
 Alpha  occ. eigenvalues --   -0.65727  -0.65582  -0.62933  -0.61259  -0.60100
 Alpha  occ. eigenvalues --   -0.59519  -0.58679  -0.58178  -0.56633  -0.56232
 Alpha  occ. eigenvalues --   -0.55323  -0.54908  -0.54540  -0.53638  -0.52562
 Alpha  occ. eigenvalues --   -0.51541  -0.51235  -0.50455  -0.49590  -0.49037
 Alpha  occ. eigenvalues --   -0.48714  -0.47790  -0.47780  -0.47602  -0.47350
 Alpha  occ. eigenvalues --   -0.47042  -0.46837  -0.46354  -0.45963  -0.45641
 Alpha  occ. eigenvalues --   -0.45411  -0.44714  -0.44672  -0.43703  -0.43205
 Alpha  occ. eigenvalues --   -0.43058  -0.42838  -0.42744  -0.42531  -0.42077
 Alpha  occ. eigenvalues --   -0.41932  -0.41662  -0.41500  -0.40877  -0.40754
 Alpha  occ. eigenvalues --   -0.40571  -0.40094  -0.39759  -0.39290  -0.38962
 Alpha  occ. eigenvalues --   -0.38431  -0.38214  -0.38121  -0.38049  -0.37490
 Alpha  occ. eigenvalues --   -0.37185  -0.37084  -0.36979  -0.36661  -0.36315
 Alpha  occ. eigenvalues --   -0.36017  -0.35533  -0.35186  -0.34985  -0.34134
 Alpha  occ. eigenvalues --   -0.33419  -0.32832  -0.32285  -0.32072  -0.32035
 Alpha  occ. eigenvalues --   -0.31324  -0.30585  -0.30089  -0.29627  -0.28246
 Alpha  occ. eigenvalues --   -0.27774  -0.27256  -0.25955  -0.24872  -0.24447
 Alpha  occ. eigenvalues --   -0.23836  -0.22967  -0.22315  -0.22072  -0.17579
 Alpha virt. eigenvalues --   -0.13668  -0.07857  -0.03704  -0.02593  -0.01725
 Alpha virt. eigenvalues --    0.00855   0.01105   0.01252   0.01815   0.02615
 Alpha virt. eigenvalues --    0.03003   0.03571   0.04528   0.04701   0.05163

 Mulliken charges:
               1
     1  O   -0.175517
     2  O   -0.172701
     3  O   -0.232208
     4  O   -0.260939
     5  O   -0.267471
     6  O   -0.236769
     7  N   -0.031224
     8  N   -0.298325
     9  N   -0.182740
    10  N   -0.293609
    11  C   -0.006092
    12  C    0.335310
    13  C   -0.196082
    14  C   -0.142783
    15  C   -0.128521
    16  C   -0.037339
    17  C   -0.190222
    18  C    0.227628
    19  C   -0.030858
    20  C   -0.157757
    21  C    0.199887
    22  C    0.162841
    23  C   -0.090270
    24  C    0.093074
    25  C    0.026398
    26  C   -0.078564
    27  C   -0.075377
    28  C    0.086880
    29  C    0.112551
    30  C   -0.000324
    31  C   -0.042920
    32  C    0.012853
    33  C   -0.131497
    34  C    0.136349
    35  C    0.120141
    36  C   -0.040760
    37  C    0.188454
    38  C    0.069148
    39  C   -0.171535
    40  C    0.174645
    41  C   -0.041803
    42  C    0.092089
    43  C   -0.085521
    44  H    0.084635
    45  H   -0.010434
    46  H   -0.035610
    47  H    0.127266
    48  H    0.121829
    49  H   -0.020086
    50  H   -0.006082
    51  H    0.040728
    52  H    0.011629
    53  H   -0.011304
    54  H    0.062925
    55  H    0.031552
    56  H    0.090023
    57  H    0.041337
    58  H    0.006803
    59  H    0.040833
    60  H    0.196730
    61  H    0.011506
    62  H    0.059179
    63  H    0.019369
    64  H    0.078382
    65  H    0.038561
    66  H    0.034941
    67  H    0.039492
    68  H    0.049549
    69  H    0.036874
    70  H    0.005391
    71  H   -0.019020
    72  H    0.178727
    73  H    0.037576
    74  H    0.053066
    75  H    0.014926
    76  H    0.019566
    77  H    0.243079
    78  H    0.068899
    79  H    0.018640
 Sum of Mulliken charges =  -0.00000

 Dipole moment (field-independent basis, Debye):
    X=              1.8628    Y=              4.7118    Z=             -1.5756  Tot=              5.3060
 Quadrupole moment (field-independent basis, Debye-Ang):
   XX=           -230.0018   YY=           -236.5314   ZZ=           -262.0515
   XY=              5.4178   XZ=            -13.5071   YZ=            -15.2559

 Normal termination of Gaussian 16 at Mon Jul 29 09:28:27 2019.
