 Gaussian 16, Revision A.03,
 Gaussian 16:  ES64L-G16RevA.03 25-Dec-2016

 --------------------------
 # td=(NStates=1) B3LYP/SVP
 --------------------------

 --
 TD
 --
 Symbolic Z-matrix:
 Charge =  0 Multiplicity = 1

                         Standard orientation:
 ---------------------------------------------------------------------
 Center     Atomic      Atomic             Coordinates (Angstroms)
 Number     Number       Type             X           Y           Z
 ---------------------------------------------------------------------
      1          8           0        5.247666   -0.125620   -3.206879
      2          8           0       -3.142110   -2.791458    3.420702
      3          8           0       -3.404549   -0.580001    2.899761
      4          8           0       -1.394102    7.024763    1.631584
      5          8           0       -0.362262    7.006259   -0.461332
      6          8           0       -1.806805   -4.022642    0.183200
      7          7           0        2.301264    0.983468    0.677211
      8          7           0        4.335108   -0.572523   -1.181582
      9          7           0       -1.826799    0.651507   -0.424865
     10          7           0       -2.595761   -1.817848   -0.425266
     11          6           0        4.733365   -1.314827   -0.006881
     12          6           0        4.332765   -0.349730    1.272558
     13          6           0        2.886599   -0.011028    1.357505
     14          6           0        1.847557   -0.671923    2.066425
     15          6           0        0.721964    0.008330    1.787789
     16          6           0        0.971871    1.002506    0.841714
     17          6           0        6.213680   -1.412533   -0.155676
     18          6           0       -0.619129   -0.206842    2.555611
     19          6           0        6.662406   -0.940020   -1.374311
     20          6           0        0.136263    2.032258    0.230581
     21          6           0       -1.121868    1.894328   -0.280543
     22          6           0        5.354556   -0.479516   -2.095703
     23          6           0       -1.965633    2.954711   -0.959674
     24          6           0        2.056270   -1.777611    3.106505
     25          6           0        7.074724   -2.089805    0.877419
     26          6           0       -3.129438    2.343933   -1.369870
     27          6           0       -1.191088   -1.637658    2.667731
     28          6           0       -2.978085    0.875090   -1.143292
     29          6           0       -1.390171    4.384920   -0.996450
     30          6           0        7.822867   -0.736125   -2.151940
     31          6           0       -1.611355    5.072729    0.392790
     32          6           0       -4.278684    2.995446   -2.203921
     33          6           0       -3.987659   -0.051596   -1.421756
     34          6           0       -2.682965   -1.592292    3.048014
     35          6           0       -3.677311   -1.387066   -1.090075
     36          6           0        9.048777   -0.948852   -1.565119
     37          6           0       -1.065256    6.451778    0.405483
     38          6           0       -4.534539   -2.605535   -1.508359
     39          6           0       -3.826218   -3.661926   -1.057202
     40          6           0       -2.636560   -3.247321   -0.357070
     41          6           0       -5.787726   -2.485241   -2.283526
     42          6           0       -4.156437   -5.122110   -1.027626
     43          6           0       -6.582889   -3.430597   -2.774140
     44          1           0        4.306751   -2.392898    0.042337
     45          1           0        5.200535    0.450472    1.325951
     46          1           0        4.827718   -0.984921    2.258393
     47          1           0        2.741555    1.600608    0.128332
     48          1           0        3.362552   -0.581193   -1.564245
     49          1           0       -0.866969    0.303451    3.614358
     50          1           0       -1.437126    0.399206    2.098118
     51          1           0        0.498762    3.081472    0.283163
     52          1           0        3.132406   -1.863703    3.491102
     53          1           0        1.548222   -1.535260    4.009381
     54          1           0        1.681066   -2.877221    2.821418
     55          1           0        6.590436   -3.000914    1.277207
     56          1           0        7.134058   -1.413414    1.809386
     57          1           0        8.071557   -2.448716    0.474255
     58          1           0       -1.144964   -2.056240    1.558038
     59          1           0       -0.672764   -2.460171    3.443052
     60          1           0       -1.489366   -0.378513   -0.301372
     61          1           0       -2.156240    4.839861   -1.669288
     62          1           0       -0.352399    4.361318   -1.149489
     63          1           0        7.661590   -0.416570   -3.263797
     64          1           0       -1.133792    4.630236    1.453241
     65          1           0       -2.628196    5.121099    0.472237
     66          1           0       -4.337374    4.079173   -2.066903
     67          1           0       -5.214049    2.363208   -1.728974
     68          1           0       -4.118955    2.746093   -3.276403
     69          1           0       -4.941444    0.331667   -1.833465
     70          1           0        9.309648   -0.945839   -0.469328
     71          1           0       10.175032   -0.804250   -2.235312
     72          1           0       -4.102266   -2.757634    3.558786
     73          1           0       -6.366758   -1.446075   -2.432543
     74          1           0       -5.219139   -5.227527   -0.484881
     75          1           0       -3.950263   -5.609177   -2.109885
     76          1           0       -3.327369   -5.559375   -0.137426
     77          1           0       -1.031094    7.959141    1.635019
     78          1           0       -7.680115   -2.981829   -3.278055
     79          1           0       -6.514567   -4.463444   -2.729139
 ---------------------------------------------------------------------

 SCF Done:  E(RB3LYP) =  -1947.84458349     A.U. after   16 cycles

 Excitation energies and oscillator strengths:

 Excited State   1:      Singlet-A      2.0839 eV  594.95 nm  f=0.3718  <S**2>=0.000
     155 ->156         0.69720
 This state for optimization and/or second-order correction.
 Total Energy, E(TD-HF/TD-DFT) =  -1947.76800030
 Copying the excited state density for this state as the 1-particle RhoCI density.

 The electronic state is 1-A.
 Alpha  occ. eigenvalues --  -19.19127 -19.17674 -19.14193 -19.11471 -19.10840
 Alpha  occ. eigenvalues --  -19.10264 -14.38510 -14.36839 -14.34993 -14.29889
 Alpha  occ. eigenvalues --  -10.33407 -10.30820 -10.27643 -10.27129 -10.25589
 Alpha  occ. eigenvalues --  -10.25534 -10.24667 -10.24225 -10.23938 -10.22914
 Alpha  occ. eigenvalues --  -10.22681 -10.22516 -10.22496 -10.22296 -10.22276
 Alpha  occ. eigenvalues --  -10.22262 -10.22112 -10.22019 -10.21900 -10.21565
 Alpha  occ. eigenvalues --  -10.21256 -10.21182 -10.20960 -10.20786 -10.20728
 Alpha  occ. eigenvalues --  -10.20104 -10.20034 -10.19941 -10.19742 -10.19223
 Alpha  occ. eigenvalues --  -10.19144 -10.18540 -10.18466  -1.08332  -1.08114
 Alpha  occ. eigenvalues --   -1.04916  -1.01369  -1.00337  -1.00156  -0.97571
 Alpha  occ. eigenvalues --   -0.96647  -0.94188  -0.91842  -0.83080  -0.81852
 Alpha  occ. eigenvalues --   -0.81618  -0.81230  -0.80077  -0.78886  -0.78224
 Alpha  occ. eigenvalues --   -0.76954  -0.75624  -0.74968  -0.74282  -0.72116
 Alpha  occ. eigenvalues --   -0.70630  -0.70153  -0.69166  -0.68656  -0.68229
 Alpha  occ. eigenvalues --   -0.66380  -0.65152  -0.63620  -0.60508  -0.60004
 Alpha  occ. eigenvalues --   -0.59839  -0.59275  -0.57948  -0.57582  -0.56828
 Alpha  occ. eigenvalues --   -0.56382  -0.55088  -0.54903  -0.53790  -0.53114
 Alpha  occ. eigenvalues --   -0.52313  -0.51886  -0.51181  -0.49885  -0.49726
 Alpha  occ. eigenvalues --   -0.48423  -0.48155  -0.47455  -0.47333  -0.46937
 Alpha  occ. eigenvalues --   -0.46713  -0.46568  -0.46283  -0.45741  -0.45379
 Alpha  occ. eigenvalues --   -0.44956  -0.44394  -0.43829  -0.43705  -0.43549
 Alpha  occ. eigenvalues --   -0.43338  -0.42991  -0.42434  -0.42316  -0.42034
 Alpha  occ. eigenvalues --   -0.41893  -0.41450  -0.41366  -0.41237  -0.40823
 Alpha  occ. eigenvalues --   -0.40603  -0.40523  -0.39699  -0.39386  -0.39186
 Alpha  occ. eigenvalues --   -0.38962  -0.38582  -0.38447  -0.38305  -0.38104
 Alpha  occ. eigenvalues --   -0.37465  -0.37359  -0.36823  -0.36126  -0.35909
 Alpha  occ. eigenvalues --   -0.35382  -0.34984  -0.34662  -0.34405  -0.34102
 Alpha  occ. eigenvalues --   -0.33452  -0.33093  -0.32602  -0.32083  -0.31574
 Alpha  occ. eigenvalues --   -0.30848  -0.30396  -0.29256  -0.28929  -0.27385
 Alpha  occ. eigenvalues --   -0.26926  -0.26475  -0.26106  -0.25596  -0.25132
 Alpha  occ. eigenvalues --   -0.24565  -0.24008  -0.23245  -0.22664  -0.19727
 Alpha virt. eigenvalues --   -0.11126  -0.06593  -0.06193  -0.02101  -0.00643
 Alpha virt. eigenvalues --    0.00789   0.01090   0.01603   0.02169   0.03027
 Alpha virt. eigenvalues --    0.03099   0.03871   0.04285   0.04595   0.04995

 Mulliken charges:
               1
     1  O   -0.174550
     2  O   -0.159325
     3  O   -0.277651
     4  O   -0.233336
     5  O   -0.249001
     6  O   -0.240291
     7  N    0.075688
     8  N   -0.196845
     9  N   -0.135587
    10  N   -0.326906
    11  C    0.097737
    12  C    0.002763
    13  C   -0.037758
    14  C   -0.095662
    15  C   -0.029976
    16  C    0.007124
    17  C   -0.203455
    18  C    0.016508
    19  C   -0.034471
    20  C   -0.104222
    21  C    0.106481
    22  C    0.087433
    23  C   -0.101572
    24  C    0.058327
    25  C    0.056569
    26  C   -0.169269
    27  C   -0.095084
    28  C    0.120229
    29  C    0.192146
    30  C   -0.004193
    31  C   -0.035958
    32  C    0.033684
    33  C   -0.121109
    34  C    0.149703
    35  C    0.116656
    36  C   -0.122734
    37  C    0.168642
    38  C    0.101101
    39  C   -0.196971
    40  C    0.206432
    41  C   -0.028646
    42  C   -0.057814
    43  C   -0.083614
    44  H    0.050939
    45  H    0.025713
    46  H    0.024161
    47  H    0.063440
    48  H    0.137661
    49  H    0.012670
    50  H    0.016383
    51  H    0.004634
    52  H    0.004491
    53  H    0.010467
    54  H    0.053099
    55  H    0.015099
    56  H    0.039129
    57  H    0.042855
    58  H    0.102468
    59  H    0.048327
    60  H    0.196133
    61  H    0.017930
    62  H    0.013373
    63  H    0.060072
    64  H    0.092847
    65  H    0.013262
    66  H    0.030589
    67  H    0.059295
    68  H    0.056846
    69  H   -0.007623
    70  H    0.054085
    71  H    0.041823
    72  H    0.179883
    73  H    0.030566
    74  H    0.051135
    75  H    0.064542
    76  H    0.072465
    77  H    0.197855
    78  H    0.040105
    79  H    0.002060
 Sum of Mulliken charges =  -0.00000

 Dipole moment (field-independent basis, Debye):
    X=             -0.8897    Y=              2.9021    Z=              2.2970  Tot=              3.8066
 Quadrupole moment (field-independent basis, Debye-Ang):
   XX=           -226.1632   YY=           -248.5263   ZZ=           -262.1607
   XY=            -10.5670   XZ=             30.3987   YZ=              3.5143

 Normal termination of Gaussian 16 at Tue Oct  8 06:29:04 2019.
