 Gaussian 16, Revision A.03,
 Gaussian 16:  ES64L-G16RevA.03 25-Dec-2016

 --------------------------
 # td=(NStates=1) B3LYP/SVP
 --------------------------

 --
 TD
 --
 Symbolic Z-matrix:
 Charge =  0 Multiplicity = 1

                         Standard orientation:
 ---------------------------------------------------------------------
 Center     Atomic      Atomic             Coordinates (Angstroms)
 Number     Number       Type             X           Y           Z
 ---------------------------------------------------------------------
      1          8           0       -3.285503   -1.731617   -2.730671
      2          8           0        3.309236    3.305881    2.803496
      3          8           0        3.752444    1.675981    4.399258
      4          8           0        7.622002   -1.558761   -0.511339
      5          8           0        6.779076   -2.974630   -2.123675
      6          8           0       -2.513828    1.770022    1.363697
      7          7           0       -0.282455   -2.283573    1.101799
      8          7           0       -2.770537   -1.176076   -0.482542
      9          7           0        1.099568   -0.054311   -0.815344
     10          7           0       -1.121307    1.366661   -0.293413
     11          6           0       -3.476169   -1.163860    0.765364
     12          6           0       -2.709892   -2.083340    1.828282
     13          6           0       -1.219139   -1.819600    2.128868
     14          6           0       -0.603707   -0.933992    2.996273
     15          6           0        0.742936   -0.889045    2.580500
     16          6           0        0.924355   -1.646354    1.434013
     17          6           0       -4.816468   -1.632190    0.407354
     18          6           0        1.917234   -0.225553    3.246720
     19          6           0       -4.820033   -2.067042   -0.858964
     20          6           0        2.051992   -1.844154    0.483313
     21          6           0        2.139101   -0.971337   -0.660135
     22          6           0       -3.519606   -1.598741   -1.553317
     23          6           0        3.052915   -0.835952   -1.675859
     24          6           0       -1.398153   -0.060134    4.008297
     25          6           0       -5.747790   -1.883762    1.429665
     26          6           0        2.553830    0.255341   -2.509000
     27          6           0        2.102837    1.284734    2.627840
     28          6           0        1.254097    0.663860   -1.943805
     29          6           0        4.173035   -1.652266   -1.912584
     30          6           0       -5.769533   -2.667609   -1.715568
     31          6           0        5.474519   -1.138524   -1.169132
     32          6           0        3.126019    0.736608   -3.780425
     33          6           0        0.368686    1.704216   -2.262545
     34          6           0        3.227925    2.108453    3.464781
     35          6           0       -0.659565    2.021000   -1.420540
     36          6           0       -6.882009   -3.497367   -1.401590
     37          6           0        6.680648   -2.064236   -1.303739
     38          6           0       -1.533415    3.306980   -1.549427
     39          6           0       -2.291808    3.329641   -0.456318
     40          6           0       -1.943207    2.092270    0.321463
     41          6           0       -1.427885    4.136661   -2.736135
     42          6           0       -3.263099    4.459130    0.010707
     43          6           0       -2.119331    5.330916   -2.866063
     44          1           0       -3.431328   -0.173639    1.147482
     45          1           0       -2.813670   -3.144654    1.446449
     46          1           0       -3.212635   -2.130928    2.710203
     47          1           0       -0.460125   -2.831206    0.200281
     48          1           0       -2.041798   -0.398045   -0.629191
     49          1           0        1.570302   -0.103865    4.272025
     50          1           0        2.924957   -0.488620    3.091975
     51          1           0        2.854373   -2.627819    0.930261
     52          1           0       -1.812047   -0.780638    4.767874
     53          1           0       -0.684070    0.585462    4.592045
     54          1           0       -2.076589    0.613892    3.312817
     55          1           0       -5.569378   -1.248855    2.154476
     56          1           0       -5.683196   -2.680363    2.072364
     57          1           0       -6.714409   -1.997220    1.075407
     58          1           0        2.050102    1.245801    1.494687
     59          1           0        1.179071    1.961098    2.619807
     60          1           0        0.270245    0.066437   -0.227797
     61          1           0        4.569162   -1.886969   -2.895031
     62          1           0        4.108200   -2.772892   -1.590747
     63          1           0       -5.450584   -2.506607   -2.832977
     64          1           0        5.281938   -0.991929   -0.052967
     65          1           0        5.738138   -0.145294   -1.552624
     66          1           0        4.044364    0.025435   -4.084269
     67          1           0        3.691509    1.640270   -3.466164
     68          1           0        2.399012    1.028073   -4.647978
     69          1           0        0.549821    2.272200   -3.189343
     70          1           0       -7.262789   -3.516741   -0.357867
     71          1           0       -7.517247   -3.839970   -2.162189
     72          1           0        3.982432    3.705527    3.218231
     73          1           0       -0.894090    3.852231   -3.675011
     74          1           0       -4.148191    4.742114   -0.843137
     75          1           0       -3.878200    4.074222    0.870240
     76          1           0       -2.775734    5.290968    0.365503
     77          1           0        8.542865   -2.020943   -0.491523
     78          1           0       -2.124653    6.089430   -3.740716
     79          1           0       -2.525958    5.701604   -1.831990
 ---------------------------------------------------------------------

 SCF Done:  E(RB3LYP) =  -1947.83962444     A.U. after   20 cycles

 Excitation energies and oscillator strengths:

 Excited State   1:      Singlet-A      0.9665 eV 1282.75 nm  f=0.0059  <S**2>=0.000
     154 ->156         0.10624
     155 ->156         0.69544
 This state for optimization and/or second-order correction.
 Total Energy, E(TD-HF/TD-DFT) =  -1947.80410441
 Copying the excited state density for this state as the 1-particle RhoCI density.

 The electronic state is 1-A.
 Alpha  occ. eigenvalues --  -19.20928 -19.18391 -19.14808 -19.14511 -19.09713
 Alpha  occ. eigenvalues --  -19.08245 -14.38302 -14.36669 -14.32085 -14.30263
 Alpha  occ. eigenvalues --  -10.34226 -10.32803 -10.27345 -10.26730 -10.26172
 Alpha  occ. eigenvalues --  -10.25812 -10.25616 -10.25458 -10.24165 -10.23414
 Alpha  occ. eigenvalues --  -10.23312 -10.22861 -10.22210 -10.21431 -10.21321
 Alpha  occ. eigenvalues --  -10.21263 -10.21258 -10.20824 -10.20783 -10.20514
 Alpha  occ. eigenvalues --  -10.20273 -10.20003 -10.19852 -10.18854 -10.18781
 Alpha  occ. eigenvalues --  -10.18763 -10.18591 -10.18159 -10.17806 -10.17676
 Alpha  occ. eigenvalues --  -10.17558 -10.16529 -10.15590  -1.11916  -1.10715
 Alpha  occ. eigenvalues --   -1.05258  -1.02377  -1.01935  -1.01010  -1.00528
 Alpha  occ. eigenvalues --   -0.94137  -0.93886  -0.92139  -0.85296  -0.82628
 Alpha  occ. eigenvalues --   -0.81149  -0.80771  -0.79309  -0.79281  -0.77936
 Alpha  occ. eigenvalues --   -0.76161  -0.75177  -0.74441  -0.73862  -0.73004
 Alpha  occ. eigenvalues --   -0.70602  -0.70163  -0.69459  -0.69114  -0.67489
 Alpha  occ. eigenvalues --   -0.66488  -0.65688  -0.63223  -0.62666  -0.60403
 Alpha  occ. eigenvalues --   -0.60016  -0.59406  -0.59006  -0.58172  -0.57622
 Alpha  occ. eigenvalues --   -0.55719  -0.55383  -0.54530  -0.53504  -0.52713
 Alpha  occ. eigenvalues --   -0.51907  -0.51331  -0.50996  -0.50230  -0.49808
 Alpha  occ. eigenvalues --   -0.49434  -0.49288  -0.48987  -0.48196  -0.48039
 Alpha  occ. eigenvalues --   -0.47919  -0.47138  -0.47104  -0.46002  -0.45792
 Alpha  occ. eigenvalues --   -0.45615  -0.45082  -0.44782  -0.44540  -0.44043
 Alpha  occ. eigenvalues --   -0.43756  -0.43363  -0.43107  -0.42417  -0.42291
 Alpha  occ. eigenvalues --   -0.42001  -0.41838  -0.41508  -0.41112  -0.40684
 Alpha  occ. eigenvalues --   -0.40466  -0.40186  -0.39986  -0.39635  -0.39604
 Alpha  occ. eigenvalues --   -0.38904  -0.38523  -0.38333  -0.37849  -0.37776
 Alpha  occ. eigenvalues --   -0.37328  -0.36775  -0.36609  -0.36140  -0.35711
 Alpha  occ. eigenvalues --   -0.35498  -0.35247  -0.34798  -0.34697  -0.34351
 Alpha  occ. eigenvalues --   -0.34145  -0.34092  -0.33491  -0.32789  -0.32509
 Alpha  occ. eigenvalues --   -0.31904  -0.29940  -0.29185  -0.28870  -0.28514
 Alpha  occ. eigenvalues --   -0.27898  -0.26768  -0.25047  -0.24321  -0.23765
 Alpha  occ. eigenvalues --   -0.23455  -0.22920  -0.22458  -0.21171  -0.19504
 Alpha virt. eigenvalues --   -0.13337  -0.07518  -0.03998  -0.02441  -0.01899
 Alpha virt. eigenvalues --    0.00918   0.01072   0.01482   0.02195   0.03406
 Alpha virt. eigenvalues --    0.03716   0.03981   0.04732   0.04898   0.05889

 Mulliken charges:
               1
     1  O   -0.227576
     2  O   -0.129911
     3  O   -0.143897
     4  O   -0.206278
     5  O   -0.234991
     6  O   -0.242588
     7  N   -0.177723
     8  N   -0.244399
     9  N   -0.072956
    10  N   -0.228358
    11  C    0.134705
    12  C    0.205986
    13  C   -0.056051
    14  C   -0.114347
    15  C   -0.108439
    16  C   -0.043207
    17  C   -0.171605
    18  C    0.190870
    19  C   -0.081340
    20  C   -0.107394
    21  C    0.130257
    22  C    0.147626
    23  C    0.051782
    24  C    0.045921
    25  C    0.243202
    26  C   -0.141031
    27  C   -0.148000
    28  C    0.113368
    29  C    0.000524
    30  C   -0.068807
    31  C   -0.066309
    32  C    0.039875
    33  C   -0.105752
    34  C    0.149824
    35  C    0.116992
    36  C   -0.026125
    37  C    0.175132
    38  C    0.090996
    39  C   -0.200177
    40  C    0.095698
    41  C   -0.059147
    42  C    0.045215
    43  C   -0.076464
    44  H    0.020441
    45  H   -0.019361
    46  H   -0.048802
    47  H    0.152397
    48  H    0.164129
    49  H    0.003977
    50  H   -0.009520
    51  H    0.071682
    52  H    0.026628
    53  H    0.001852
    54  H    0.098553
    55  H   -0.054501
    56  H   -0.015102
    57  H   -0.001135
    58  H    0.020086
    59  H    0.034718
    60  H    0.181224
    61  H    0.021766
    62  H    0.033045
    63  H    0.035939
    64  H    0.047608
    65  H    0.040493
    66  H    0.041851
    67  H    0.034513
    68  H    0.071605
    69  H   -0.014742
    70  H    0.013334
    71  H    0.010532
    72  H    0.114230
    73  H    0.009332
    74  H    0.055195
    75  H    0.027033
    76  H    0.026516
    77  H    0.221343
    78  H    0.050285
    79  H    0.037755
 Sum of Mulliken charges =  -0.00000

 Dipole moment (field-independent basis, Debye):
    X=              7.4151    Y=              3.2539    Z=             -0.4485  Tot=              8.1100
 Quadrupole moment (field-independent basis, Debye-Ang):
   XX=           -225.1630   YY=           -244.5106   ZZ=           -263.8181
   XY=              0.0161   XZ=            -16.8987   YZ=            -18.9229

 Normal termination of Gaussian 16 at Wed Jul 24 15:44:58 2019.
