 Gaussian 16, Revision A.03,
 Gaussian 16:  ES64L-G16RevA.03 25-Dec-2016

 --------------------------
 # td=(NStates=1) B3LYP/SVP
 --------------------------

 --
 TD
 --
 Symbolic Z-matrix:
 Charge =  0 Multiplicity = 1

                         Standard orientation:
 ---------------------------------------------------------------------
 Center     Atomic      Atomic             Coordinates (Angstroms)
 Number     Number       Type             X           Y           Z
 ---------------------------------------------------------------------
      1          8           0        5.196066   -0.289101   -3.281371
      2          8           0       -3.087730   -2.814852    3.343695
      3          8           0       -3.406048   -0.649393    2.884171
      4          8           0       -1.455469    7.072246    1.573570
      5          8           0       -0.392364    7.017251   -0.451535
      6          8           0       -1.858814   -3.817984   -0.115560
      7          7           0        2.374632    0.875123    0.672619
      8          7           0        4.302267   -0.683033   -1.161505
      9          7           0       -1.873512    0.726677   -0.289332
     10          7           0       -2.702869   -1.778804   -0.467102
     11          6           0        4.729468   -1.258484    0.013069
     12          6           0        4.459687   -0.364734    1.230329
     13          6           0        3.038251   -0.166292    1.328478
     14          6           0        2.082395   -0.609112    2.278599
     15          6           0        0.781640   -0.101488    1.834956
     16          6           0        1.011783    0.836160    0.803053
     17          6           0        6.212192   -1.527796   -0.283667
     18          6           0       -0.614695   -0.140334    2.559629
     19          6           0        6.579188   -0.958243   -1.448336
     20          6           0        0.246781    1.805447    0.104978
     21          6           0       -1.089853    1.774470   -0.320113
     22          6           0        5.389168   -0.588139   -2.095673
     23          6           0       -1.792584    2.915052   -0.946312
     24          6           0        2.309940   -1.753671    3.183754
     25          6           0        7.138014   -2.146771    0.748506
     26          6           0       -3.014321    2.420297   -1.394222
     27          6           0       -1.184008   -1.520136    2.678551
     28          6           0       -2.985721    0.944477   -1.112492
     29          6           0       -1.343794    4.352273   -1.007536
     30          6           0        7.909246   -0.783538   -1.995671
     31          6           0       -1.472229    4.967917    0.306620
     32          6           0       -4.217024    2.964007   -2.019155
     33          6           0       -3.917827    0.062244   -1.378008
     34          6           0       -2.572964   -1.596571    3.031855
     35          6           0       -3.747414   -1.413647   -1.039715
     36          6           0        9.094570   -0.755893   -1.398014
     37          6           0       -1.002506    6.406433    0.396055
     38          6           0       -4.763026   -2.510933   -1.305839
     39          6           0       -4.059748   -3.658708   -0.996829
     40          6           0       -2.787945   -3.217157   -0.566616
     41          6           0       -6.090446   -2.224669   -2.035915
     42          6           0       -4.476398   -5.111848   -1.279586
     43          6           0       -6.967263   -3.250811   -2.325425
     44          1           0        4.382974   -2.338925    0.262620
     45          1           0        4.883188    0.604729    0.994893
     46          1           0        4.779560   -0.669976    2.241101
     47          1           0        2.793186    1.296756   -0.486437
     48          1           0        3.261045   -0.740250   -1.573012
     49          1           0       -0.566856    0.221640    3.501690
     50          1           0       -1.307653    0.424829    2.076535
     51          1           0        0.863330    2.613589   -0.150000
     52          1           0        3.401818   -1.730454    3.251250
     53          1           0        1.594415   -1.445452    4.029396
     54          1           0        1.999596   -2.637539    2.610937
     55          1           0        6.881366   -3.108589    1.270935
     56          1           0        7.479607   -1.311832    1.312210
     57          1           0        8.076757   -2.530157    0.163706
     58          1           0       -1.143201   -2.031540    1.624448
     59          1           0       -0.824979   -2.369189    3.547657
     60          1           0       -1.674367   -0.259457    0.018164
     61          1           0       -2.057745    4.869651   -1.652638
     62          1           0       -0.387719    4.455579   -1.187504
     63          1           0        7.932629   -0.585976   -3.285187
     64          1           0       -1.124436    4.523886    1.175675
     65          1           0       -2.587693    5.108082    0.713775
     66          1           0       -4.315925    4.208586   -1.781244
     67          1           0       -5.217221    2.536624   -1.560075
     68          1           0       -3.962079    2.656430   -3.191583
     69          1           0       -4.981351    0.475182   -1.728960
     70          1           0        9.229915   -0.640954   -0.418069
     71          1           0       10.152253   -0.948236   -1.873724
     72          1           0       -3.979359   -2.925423    3.671906
     73          1           0       -6.133771   -1.239539   -2.448878
     74          1           0       -5.250826   -5.094890   -0.296340
     75          1           0       -5.024781   -5.236665   -2.403316
     76          1           0       -3.596939   -5.748481   -1.028021
     77          1           0       -1.196329    8.005441    1.586603
     78          1           0       -7.720458   -3.064436   -3.028731
     79          1           0       -6.622049   -4.206935   -2.162157
 ---------------------------------------------------------------------

 SCF Done:  E(RB3LYP) =  -1947.73091228     A.U. after   16 cycles

 Excitation energies and oscillator strengths:

 Excited State   1:      Singlet-A      1.7508 eV  708.15 nm  f=0.3178  <S**2>=0.000
     155 ->156         0.70751
     155 <-156        -0.10608
 This state for optimization and/or second-order correction.
 Total Energy, E(TD-HF/TD-DFT) =  -1947.66657130
 Copying the excited state density for this state as the 1-particle RhoCI density.

 The electronic state is 1-A.
 Alpha  occ. eigenvalues --  -19.16767 -19.16139 -19.13230 -19.11624 -19.10058
 Alpha  occ. eigenvalues --  -19.09686 -14.37947 -14.35741 -14.35522 -14.29464
 Alpha  occ. eigenvalues --  -10.32326 -10.30542 -10.28533 -10.27184 -10.25030
 Alpha  occ. eigenvalues --  -10.23643 -10.23504 -10.23419 -10.23159 -10.23060
 Alpha  occ. eigenvalues --  -10.22893 -10.22186 -10.21993 -10.21889 -10.21634
 Alpha  occ. eigenvalues --  -10.21559 -10.21491 -10.21024 -10.20963 -10.20883
 Alpha  occ. eigenvalues --  -10.20846 -10.20673 -10.20479 -10.20429 -10.19925
 Alpha  occ. eigenvalues --  -10.19751 -10.19625 -10.19618 -10.19248 -10.19112
 Alpha  occ. eigenvalues --  -10.18655 -10.18583 -10.17803  -1.07417  -1.06507
 Alpha  occ. eigenvalues --   -1.04349  -1.01857  -0.99533  -0.98391  -0.96454
 Alpha  occ. eigenvalues --   -0.95714  -0.94699  -0.94647  -0.83543  -0.83167
 Alpha  occ. eigenvalues --   -0.81743  -0.81228  -0.80374  -0.80067  -0.77967
 Alpha  occ. eigenvalues --   -0.77217  -0.76589  -0.76182  -0.74699  -0.72826
 Alpha  occ. eigenvalues --   -0.71552  -0.70850  -0.69708  -0.68177  -0.68054
 Alpha  occ. eigenvalues --   -0.66904  -0.65915  -0.64168  -0.61530  -0.60417
 Alpha  occ. eigenvalues --   -0.59462  -0.59001  -0.58365  -0.57391  -0.56774
 Alpha  occ. eigenvalues --   -0.55906  -0.55216  -0.54736  -0.53552  -0.52724
 Alpha  occ. eigenvalues --   -0.52199  -0.51866  -0.50913  -0.50160  -0.49850
 Alpha  occ. eigenvalues --   -0.48660  -0.48234  -0.47830  -0.47157  -0.47065
 Alpha  occ. eigenvalues --   -0.46948  -0.46469  -0.46167  -0.45799  -0.45502
 Alpha  occ. eigenvalues --   -0.45177  -0.44853  -0.44509  -0.44306  -0.43978
 Alpha  occ. eigenvalues --   -0.43516  -0.43274  -0.42969  -0.42794  -0.42443
 Alpha  occ. eigenvalues --   -0.42332  -0.41960  -0.41776  -0.41556  -0.41458
 Alpha  occ. eigenvalues --   -0.41357  -0.40505  -0.40204  -0.39932  -0.39495
 Alpha  occ. eigenvalues --   -0.39110  -0.38648  -0.38502  -0.38118  -0.37953
 Alpha  occ. eigenvalues --   -0.37457  -0.37077  -0.36724  -0.36670  -0.36315
 Alpha  occ. eigenvalues --   -0.35587  -0.35397  -0.34984  -0.34787  -0.34389
 Alpha  occ. eigenvalues --   -0.33906  -0.33498  -0.32846  -0.32036  -0.31550
 Alpha  occ. eigenvalues --   -0.30919  -0.29276  -0.29060  -0.28421  -0.28239
 Alpha  occ. eigenvalues --   -0.26409  -0.25807  -0.25499  -0.25136  -0.24819
 Alpha  occ. eigenvalues --   -0.24472  -0.24141  -0.23483  -0.23235  -0.17541
 Alpha virt. eigenvalues --   -0.10582  -0.06486  -0.06064  -0.01576  -0.01243
 Alpha virt. eigenvalues --   -0.00314  -0.00296   0.00260   0.01540   0.02633
 Alpha virt. eigenvalues --    0.03411   0.03999   0.04181   0.04564   0.05108

 Mulliken charges:
               1
     1  O   -0.232929
     2  O   -0.199528
     3  O   -0.294901
     4  O   -0.253028
     5  O   -0.212565
     6  O   -0.150085
     7  N   -0.194850
     8  N   -0.242551
     9  N   -0.054088
    10  N   -0.222328
    11  C    0.060223
    12  C    0.254812
    13  C   -0.084779
    14  C   -0.193799
    15  C   -0.130178
    16  C    0.082952
    17  C   -0.205763
    18  C    0.229920
    19  C    0.025619
    20  C   -0.112114
    21  C    0.100869
    22  C    0.146962
    23  C   -0.155174
    24  C    0.108394
    25  C    0.050600
    26  C   -0.083113
    27  C   -0.105543
    28  C    0.147046
    29  C    0.345644
    30  C   -0.040986
    31  C   -0.060004
    32  C   -0.054558
    33  C   -0.190842
    34  C    0.138481
    35  C    0.021606
    36  C   -0.047089
    37  C    0.146088
    38  C   -0.000191
    39  C   -0.202249
    40  C    0.133285
    41  C   -0.015345
    42  C   -0.007389
    43  C    0.061941
    44  H    0.022285
    45  H   -0.017356
    46  H    0.009415
    47  H    0.178080
    48  H    0.178057
    49  H   -0.028174
    50  H   -0.028494
    51  H   -0.043083
    52  H   -0.007565
    53  H    0.044696
    54  H    0.045558
    55  H    0.040593
    56  H    0.043667
    57  H    0.038652
    58  H    0.103733
    59  H    0.051393
    60  H    0.164701
    61  H    0.005766
    62  H   -0.046399
    63  H    0.061434
    64  H    0.016986
    65  H    0.043512
    66  H    0.047246
    67  H    0.068485
    68  H    0.077994
    69  H    0.016519
    70  H   -0.023111
    71  H    0.049525
    72  H    0.184644
    73  H   -0.001043
    74  H    0.070731
    75  H    0.085901
    76  H    0.047867
    77  H    0.182530
    78  H    0.016160
    79  H   -0.009375
 Sum of Mulliken charges =  -0.00000

 Dipole moment (field-independent basis, Debye):
    X=             -0.4516    Y=             -1.1662    Z=              2.3127  Tot=              2.6292
 Quadrupole moment (field-independent basis, Debye-Ang):
   XX=           -212.3858   YY=           -248.1752   ZZ=           -260.3429
   XY=             -4.9604   XZ=             33.4943   YZ=              3.2058

 Normal termination of Gaussian 16 at Wed Oct  2 05:17:07 2019.
