 Gaussian 16, Revision A.03,
 Gaussian 16:  ES64L-G16RevA.03 25-Dec-2016

 --------------------------
 # td=(NStates=1) B3LYP/SVP
 --------------------------

 --
 TD
 --
 Symbolic Z-matrix:
 Charge =  0 Multiplicity = 1

                         Standard orientation:
 ---------------------------------------------------------------------
 Center     Atomic      Atomic             Coordinates (Angstroms)
 Number     Number       Type             X           Y           Z
 ---------------------------------------------------------------------
      1          8           0       -3.282747   -1.559470   -2.804842
      2          8           0        3.017458    3.330197    3.202661
      3          8           0        3.823613    1.433300    4.174294
      4          8           0        7.667031   -1.710569   -0.789014
      5          8           0        6.572666   -3.299097   -1.850072
      6          8           0       -2.673924    1.772883    1.328722
      7          7           0       -0.369788   -2.264635    0.948225
      8          7           0       -2.701647   -1.363591   -0.621530
      9          7           0        1.164768    0.086020   -0.706223
     10          7           0       -0.977147    1.464609   -0.290494
     11          6           0       -3.456681   -1.344716    0.645324
     12          6           0       -2.663735   -2.185282    1.682577
     13          6           0       -1.308334   -1.892375    1.877548
     14          6           0       -0.537043   -0.987052    2.774380
     15          6           0        0.732617   -1.063727    2.455005
     16          6           0        0.863458   -1.836423    1.271581
     17          6           0       -4.794246   -1.823211    0.309941
     18          6           0        1.938042   -0.361339    3.178389
     19          6           0       -4.891237   -2.084330   -1.002993
     20          6           0        1.982877   -1.895222    0.322940
     21          6           0        2.110468   -0.920382   -0.575298
     22          6           0       -3.516209   -1.671571   -1.619631
     23          6           0        3.058537   -0.788633   -1.739569
     24          6           0       -1.259209   -0.412012    3.916735
     25          6           0       -5.845298   -2.034732    1.527734
     26          6           0        2.532985    0.385520   -2.426457
     27          6           0        1.954301    1.197145    2.748883
     28          6           0        1.306487    0.828748   -1.811223
     29          6           0        4.274429   -1.558181   -2.011666
     30          6           0       -5.900234   -2.556909   -1.963391
     31          6           0        5.382271   -1.324322   -1.023213
     32          6           0        3.141292    1.039040   -3.692948
     33          6           0        0.551994    1.966199   -2.065095
     34          6           0        3.012417    1.973549    3.459706
     35          6           0       -0.621879    2.212974   -1.354995
     36          6           0       -7.021020   -3.234697   -1.588457
     37          6           0        6.640228   -2.183943   -1.299617
     38          6           0       -1.277061    3.517570   -1.347792
     39          6           0       -2.239302    3.443356   -0.383615
     40          6           0       -1.987828    2.145815    0.329906
     41          6           0       -1.107727    4.455806   -2.404538
     42          6           0       -3.215103    4.509505    0.143567
     43          6           0       -1.650691    5.708758   -2.490285
     44          1           0       -3.520276   -0.232986    1.007991
     45          1           0       -3.033210   -3.191218    1.416948
     46          1           0       -3.381521   -2.175286    2.698134
     47          1           0       -0.587564   -2.835286    0.237494
     48          1           0       -2.249401   -0.443401   -0.979815
     49          1           0        1.921625   -0.509201    4.307381
     50          1           0        2.949809   -0.927638    2.842496
     51          1           0        2.583088   -2.767000    0.378384
     52          1           0       -2.051918   -1.008295    4.546399
     53          1           0       -0.563097   -0.035297    4.606712
     54          1           0       -1.858997    0.325549    3.616505
     55          1           0       -5.577772   -1.428324    2.470473
     56          1           0       -5.566630   -3.158848    1.893856
     57          1           0       -6.803002   -1.777300    1.096771
     58          1           0        2.012556    1.447736    1.632521
     59          1           0        0.962630    1.518513    2.813641
     60          1           0        0.079951    0.198487   -0.074198
     61          1           0        4.387811   -1.202969   -3.241218
     62          1           0        3.999275   -2.606610   -1.742277
     63          1           0       -5.457326   -2.424022   -3.103179
     64          1           0        5.010743   -1.380961    0.087277
     65          1           0        5.737949   -0.085842   -0.871527
     66          1           0        4.222049    0.487505   -3.926832
     67          1           0        3.373833    2.065503   -3.547352
     68          1           0        2.356509    0.913056   -4.574084
     69          1           0        0.615592    2.806299   -2.909532
     70          1           0       -7.166688   -3.293308   -0.471074
     71          1           0       -7.833479   -3.467016   -2.354564
     72          1           0        3.642965    3.908739    3.691523
     73          1           0       -0.429961    4.287692   -3.065870
     74          1           0       -4.060301    4.834751   -0.461637
     75          1           0       -3.824756    4.252883    1.165765
     76          1           0       -2.675971    5.342703    0.489720
     77          1           0        8.300669   -2.522476   -0.914950
     78          1           0       -1.241558    6.405870   -3.485332
     79          1           0       -2.217086    6.133657   -1.740986
 ---------------------------------------------------------------------

 SCF Done:  E(RB3LYP) =  -1947.76942264     A.U. after   17 cycles

 Excitation energies and oscillator strengths:

 Excited State   1:      Singlet-A      0.9362 eV 1324.35 nm  f=0.0018  <S**2>=0.000
     155 ->156         0.70396
 This state for optimization and/or second-order correction.
 Total Energy, E(TD-HF/TD-DFT) =  -1947.73501838
 Copying the excited state density for this state as the 1-particle RhoCI density.

 The electronic state is 1-A.
 Alpha  occ. eigenvalues --  -19.22099 -19.17121 -19.12962 -19.11932 -19.11329
 Alpha  occ. eigenvalues --  -19.08641 -14.36981 -14.36866 -14.33347 -14.31743
 Alpha  occ. eigenvalues --  -10.33428 -10.31744 -10.28013 -10.26481 -10.26258
 Alpha  occ. eigenvalues --  -10.25217 -10.24678 -10.24470 -10.23556 -10.23503
 Alpha  occ. eigenvalues --  -10.23021 -10.22955 -10.22245 -10.22083 -10.21778
 Alpha  occ. eigenvalues --  -10.21699 -10.21400 -10.21384 -10.21187 -10.20994
 Alpha  occ. eigenvalues --  -10.20615 -10.20554 -10.20308 -10.20269 -10.20130
 Alpha  occ. eigenvalues --  -10.20109 -10.19910 -10.19771 -10.19096 -10.18545
 Alpha  occ. eigenvalues --  -10.17143 -10.16772 -10.16057  -1.15604  -1.07464
 Alpha  occ. eigenvalues --   -1.01881  -1.00809  -1.00516  -0.99590  -0.99146
 Alpha  occ. eigenvalues --   -0.98177  -0.94200  -0.93018  -0.83694  -0.82515
 Alpha  occ. eigenvalues --   -0.82339  -0.80670  -0.80220  -0.78873  -0.77945
 Alpha  occ. eigenvalues --   -0.76971  -0.76032  -0.75579  -0.74052  -0.72396
 Alpha  occ. eigenvalues --   -0.70885  -0.70702  -0.68829  -0.68282  -0.68046
 Alpha  occ. eigenvalues --   -0.66890  -0.66252  -0.63208  -0.61952  -0.61109
 Alpha  occ. eigenvalues --   -0.60332  -0.59939  -0.58213  -0.57432  -0.56396
 Alpha  occ. eigenvalues --   -0.56264  -0.55500  -0.54619  -0.54176  -0.53293
 Alpha  occ. eigenvalues --   -0.52136  -0.51925  -0.51009  -0.50696  -0.50477
 Alpha  occ. eigenvalues --   -0.49949  -0.49522  -0.48491  -0.48110  -0.47594
 Alpha  occ. eigenvalues --   -0.46574  -0.46487  -0.46136  -0.45821  -0.45760
 Alpha  occ. eigenvalues --   -0.45058  -0.44773  -0.44538  -0.44498  -0.43648
 Alpha  occ. eigenvalues --   -0.43321  -0.42953  -0.42798  -0.42409  -0.42124
 Alpha  occ. eigenvalues --   -0.41788  -0.41689  -0.40839  -0.40698  -0.40391
 Alpha  occ. eigenvalues --   -0.40346  -0.40068  -0.39749  -0.39072  -0.38939
 Alpha  occ. eigenvalues --   -0.38596  -0.38443  -0.38124  -0.38017  -0.37927
 Alpha  occ. eigenvalues --   -0.37210  -0.37027  -0.36772  -0.36485  -0.36331
 Alpha  occ. eigenvalues --   -0.35620  -0.35417  -0.34854  -0.34196  -0.33996
 Alpha  occ. eigenvalues --   -0.33412  -0.32965  -0.32894  -0.32446  -0.31746
 Alpha  occ. eigenvalues --   -0.31361  -0.30475  -0.29470  -0.29342  -0.29057
 Alpha  occ. eigenvalues --   -0.27571  -0.26201  -0.25872  -0.25382  -0.24489
 Alpha  occ. eigenvalues --   -0.24022  -0.23813  -0.22771  -0.22529  -0.18666
 Alpha virt. eigenvalues --   -0.12685  -0.07663  -0.03927  -0.02175  -0.01390
 Alpha virt. eigenvalues --    0.00546   0.01018   0.01398   0.02256   0.02649
 Alpha virt. eigenvalues --    0.03501   0.03699   0.04058   0.04201   0.04624

 Mulliken charges:
               1
     1  O   -0.241234
     2  O   -0.234980
     3  O   -0.219445
     4  O   -0.083823
     5  O   -0.283302
     6  O   -0.257087
     7  N    0.040212
     8  N   -0.175711
     9  N   -0.198168
    10  N   -0.310768
    11  C    0.015767
    12  C    0.071220
    13  C   -0.013270
    14  C   -0.108409
    15  C   -0.099317
    16  C   -0.075262
    17  C   -0.173497
    18  C    0.063476
    19  C   -0.089656
    20  C   -0.118667
    21  C    0.190270
    22  C    0.084801
    23  C   -0.080857
    24  C    0.161977
    25  C    0.024985
    26  C   -0.155138
    27  C   -0.005273
    28  C    0.183167
    29  C    0.117537
    30  C   -0.040953
    31  C   -0.149596
    32  C    0.032987
    33  C   -0.145633
    34  C    0.174835
    35  C    0.073872
    36  C   -0.054964
    37  C    0.143274
    38  C    0.049107
    39  C   -0.131820
    40  C    0.167297
    41  C    0.056097
    42  C    0.039618
    43  C   -0.039431
    44  H    0.076636
    45  H   -0.023568
    46  H    0.003929
    47  H    0.066405
    48  H    0.165845
    49  H    0.037737
    50  H    0.016749
    51  H    0.000319
    52  H    0.008976
    53  H   -0.026035
    54  H   -0.022426
    55  H    0.043524
    56  H    0.057589
    57  H    0.054244
    58  H    0.039906
    59  H    0.015589
    60  H    0.304634
    61  H    0.072534
    62  H    0.032122
    63  H    0.056915
    64  H    0.077161
    65  H    0.043094
    66  H    0.037885
    67  H    0.029415
    68  H    0.064706
    69  H    0.034415
    70  H    0.025380
    71  H    0.041938
    72  H    0.193095
    73  H   -0.092638
    74  H    0.032867
    75  H    0.039572
    76  H    0.024946
    77  H    0.209216
    78  H    0.054714
    79  H   -0.001628
 Sum of Mulliken charges =  -0.00000

 Dipole moment (field-independent basis, Debye):
    X=              3.8315    Y=              3.4526    Z=             -0.3423  Tot=              5.1689
 Quadrupole moment (field-independent basis, Debye-Ang):
   XX=           -233.8187   YY=           -237.9987   ZZ=           -266.6244
   XY=              2.1547   XZ=            -19.0024   YZ=            -14.4014

 Normal termination of Gaussian 16 at Wed Jul 24 19:20:27 2019.
