 Gaussian 16, Revision A.03,
 Gaussian 16:  ES64L-G16RevA.03 25-Dec-2016

 --------------------------
 # td=(NStates=1) B3LYP/SVP
 --------------------------

 --
 TD
 --
 Symbolic Z-matrix:
 Charge =  0 Multiplicity = 1

                         Standard orientation:
 ---------------------------------------------------------------------
 Center     Atomic      Atomic             Coordinates (Angstroms)
 Number     Number       Type             X           Y           Z
 ---------------------------------------------------------------------
      1          8           0        5.210906   -0.298688   -3.327242
      2          8           0       -2.932301   -3.182693    3.211044
      3          8           0       -3.344118   -0.958291    2.973693
      4          8           0       -1.849306    7.158610    1.473422
      5          8           0       -0.149264    6.973324   -0.104546
      6          8           0       -1.678223   -3.826958   -0.124062
      7          7           0        2.381405    0.911574    0.643758
      8          7           0        4.357266   -0.776689   -1.219738
      9          7           0       -1.878417    0.649554   -0.337665
     10          7           0       -2.624174   -1.781765   -0.612138
     11          6           0        4.828901   -1.297665    0.050159
     12          6           0        4.464065   -0.453103    1.195992
     13          6           0        2.973955   -0.109135    1.339412
     14          6           0        1.965458   -0.679279    2.122236
     15          6           0        0.670722   -0.110451    1.793311
     16          6           0        1.071397    0.922004    0.789556
     17          6           0        6.364488   -1.457789   -0.228950
     18          6           0       -0.668505   -0.341518    2.447922
     19          6           0        6.666106   -0.854675   -1.434003
     20          6           0        0.242940    1.819943    0.121786
     21          6           0       -1.163444    1.795495   -0.208388
     22          6           0        5.350261   -0.579209   -2.211538
     23          6           0       -1.756037    2.955703   -0.896284
     24          6           0        2.148156   -1.792305    3.129673
     25          6           0        7.093941   -2.049389    0.948376
     26          6           0       -3.054815    2.459258   -1.221295
     27          6           0       -1.147422   -1.812933    2.467113
     28          6           0       -3.062742    1.025722   -0.936391
     29          6           0       -1.415991    4.341903   -0.921772
     30          6           0        7.973530   -0.597631   -2.045634
     31          6           0       -1.826146    5.151905    0.419881
     32          6           0       -4.278476    3.160780   -1.864970
     33          6           0       -4.054841    0.085821   -1.281228
     34          6           0       -2.577556   -1.923344    2.969604
     35          6           0       -3.812789   -1.359190   -1.154427
     36          6           0        9.151318   -0.426201   -1.448969
     37          6           0       -1.136753    6.475014    0.473371
     38          6           0       -4.663614   -2.472670   -1.460981
     39          6           0       -3.980780   -3.670667   -1.126303
     40          6           0       -2.685362   -3.205315   -0.553253
     41          6           0       -5.970534   -2.247890   -2.085864
     42          6           0       -4.297379   -4.971767   -1.300575
     43          6           0       -6.890452   -3.273888   -2.343812
     44          1           0        4.481900   -2.330682    0.194103
     45          1           0        5.024835    0.682975    0.923067
     46          1           0        4.802821   -0.727342    2.361830
     47          1           0        3.071327    1.451380    0.027162
     48          1           0        3.294183   -0.756190   -1.314619
     49          1           0       -0.506634    0.038854    3.401570
     50          1           0       -1.312640    0.457470    1.958904
     51          1           0        0.788170    2.835344   -0.201816
     52          1           0        3.158947   -2.197250    3.347994
     53          1           0        1.658914   -1.643426    4.067344
     54          1           0        1.736752   -2.718617    2.744430
     55          1           0        6.538454   -3.053021    1.286086
     56          1           0        6.843246   -1.259689    1.842750
     57          1           0        8.266343   -1.990396    0.713356
     58          1           0       -1.241141   -2.296601    1.455671
     59          1           0       -0.567202   -2.262371    3.268269
     60          1           0       -1.739196   -0.289399   -0.386354
     61          1           0       -1.995307    4.810185   -1.935217
     62          1           0       -0.316094    4.461866   -1.206384
     63          1           0        7.829371   -0.331646   -2.906880
     64          1           0       -1.531265    4.634525    1.338394
     65          1           0       -2.962136    5.301127    0.392307
     66          1           0       -4.085798    4.173945   -2.057955
     67          1           0       -5.082329    3.220151   -1.145514
     68          1           0       -4.286138    2.674014   -2.749729
     69          1           0       -4.914586    0.445036   -1.639147
     70          1           0        9.305783   -0.354791   -0.278781
     71          1           0        9.981647   -0.161015   -2.052173
     72          1           0       -3.887377   -3.133302    3.207612
     73          1           0       -6.078551   -1.224424   -2.302581
     74          1           0       -5.367991   -5.177315   -1.098907
     75          1           0       -4.213926   -5.192818   -2.471150
     76          1           0       -3.556547   -5.718035   -0.812775
     77          1           0       -1.336769    8.127422    1.484024
     78          1           0       -8.000818   -3.178926   -2.798856
     79          1           0       -6.643937   -4.303406   -2.056557
 ---------------------------------------------------------------------

 SCF Done:  E(RB3LYP) =  -1947.81884157     A.U. after   20 cycles

 Excitation energies and oscillator strengths:

 Excited State   1:      Singlet-A      1.8247 eV  679.48 nm  f=0.3586  <S**2>=0.000
     154 ->156         0.26348
     155 ->156         0.65850
     155 <-156        -0.13385
 This state for optimization and/or second-order correction.
 Total Energy, E(TD-HF/TD-DFT) =  -1947.75178575
 Copying the excited state density for this state as the 1-particle RhoCI density.

 The electronic state is 1-A.
 Alpha  occ. eigenvalues --  -19.19139 -19.17557 -19.14751 -19.11715 -19.10561
 Alpha  occ. eigenvalues --  -19.09831 -14.39638 -14.35514 -14.35490 -14.27818
 Alpha  occ. eigenvalues --  -10.33646 -10.30128 -10.29740 -10.25947 -10.25198
 Alpha  occ. eigenvalues --  -10.24745 -10.24705 -10.23786 -10.23701 -10.23694
 Alpha  occ. eigenvalues --  -10.23667 -10.23250 -10.23048 -10.22751 -10.22596
 Alpha  occ. eigenvalues --  -10.22523 -10.21268 -10.20948 -10.20900 -10.20806
 Alpha  occ. eigenvalues --  -10.20607 -10.20492 -10.20242 -10.19820 -10.19735
 Alpha  occ. eigenvalues --  -10.19535 -10.19440 -10.19224 -10.19073 -10.18789
 Alpha  occ. eigenvalues --  -10.18720 -10.18588 -10.18579  -1.09184  -1.07471
 Alpha  occ. eigenvalues --   -1.06259  -1.00364  -0.99325  -0.98980  -0.98476
 Alpha  occ. eigenvalues --   -0.98358  -0.93846  -0.90053  -0.83030  -0.81682
 Alpha  occ. eigenvalues --   -0.81271  -0.80955  -0.80361  -0.79174  -0.77960
 Alpha  occ. eigenvalues --   -0.77213  -0.76432  -0.75907  -0.74697  -0.72877
 Alpha  occ. eigenvalues --   -0.71269  -0.70617  -0.69657  -0.69171  -0.68562
 Alpha  occ. eigenvalues --   -0.67784  -0.65173  -0.63065  -0.61906  -0.60257
 Alpha  occ. eigenvalues --   -0.59454  -0.58716  -0.58139  -0.57591  -0.56404
 Alpha  occ. eigenvalues --   -0.56168  -0.55762  -0.55596  -0.54128  -0.52925
 Alpha  occ. eigenvalues --   -0.52167  -0.51075  -0.50768  -0.49962  -0.49356
 Alpha  occ. eigenvalues --   -0.48736  -0.48593  -0.48529  -0.48149  -0.47434
 Alpha  occ. eigenvalues --   -0.46930  -0.46902  -0.46647  -0.46207  -0.45835
 Alpha  occ. eigenvalues --   -0.45334  -0.44702  -0.44260  -0.44115  -0.43857
 Alpha  occ. eigenvalues --   -0.43661  -0.43318  -0.43005  -0.42833  -0.42496
 Alpha  occ. eigenvalues --   -0.42321  -0.41886  -0.41794  -0.41455  -0.41071
 Alpha  occ. eigenvalues --   -0.40917  -0.40801  -0.40529  -0.40187  -0.40034
 Alpha  occ. eigenvalues --   -0.39671  -0.39446  -0.38975  -0.38537  -0.38359
 Alpha  occ. eigenvalues --   -0.38131  -0.37900  -0.37647  -0.37283  -0.36820
 Alpha  occ. eigenvalues --   -0.36525  -0.36457  -0.35398  -0.34180  -0.34103
 Alpha  occ. eigenvalues --   -0.33578  -0.33347  -0.32759  -0.32318  -0.32230
 Alpha  occ. eigenvalues --   -0.30748  -0.30330  -0.29654  -0.27820  -0.27298
 Alpha  occ. eigenvalues --   -0.26971  -0.26535  -0.25815  -0.25609  -0.24822
 Alpha  occ. eigenvalues --   -0.24008  -0.23681  -0.23629  -0.20815  -0.17975
 Alpha virt. eigenvalues --   -0.10966  -0.07072  -0.06002  -0.02348  -0.00912
 Alpha virt. eigenvalues --    0.00368   0.01100   0.01553   0.02079   0.02271
 Alpha virt. eigenvalues --    0.02697   0.02792   0.04148   0.04794   0.05344

 Mulliken charges:
               1
     1  O   -0.137912
     2  O   -0.147054
     3  O   -0.260408
     4  O   -0.281999
     5  O   -0.244953
     6  O   -0.247946
     7  N   -0.023348
     8  N   -0.279980
     9  N    0.036471
    10  N   -0.337594
    11  C    0.130595
    12  C    0.037704
    13  C   -0.104863
    14  C   -0.120753
    15  C   -0.113605
    16  C    0.057727
    17  C   -0.151804
    18  C    0.129335
    19  C   -0.134115
    20  C   -0.123566
    21  C    0.065898
    22  C    0.188183
    23  C   -0.062200
    24  C    0.096401
    25  C   -0.011063
    26  C   -0.194472
    27  C    0.034725
    28  C    0.050952
    29  C   -0.019823
    30  C    0.145956
    31  C    0.020293
    32  C    0.212396
    33  C   -0.032754
    34  C    0.098760
    35  C    0.099457
    36  C   -0.033377
    37  C    0.180549
    38  C    0.020324
    39  C   -0.145123
    40  C    0.171373
    41  C    0.034528
    42  C    0.002405
    43  C   -0.067734
    44  H    0.014211
    45  H    0.014460
    46  H    0.065194
    47  H    0.145645
    48  H    0.149612
    49  H   -0.013391
    50  H    0.019913
    51  H    0.014572
    52  H   -0.012754
    53  H    0.012546
    54  H    0.028146
    55  H    0.058698
    56  H    0.055307
    57  H    0.061255
    58  H    0.105138
    59  H    0.009963
    60  H    0.082636
    61  H    0.047131
    62  H    0.040462
    63  H   -0.110792
    64  H    0.062787
    65  H    0.066112
    66  H   -0.029486
    67  H    0.033129
    68  H    0.014454
    69  H   -0.091444
    70  H    0.042469
    71  H    0.020617
    72  H    0.166109
    73  H   -0.035747
    74  H    0.038720
    75  H    0.047010
    76  H    0.048900
    77  H    0.225119
    78  H    0.053388
    79  H    0.012328
 Sum of Mulliken charges =  -0.00000

 Dipole moment (field-independent basis, Debye):
    X=              0.8399    Y=              2.7115    Z=              2.7638  Tot=              3.9619
 Quadrupole moment (field-independent basis, Debye-Ang):
   XX=           -222.6446   YY=           -243.7983   ZZ=           -262.2637
   XY=             -7.0187   XZ=             30.1122   YZ=             -1.6839

 Normal termination of Gaussian 16 at Tue Oct  8 21:07:53 2019.
