 Gaussian 16, Revision A.03,
 Gaussian 16:  ES64L-G16RevA.03 25-Dec-2016

 --------------------------
 # td=(NStates=1) B3LYP/SVP
 --------------------------

 --
 TD
 --
 Symbolic Z-matrix:
 Charge =  0 Multiplicity = 1

                         Standard orientation:
 ---------------------------------------------------------------------
 Center     Atomic      Atomic             Coordinates (Angstroms)
 Number     Number       Type             X           Y           Z
 ---------------------------------------------------------------------
      1          8           0       -3.339786   -0.818363   -2.858880
      2          8           0        3.166722    2.872911    3.357594
      3          8           0        3.802757    1.027918    4.429050
      4          8           0        7.690303   -1.531042   -0.830050
      5          8           0        6.659048   -2.645679   -2.480205
      6          8           0       -2.706245    1.433624    1.620821
      7          7           0       -0.207080   -2.501596    0.696317
      8          7           0       -2.620457   -1.021177   -0.623906
      9          7           0        1.155476    0.151596   -0.668760
     10          7           0       -1.079030    1.441229   -0.039458
     11          6           0       -3.333612   -1.453841    0.584894
     12          6           0       -2.546655   -2.548279    1.431972
     13          6           0       -1.102281   -2.280666    1.597349
     14          6           0       -0.426658   -1.598461    2.789972
     15          6           0        0.815097   -1.369019    2.385317
     16          6           0        1.029617   -2.003816    1.086887
     17          6           0       -4.690792   -1.916408    0.165862
     18          6           0        1.910381   -0.706486    3.203142
     19          6           0       -4.725727   -1.844600   -1.191357
     20          6           0        2.009784   -1.840483    0.173096
     21          6           0        2.114855   -0.800889   -0.801068
     22          6           0       -3.509825   -1.207556   -1.709887
     23          6           0        2.980458   -0.451877   -1.805474
     24          6           0       -1.177456   -0.880662    3.967388
     25          6           0       -5.637667   -2.507564    1.080645
     26          6           0        2.376711    0.650684   -2.576824
     27          6           0        2.082123    0.824065    2.880237
     28          6           0        1.315726    1.137253   -1.765245
     29          6           0        4.180955   -1.233052   -2.272831
     30          6           0       -5.717710   -2.289203   -2.178082
     31          6           0        5.363100   -0.918434   -1.283543
     32          6           0        2.943540    1.357301   -3.795920
     33          6           0        0.312754    2.189209   -1.874102
     34          6           0        3.091895    1.597849    3.555041
     35          6           0       -0.655129    2.364421   -0.963923
     36          6           0       -6.717652   -3.196987   -2.087611
     37          6           0        6.687706   -1.750497   -1.591447
     38          6           0       -1.553966    3.572572   -0.898152
     39          6           0       -2.522664    3.285289    0.143540
     40          6           0       -2.138438    1.941091    0.676688
     41          6           0       -1.258814    4.812993   -1.752987
     42          6           0       -3.639917    4.186008    0.600580
     43          6           0       -1.878712    5.972369   -1.655298
     44          1           0       -3.199825   -0.451195    0.985630
     45          1           0       -2.662960   -3.496068    0.727769
     46          1           0       -3.271626   -2.705223    2.352113
     47          1           0       -0.347596   -2.876680   -0.260377
     48          1           0       -2.225854   -0.085109   -0.350484
     49          1           0        1.661353   -0.842845    4.342696
     50          1           0        2.912665   -1.056158    2.855022
     51          1           0        2.849514   -2.519321    0.135637
     52          1           0       -2.133998   -1.590890    4.187697
     53          1           0       -0.527466   -0.832933    4.903197
     54          1           0       -1.603991    0.131652    3.461606
     55          1           0       -5.638818   -1.912586    2.122094
     56          1           0       -5.549574   -3.484443    1.184943
     57          1           0       -6.696225   -2.510705    0.781617
     58          1           0        2.255141    0.821284    1.748195
     59          1           0        1.027364    1.326437    3.207700
     60          1           0        0.257793    0.311922   -0.161398
     61          1           0        4.392399   -1.033814   -3.289345
     62          1           0        4.093687   -2.387231   -2.121479
     63          1           0       -5.498537   -1.808514   -3.264648
     64          1           0        4.780690   -0.987375   -0.236649
     65          1           0        5.437539    0.163662   -1.336860
     66          1           0        3.637937    0.839624   -4.049249
     67          1           0        3.397632    2.270961   -3.561037
     68          1           0        2.196197    1.417453   -4.546422
     69          1           0        0.657909    2.822268   -2.613911
     70          1           0       -6.816207   -3.754153   -1.197971
     71          1           0       -7.436701   -3.429928   -2.756126
     72          1           0        4.049812    3.160478    3.758972
     73          1           0       -0.620668    4.831888   -2.498701
     74          1           0       -4.359149    3.825999   -0.334851
     75          1           0       -4.252165    3.716700    1.450697
     76          1           0       -3.419097    5.380245    0.608573
     77          1           0        8.367642   -2.013367   -1.036071
     78          1           0       -1.747643    6.853386   -2.176664
     79          1           0       -2.778084    6.145323   -1.191068
 ---------------------------------------------------------------------

 SCF Done:  E(RB3LYP) =  -1947.73215517     A.U. after   18 cycles

 Excitation energies and oscillator strengths:

 Excited State   1:      Singlet-A      0.5681 eV 2182.56 nm  f=0.0077  <S**2>=0.000
     155 ->156         0.70638
 This state for optimization and/or second-order correction.
 Total Energy, E(TD-HF/TD-DFT) =  -1947.71127904
 Copying the excited state density for this state as the 1-particle RhoCI density.

 The electronic state is 1-A.
 Alpha  occ. eigenvalues --  -19.21281 -19.19378 -19.13653 -19.11710 -19.10466
 Alpha  occ. eigenvalues --  -19.08162 -14.38979 -14.35903 -14.31599 -14.30177
 Alpha  occ. eigenvalues --  -10.34911 -10.31073 -10.27901 -10.26392 -10.26216
 Alpha  occ. eigenvalues --  -10.25210 -10.24478 -10.23483 -10.23449 -10.23360
 Alpha  occ. eigenvalues --  -10.22995 -10.22253 -10.22000 -10.21917 -10.21627
 Alpha  occ. eigenvalues --  -10.21597 -10.21460 -10.20858 -10.20850 -10.20434
 Alpha  occ. eigenvalues --  -10.20411 -10.20344 -10.20271 -10.20105 -10.20094
 Alpha  occ. eigenvalues --  -10.19533 -10.19250 -10.19173 -10.18534 -10.18149
 Alpha  occ. eigenvalues --  -10.18081 -10.17658 -10.17329  -1.15989  -1.10922
 Alpha  occ. eigenvalues --   -1.03484  -1.00722  -0.99924  -0.99468  -0.97638
 Alpha  occ. eigenvalues --   -0.97428  -0.92571  -0.91567  -0.83385  -0.82717
 Alpha  occ. eigenvalues --   -0.80873  -0.80706  -0.80065  -0.78980  -0.78637
 Alpha  occ. eigenvalues --   -0.76361  -0.76152  -0.75837  -0.75160  -0.74024
 Alpha  occ. eigenvalues --   -0.71801  -0.71220  -0.70549  -0.68854  -0.67892
 Alpha  occ. eigenvalues --   -0.66915  -0.66108  -0.64078  -0.63214  -0.61299
 Alpha  occ. eigenvalues --   -0.60693  -0.60123  -0.59643  -0.57811  -0.57049
 Alpha  occ. eigenvalues --   -0.56099  -0.55413  -0.54975  -0.53812  -0.52635
 Alpha  occ. eigenvalues --   -0.52577  -0.52327  -0.51297  -0.50405  -0.50208
 Alpha  occ. eigenvalues --   -0.49493  -0.49266  -0.48784  -0.48534  -0.48453
 Alpha  occ. eigenvalues --   -0.47660  -0.47257  -0.46618  -0.46327  -0.46003
 Alpha  occ. eigenvalues --   -0.45691  -0.45073  -0.44896  -0.44661  -0.44605
 Alpha  occ. eigenvalues --   -0.44417  -0.43414  -0.43105  -0.42558  -0.42433
 Alpha  occ. eigenvalues --   -0.42219  -0.41932  -0.41355  -0.41214  -0.40959
 Alpha  occ. eigenvalues --   -0.40645  -0.40445  -0.39781  -0.39543  -0.39228
 Alpha  occ. eigenvalues --   -0.38690  -0.38499  -0.38271  -0.38182  -0.38061
 Alpha  occ. eigenvalues --   -0.37589  -0.36970  -0.36654  -0.36358  -0.35908
 Alpha  occ. eigenvalues --   -0.35874  -0.35475  -0.35367  -0.34735  -0.34446
 Alpha  occ. eigenvalues --   -0.33784  -0.33508  -0.32983  -0.31725  -0.30809
 Alpha  occ. eigenvalues --   -0.30594  -0.29868  -0.29300  -0.28775  -0.28614
 Alpha  occ. eigenvalues --   -0.26224  -0.25887  -0.25656  -0.24844  -0.24166
 Alpha  occ. eigenvalues --   -0.23433  -0.22699  -0.22353  -0.22092  -0.18466
 Alpha virt. eigenvalues --   -0.13693  -0.07950  -0.04371  -0.02572  -0.01349
 Alpha virt. eigenvalues --    0.00008   0.00855   0.02049   0.02261   0.03226
 Alpha virt. eigenvalues --    0.03477   0.04425   0.05167   0.05297   0.05396

 Mulliken charges:
               1
     1  O   -0.236305
     2  O   -0.141752
     3  O   -0.299573
     4  O   -0.012720
     5  O   -0.277157
     6  O   -0.213555
     7  N    0.029974
     8  N   -0.255524
     9  N   -0.161821
    10  N   -0.352945
    11  C    0.024929
    12  C    0.105381
    13  C   -0.087689
    14  C   -0.153704
    15  C   -0.042843
    16  C    0.029828
    17  C   -0.130299
    18  C    0.108662
    19  C   -0.057130
    20  C   -0.090157
    21  C    0.113006
    22  C    0.150360
    23  C   -0.112398
    24  C   -0.013780
    25  C    0.114329
    26  C   -0.195156
    27  C   -0.078493
    28  C    0.053788
    29  C    0.094434
    30  C   -0.044968
    31  C   -0.089212
    32  C    0.329155
    33  C   -0.027515
    34  C    0.122702
    35  C    0.182432
    36  C    0.014821
    37  C    0.169357
    38  C    0.040907
    39  C   -0.182754
    40  C    0.166894
    41  C    0.074570
    42  C   -0.011541
    43  C    0.007150
    44  H    0.027254
    45  H   -0.008643
    46  H    0.033592
    47  H    0.133462
    48  H    0.170272
    49  H    0.035614
    50  H   -0.003520
    51  H   -0.010180
    52  H    0.022199
    53  H    0.033732
    54  H    0.094260
    55  H    0.043236
    56  H   -0.005055
    57  H    0.013138
    58  H    0.051330
    59  H    0.069698
    60  H    0.180240
    61  H    0.013161
    62  H    0.047229
    63  H    0.042475
    64  H    0.060821
    65  H    0.020461
    66  H   -0.122776
    67  H    0.014857
    68  H    0.030660
    69  H   -0.049264
    70  H   -0.016352
    71  H   -0.007487
    72  H    0.206418
    73  H   -0.068801
    74  H    0.063284
    75  H    0.044292
    76  H    0.084666
    77  H    0.122962
    78  H   -0.008118
    79  H   -0.022806
 Sum of Mulliken charges =  -0.00000

 Dipole moment (field-independent basis, Debye):
    X=              4.0240    Y=              2.3774    Z=             -1.2949  Tot=              4.8498
 Quadrupole moment (field-independent basis, Debye-Ang):
   XX=           -222.9239   YY=           -232.6693   ZZ=           -274.9673
   XY=             12.0233   XZ=            -21.9453   YZ=            -11.7969

 Normal termination of Gaussian 16 at Sun Jul 28 08:43:32 2019.
