 Gaussian 16, Revision A.03,
 Gaussian 16:  ES64L-G16RevA.03 25-Dec-2016

 --------------------------
 # td=(NStates=1) B3LYP/SVP
 --------------------------

 --
 TD
 --
 Symbolic Z-matrix:
 Charge =  0 Multiplicity = 1

                         Standard orientation:
 ---------------------------------------------------------------------
 Center     Atomic      Atomic             Coordinates (Angstroms)
 Number     Number       Type             X           Y           Z
 ---------------------------------------------------------------------
      1          8           0       -3.283120   -0.912423   -3.011299
      2          8           0        2.814081    2.731317    3.638299
      3          8           0        3.916731    0.738402    4.372911
      4          8           0        7.771989   -1.258536   -1.085718
      5          8           0        6.599059   -2.971442   -2.147606
      6          8           0       -2.686211    1.512755    1.551023
      7          7           0       -0.469258   -2.430406    0.581467
      8          7           0       -2.739062   -1.055397   -0.788494
      9          7           0        1.179872    0.131921   -0.705988
     10          7           0       -1.036537    1.384251   -0.148561
     11          6           0       -3.464439   -1.335992    0.415838
     12          6           0       -2.826937   -2.522910    1.361082
     13          6           0       -1.356035   -2.174542    1.527778
     14          6           0       -0.556272   -1.708854    2.689178
     15          6           0        0.830356   -1.488045    2.248569
     16          6           0        0.845165   -2.055198    0.899129
     17          6           0       -4.849687   -1.847966    0.020929
     18          6           0        1.959487   -0.828394    2.998097
     19          6           0       -4.922947   -1.767470   -1.339422
     20          6           0        1.941218   -2.040822   -0.054536
     21          6           0        2.126377   -0.914843   -0.855045
     22          6           0       -3.592515   -1.200909   -1.854905
     23          6           0        3.065847   -0.505333   -1.776107
     24          6           0       -1.354378   -1.068188    3.834114
     25          6           0       -5.807526   -2.230348    1.072262
     26          6           0        2.629657    0.788922   -2.230643
     27          6           0        1.944610    0.600204    2.829168
     28          6           0        1.465586    1.153027   -1.589223
     29          6           0        4.195309   -1.267385   -2.212595
     30          6           0       -5.957404   -2.121715   -2.312075
     31          6           0        5.555862   -0.957832   -1.340298
     32          6           0        3.391744    1.610832   -3.198398
     33          6           0        0.637458    2.238392   -1.774013
     34          6           0        3.023621    1.274962    3.727555
     35          6           0       -0.546094    2.437112   -0.971562
     36          6           0       -7.050513   -2.862807   -2.087228
     37          6           0        6.657105   -1.908505   -1.545325
     38          6           0       -1.320293    3.701312   -0.697083
     39          6           0       -2.259671    3.382902    0.215079
     40          6           0       -2.005844    1.982134    0.687968
     41          6           0       -1.157944    4.753892   -1.722671
     42          6           0       -3.409239    4.330123    0.618456
     43          6           0       -1.677022    6.052265   -1.610280
     44          1           0       -3.356358   -0.413462    1.152299
     45          1           0       -3.129276   -3.429136    0.878721
     46          1           0       -3.200617   -2.571872    2.426837
     47          1           0       -0.505639   -2.682397   -0.337785
     48          1           0       -1.804395   -0.316047   -0.641578
     49          1           0        1.779216   -0.922442    4.104828
     50          1           0        2.907911   -1.337626    2.979102
     51          1           0        2.521181   -3.001780    0.009339
     52          1           0       -2.095460   -1.844373    4.205108
     53          1           0       -0.555756   -1.008045    4.815955
     54          1           0       -1.784218   -0.073395    3.455172
     55          1           0       -5.477460   -1.762051    2.058350
     56          1           0       -5.806503   -3.386470    1.587544
     57          1           0       -6.767699   -2.283777    0.826323
     58          1           0        2.359695    0.767565    1.906214
     59          1           0        0.915417    1.207293    3.122135
     60          1           0        0.224783    0.249683   -0.225261
     61          1           0        4.448470   -1.238117   -3.324211
     62          1           0        4.050603   -2.336595   -1.827366
     63          1           0       -5.883102   -1.620297   -3.194056
     64          1           0        5.214771   -0.839978   -0.229377
     65          1           0        6.016416    0.079611   -1.606581
     66          1           0        3.726851    0.805388   -4.174525
     67          1           0        4.220505    2.353043   -2.908479
     68          1           0        2.654402    2.345781   -4.013370
     69          1           0        0.974408    3.023291   -2.287704
     70          1           0       -7.056931   -3.406654   -0.958546
     71          1           0       -7.879639   -2.890934   -2.690272
     72          1           0        3.625105    2.763231    4.233885
     73          1           0       -0.568366    4.737983   -2.704696
     74          1           0       -3.924280    4.717824   -0.162572
     75          1           0       -4.097727    3.825378    1.343704
     76          1           0       -3.112989    5.113995    1.343918
     77          1           0        8.568049   -1.794200   -1.149458
     78          1           0       -1.375195    6.911798   -2.306855
     79          1           0       -2.359367    6.336488   -0.659344
 ---------------------------------------------------------------------

 SCF Done:  E(RB3LYP) =  -1947.76553726     A.U. after   22 cycles

 Excitation energies and oscillator strengths:

 Excited State   1:      Singlet-A      0.6966 eV 1779.81 nm  f=0.0010  <S**2>=0.000
     155 ->156         0.70273
 This state for optimization and/or second-order correction.
 Total Energy, E(TD-HF/TD-DFT) =  -1947.73993712
 Copying the excited state density for this state as the 1-particle RhoCI density.

 The electronic state is 1-A.
 Alpha  occ. eigenvalues --  -19.19749 -19.17910 -19.15579 -19.14814 -19.13048
 Alpha  occ. eigenvalues --  -19.07075 -14.37040 -14.36631 -14.32855 -14.32524
 Alpha  occ. eigenvalues --  -10.34026 -10.33174 -10.29091 -10.26696 -10.26212
 Alpha  occ. eigenvalues --  -10.26039 -10.25866 -10.25129 -10.24223 -10.23681
 Alpha  occ. eigenvalues --  -10.23183 -10.23134 -10.22954 -10.22739 -10.22474
 Alpha  occ. eigenvalues --  -10.22263 -10.22030 -10.21572 -10.21145 -10.21112
 Alpha  occ. eigenvalues --  -10.20825 -10.20654 -10.20371 -10.20031 -10.19772
 Alpha  occ. eigenvalues --  -10.19753 -10.19564 -10.19023 -10.19009 -10.18695
 Alpha  occ. eigenvalues --  -10.18633 -10.17954 -10.17839  -1.10270  -1.07926
 Alpha  occ. eigenvalues --   -1.05215  -1.02331  -1.00111  -0.99547  -0.98987
 Alpha  occ. eigenvalues --   -0.97432  -0.92779  -0.90576  -0.84414  -0.83064
 Alpha  occ. eigenvalues --   -0.81670  -0.81136  -0.79875  -0.78633  -0.78321
 Alpha  occ. eigenvalues --   -0.76612  -0.75773  -0.75486  -0.74357  -0.73020
 Alpha  occ. eigenvalues --   -0.71031  -0.69757  -0.69424  -0.68910  -0.67615
 Alpha  occ. eigenvalues --   -0.66371  -0.65403  -0.63074  -0.61825  -0.60928
 Alpha  occ. eigenvalues --   -0.59483  -0.58822  -0.57385  -0.56686  -0.55719
 Alpha  occ. eigenvalues --   -0.55347  -0.54383  -0.54323  -0.53419  -0.53212
 Alpha  occ. eigenvalues --   -0.52176  -0.51784  -0.51180  -0.50208  -0.49955
 Alpha  occ. eigenvalues --   -0.49428  -0.49318  -0.48952  -0.48359  -0.47964
 Alpha  occ. eigenvalues --   -0.47626  -0.47207  -0.46728  -0.46430  -0.45985
 Alpha  occ. eigenvalues --   -0.45515  -0.45279  -0.45136  -0.44256  -0.44023
 Alpha  occ. eigenvalues --   -0.43694  -0.43518  -0.43135  -0.42851  -0.42208
 Alpha  occ. eigenvalues --   -0.41992  -0.41888  -0.41638  -0.41355  -0.40794
 Alpha  occ. eigenvalues --   -0.40519  -0.40435  -0.40092  -0.40038  -0.39607
 Alpha  occ. eigenvalues --   -0.38886  -0.38600  -0.38465  -0.38079  -0.37734
 Alpha  occ. eigenvalues --   -0.37342  -0.37190  -0.36731  -0.36330  -0.36187
 Alpha  occ. eigenvalues --   -0.35838  -0.35470  -0.35148  -0.34489  -0.34278
 Alpha  occ. eigenvalues --   -0.33419  -0.33339  -0.33102  -0.32488  -0.32278
 Alpha  occ. eigenvalues --   -0.31713  -0.30749  -0.30065  -0.29592  -0.29541
 Alpha  occ. eigenvalues --   -0.29297  -0.26780  -0.26431  -0.24300  -0.23466
 Alpha  occ. eigenvalues --   -0.23250  -0.22799  -0.22379  -0.22059  -0.18849
 Alpha virt. eigenvalues --   -0.13605  -0.08702  -0.04192  -0.02920  -0.02580
 Alpha virt. eigenvalues --   -0.01654   0.01503   0.01824   0.02618   0.02938
 Alpha virt. eigenvalues --    0.03167   0.03419   0.03951   0.04618   0.04851

 Mulliken charges:
               1
     1  O   -0.253589
     2  O   -0.258856
     3  O   -0.228554
     4  O   -0.198002
     5  O   -0.218924
     6  O   -0.178035
     7  N    0.033465
     8  N   -0.263971
     9  N   -0.153030
    10  N   -0.412658
    11  C   -0.036156
    12  C    0.184243
    13  C   -0.102168
    14  C   -0.137557
    15  C   -0.067820
    16  C   -0.108841
    17  C   -0.085616
    18  C    0.105655
    19  C   -0.068140
    20  C   -0.137590
    21  C    0.195747
    22  C    0.145533
    23  C   -0.015606
    24  C   -0.022959
    25  C    0.085280
    26  C   -0.059692
    27  C    0.041954
    28  C    0.149636
    29  C    0.059025
    30  C    0.034459
    31  C   -0.103289
    32  C   -0.115710
    33  C   -0.003408
    34  C    0.151360
    35  C    0.082446
    36  C   -0.028858
    37  C    0.184226
    38  C    0.097758
    39  C   -0.183640
    40  C    0.210437
    41  C   -0.067235
    42  C    0.118015
    43  C   -0.102008
    44  H    0.078565
    45  H   -0.015513
    46  H   -0.000138
    47  H    0.080332
    48  H    0.222057
    49  H   -0.008845
    50  H    0.002770
    51  H    0.044799
    52  H    0.024730
    53  H    0.017098
    54  H    0.078951
    55  H    0.033234
    56  H    0.022193
    57  H   -0.014696
    58  H    0.004750
    59  H    0.092431
    60  H    0.204368
    61  H    0.047813
    62  H    0.033733
    63  H   -0.032830
    64  H    0.069368
    65  H    0.063599
    66  H    0.054688
    67  H    0.080054
    68  H    0.045553
    69  H   -0.080857
    70  H    0.028621
    71  H    0.001524
    72  H    0.166286
    73  H    0.039782
    74  H    0.021383
    75  H    0.014206
    76  H    0.029915
    77  H    0.180179
    78  H    0.051276
    79  H    0.051294
 Sum of Mulliken charges =  -0.00000

 Dipole moment (field-independent basis, Debye):
    X=              4.7943    Y=              3.2323    Z=             -0.1772  Tot=              5.7848
 Quadrupole moment (field-independent basis, Debye-Ang):
   XX=           -228.4125   YY=           -239.9053   ZZ=           -270.3795
   XY=              2.6762   XZ=            -22.5150   YZ=            -13.9312

 Normal termination of Gaussian 16 at Mon Jul 29 11:44:53 2019.
