 Gaussian 16, Revision A.03,
 Gaussian 16:  ES64L-G16RevA.03 25-Dec-2016

 --------------------------
 # td=(NStates=1) B3LYP/SVP
 --------------------------

 --
 TD
 --
 Symbolic Z-matrix:
 Charge =  0 Multiplicity = 1

                         Standard orientation:
 ---------------------------------------------------------------------
 Center     Atomic      Atomic             Coordinates (Angstroms)
 Number     Number       Type             X           Y           Z
 ---------------------------------------------------------------------
      1          8           0        5.132397   -0.149147   -3.279573
      2          8           0       -3.042363   -2.877348    3.078777
      3          8           0       -3.402516   -0.684466    2.639508
      4          8           0       -2.307730    7.247551    1.180026
      5          8           0       -0.950848    7.027543   -0.621070
      6          8           0       -1.472053   -4.172447    0.126878
      7          7           0        2.410485    1.239910    0.700735
      8          7           0        4.285073   -0.498812   -1.160801
      9          7           0       -1.771756    0.681606   -0.305660
     10          7           0       -2.392182   -2.064308   -0.354887
     11          6           0        4.787031   -0.993596    0.090241
     12          6           0        4.463377   -0.093275    1.385420
     13          6           0        2.992609    0.245713    1.438126
     14          6           0        1.936281   -0.431971    2.186593
     15          6           0        0.688852    0.156897    1.723603
     16          6           0        1.073438    1.193668    0.864810
     17          6           0        6.209268   -1.162440   -0.083723
     18          6           0       -0.619540   -0.097769    2.411801
     19          6           0        6.650313   -0.742554   -1.392486
     20          6           0        0.139907    2.076858    0.123121
     21          6           0       -1.191440    1.871969   -0.261453
     22          6           0        5.341523   -0.362162   -2.072163
     23          6           0       -2.049324    2.796998   -0.928047
     24          6           0        2.198267   -1.449448    3.261567
     25          6           0        7.206159   -1.626527    1.061536
     26          6           0       -3.150955    2.089145   -1.255592
     27          6           0       -1.087999   -1.555347    2.597865
     28          6           0       -2.925564    0.699955   -0.960145
     29          6           0       -1.837681    4.363661   -1.082409
     30          6           0        7.842745   -0.787977   -2.063293
     31          6           0       -2.090074    5.024027    0.221012
     32          6           0       -4.343016    2.736427   -1.955275
     33          6           0       -3.667907   -0.332121   -1.367581
     34          6           0       -2.670061   -1.518034    2.822368
     35          6           0       -3.450745   -1.697172   -0.962899
     36          6           0        9.109794   -0.711007   -1.576280
     37          6           0       -1.709734    6.579668    0.239705
     38          6           0       -4.311655   -2.831970   -1.449597
     39          6           0       -3.677721   -4.048633   -0.986305
     40          6           0       -2.354804   -3.528000   -0.464984
     41          6           0       -5.614294   -2.747459   -2.132375
     42          6           0       -3.908125   -5.509330   -0.917258
     43          6           0       -6.475199   -3.793102   -2.329219
     44          1           0        4.518971   -2.090729    0.181048
     45          1           0        5.020364    0.909686    1.372519
     46          1           0        4.696049   -0.669641    2.260106
     47          1           0        2.959822    1.463109   -0.155362
     48          1           0        3.377719   -0.478496   -1.552735
     49          1           0       -0.192725    0.157531    3.535577
     50          1           0       -1.389813    0.603654    2.090314
     51          1           0        0.557902    3.147304    0.014567
     52          1           0        3.256704   -1.655679    3.626008
     53          1           0        1.619614   -1.272970    4.390931
     54          1           0        1.902419   -2.427716    2.847254
     55          1           0        6.786724   -2.613220    1.520214
     56          1           0        7.283500   -0.814771    1.691281
     57          1           0        8.271164   -1.856272    0.820158
     58          1           0       -0.824690   -2.164589    1.665428
     59          1           0       -0.429214   -1.965596    3.375436
     60          1           0       -1.496584   -0.251650   -0.155056
     61          1           0       -2.324370    4.777626   -1.893008
     62          1           0       -0.733207    4.352945   -1.261025
     63          1           0        7.708054   -0.583791   -3.229084
     64          1           0       -1.612756    4.579546    1.217427
     65          1           0       -3.107299    4.809843    0.660327
     66          1           0       -3.835975    3.744216   -2.318464
     67          1           0       -5.337389    2.659600   -1.293463
     68          1           0       -4.722274    2.025026   -2.723069
     69          1           0       -4.591650   -0.095414   -1.889472
     70          1           0        9.543284   -0.556044   -0.616413
     71          1           0        9.860013   -0.677910   -2.397120
     72          1           0       -4.079522   -2.768364    3.183950
     73          1           0       -5.749554   -1.643152   -2.211743
     74          1           0       -4.759779   -5.831114   -0.399548
     75          1           0       -4.120417   -5.971548   -1.825103
     76          1           0       -2.967519   -6.035780   -0.660373
     77          1           0       -2.153498    8.098023    1.106886
     78          1           0       -7.377122   -3.618249   -3.124373
     79          1           0       -5.955714   -4.818241   -2.126203
 ---------------------------------------------------------------------

 SCF Done:  E(RB3LYP) =  -1947.83555146     A.U. after   17 cycles

 Excitation energies and oscillator strengths:

 Excited State   1:      Singlet-A      1.9167 eV  646.85 nm  f=0.3808  <S**2>=0.000
     155 ->156         0.69734
     155 <-156        -0.10444
 This state for optimization and/or second-order correction.
 Total Energy, E(TD-HF/TD-DFT) =  -1947.76511248
 Copying the excited state density for this state as the 1-particle RhoCI density.

 The electronic state is 1-A.
 Alpha  occ. eigenvalues --  -19.20047 -19.15498 -19.13831 -19.13018 -19.11126
 Alpha  occ. eigenvalues --  -19.09843 -14.38591 -14.35981 -14.35939 -14.29245
 Alpha  occ. eigenvalues --  -10.33343 -10.30932 -10.28701 -10.27129 -10.26072
 Alpha  occ. eigenvalues --  -10.23938 -10.23448 -10.23143 -10.23105 -10.23009
 Alpha  occ. eigenvalues --  -10.22998 -10.22860 -10.22168 -10.21934 -10.21889
 Alpha  occ. eigenvalues --  -10.21578 -10.21564 -10.21480 -10.21115 -10.21111
 Alpha  occ. eigenvalues --  -10.20986 -10.20980 -10.20741 -10.20590 -10.20421
 Alpha  occ. eigenvalues --  -10.19816 -10.19739 -10.19659 -10.19657 -10.19507
 Alpha  occ. eigenvalues --  -10.19171 -10.18395 -10.18331  -1.13972  -1.10553
 Alpha  occ. eigenvalues --   -1.01503  -1.01425  -1.01371  -1.00480  -0.99124
 Alpha  occ. eigenvalues --   -0.98716  -0.94163  -0.92342  -0.82954  -0.82295
 Alpha  occ. eigenvalues --   -0.81648  -0.80529  -0.80026  -0.79619  -0.77899
 Alpha  occ. eigenvalues --   -0.77120  -0.75855  -0.74991  -0.74220  -0.71783
 Alpha  occ. eigenvalues --   -0.71572  -0.70734  -0.70045  -0.69577  -0.68953
 Alpha  occ. eigenvalues --   -0.67077  -0.65095  -0.64489  -0.63286  -0.61996
 Alpha  occ. eigenvalues --   -0.60456  -0.58860  -0.57627  -0.57112  -0.56810
 Alpha  occ. eigenvalues --   -0.56394  -0.55189  -0.54235  -0.54001  -0.53244
 Alpha  occ. eigenvalues --   -0.52569  -0.51611  -0.51131  -0.50389  -0.49878
 Alpha  occ. eigenvalues --   -0.49489  -0.49256  -0.48360  -0.47980  -0.47809
 Alpha  occ. eigenvalues --   -0.47438  -0.47250  -0.46639  -0.46299  -0.45758
 Alpha  occ. eigenvalues --   -0.44965  -0.44922  -0.44339  -0.43923  -0.43591
 Alpha  occ. eigenvalues --   -0.43218  -0.42909  -0.42844  -0.42689  -0.42313
 Alpha  occ. eigenvalues --   -0.42074  -0.41851  -0.41727  -0.41511  -0.41115
 Alpha  occ. eigenvalues --   -0.40925  -0.40757  -0.40269  -0.39856  -0.39836
 Alpha  occ. eigenvalues --   -0.39455  -0.38963  -0.38620  -0.38412  -0.38354
 Alpha  occ. eigenvalues --   -0.38260  -0.37851  -0.37559  -0.37457  -0.36741
 Alpha  occ. eigenvalues --   -0.36075  -0.35277  -0.34668  -0.34264  -0.34102
 Alpha  occ. eigenvalues --   -0.33583  -0.33113  -0.33080  -0.32913  -0.32481
 Alpha  occ. eigenvalues --   -0.31108  -0.31017  -0.28893  -0.28489  -0.28432
 Alpha  occ. eigenvalues --   -0.27891  -0.26745  -0.26045  -0.25205  -0.24551
 Alpha  occ. eigenvalues --   -0.24082  -0.23690  -0.22924  -0.22015  -0.18379
 Alpha virt. eigenvalues --   -0.10787  -0.06913  -0.06407  -0.01044  -0.00298
 Alpha virt. eigenvalues --    0.00192   0.01308   0.02115   0.02792   0.03736
 Alpha virt. eigenvalues --    0.04055   0.04419   0.04982   0.05127   0.05447

 Mulliken charges:
               1
     1  O   -0.254233
     2  O   -0.281296
     3  O   -0.118607
     4  O   -0.050543
     5  O   -0.247126
     6  O   -0.214429
     7  N   -0.025971
     8  N   -0.194881
     9  N    0.051568
    10  N   -0.262704
    11  C    0.150625
    12  C    0.211549
    13  C   -0.162779
    14  C   -0.095576
    15  C   -0.079477
    16  C   -0.001697
    17  C   -0.227144
    18  C    0.005760
    19  C   -0.000431
    20  C   -0.087755
    21  C    0.055673
    22  C    0.132919
    23  C   -0.137248
    24  C   -0.015913
    25  C    0.079545
    26  C   -0.132019
    27  C   -0.037326
    28  C    0.090602
    29  C    0.218475
    30  C   -0.072524
    31  C   -0.082455
    32  C    0.057414
    33  C   -0.126725
    34  C    0.162889
    35  C    0.074244
    36  C   -0.038379
    37  C    0.128156
    38  C   -0.057097
    39  C   -0.185161
    40  C    0.161295
    41  C    0.019539
    42  C    0.161279
    43  C   -0.064367
    44  H    0.041374
    45  H    0.020036
    46  H   -0.009669
    47  H    0.132865
    48  H    0.127168
    49  H    0.027497
    50  H    0.027262
    51  H    0.017162
    52  H    0.016503
    53  H    0.044557
    54  H    0.046652
    55  H    0.039679
    56  H    0.023276
    57  H    0.031849
    58  H    0.086902
    59  H    0.020978
    60  H    0.109238
    61  H   -0.005610
    62  H    0.021088
    63  H    0.052098
    64  H    0.051388
    65  H    0.023393
    66  H    0.052674
    67  H    0.038053
    68  H    0.017720
    69  H   -0.040681
    70  H    0.014279
    71  H    0.028757
    72  H    0.187088
    73  H   -0.012533
    74  H    0.011894
    75  H   -0.002737
    76  H    0.029512
    77  H    0.123954
    78  H    0.063519
    79  H    0.035146
 Sum of Mulliken charges =  -0.00000

 Dipole moment (field-independent basis, Debye):
    X=              0.1293    Y=              2.4231    Z=              3.6659  Tot=              4.3962
 Quadrupole moment (field-independent basis, Debye-Ang):
   XX=           -217.0108   YY=           -244.0238   ZZ=           -263.5472
   XY=            -10.9213   XZ=             31.4675   YZ=              9.6469

 Normal termination of Gaussian 16 at Tue Oct  1 15:20:27 2019.
