 Gaussian 16, Revision A.03,
 Gaussian 16:  ES64L-G16RevA.03 25-Dec-2016

 --------------------------
 # td=(NStates=1) B3LYP/SVP
 --------------------------

 --
 TD
 --
 Symbolic Z-matrix:
 Charge =  0 Multiplicity = 1

                         Standard orientation:
 ---------------------------------------------------------------------
 Center     Atomic      Atomic             Coordinates (Angstroms)
 Number     Number       Type             X           Y           Z
 ---------------------------------------------------------------------
      1          8           0       -3.121123   -1.154762   -2.887197
      2          8           0        2.962208    3.149472    3.145760
      3          8           0        3.427417    1.482131    4.528042
      4          8           0        7.755530   -1.359947   -0.935814
      5          8           0        6.550310   -3.078741   -1.919031
      6          8           0       -2.574470    1.648301    1.545888
      7          7           0       -0.241783   -2.377675    0.901650
      8          7           0       -2.639431   -1.218293   -0.630846
      9          7           0        1.103286    0.146659   -0.738469
     10          7           0       -0.961162    1.461651   -0.094135
     11          6           0       -3.331471   -1.419179    0.655060
     12          6           0       -2.614183   -2.391095    1.591815
     13          6           0       -1.164000   -2.077766    1.869272
     14          6           0       -0.433199   -1.361143    2.897145
     15          6           0        0.805527   -1.129410    2.395883
     16          6           0        1.033671   -1.926156    1.249291
     17          6           0       -4.742492   -2.024422    0.192496
     18          6           0        1.868569   -0.381048    3.164493
     19          6           0       -4.710614   -2.037433   -1.190237
     20          6           0        2.163277   -1.927166    0.182306
     21          6           0        2.055375   -0.896276   -0.712816
     22          6           0       -3.428957   -1.400519   -1.708870
     23          6           0        3.036630   -0.649961   -1.867310
     24          6           0       -1.127383   -0.463696    3.953510
     25          6           0       -5.687652   -2.428222    1.184842
     26          6           0        2.615306    0.479294   -2.495297
     27          6           0        1.760964    1.090616    2.779433
     28          6           0        1.348407    1.019178   -1.863039
     29          6           0        4.260200   -1.434329   -2.036327
     30          6           0       -5.785902   -2.392821   -2.053921
     31          6           0        5.349248   -1.123082   -0.964708
     32          6           0        3.077643    1.107406   -3.744267
     33          6           0        0.503639    2.066727   -1.989088
     34          6           0        2.872930    1.861982    3.498798
     35          6           0       -0.667658    2.299774   -1.104456
     36          6           0       -6.852471   -3.230738   -1.709548
     37          6           0        6.579937   -1.958319   -1.379668
     38          6           0       -1.466794    3.463935   -1.232009
     39          6           0       -2.292701    3.367325   -0.165890
     40          6           0       -2.014205    2.072473    0.588649
     41          6           0       -1.329512    4.512117   -2.293295
     42          6           0       -3.447902    4.285795    0.253559
     43          6           0       -2.027436    5.546841   -2.348199
     44          1           0       -3.568507   -0.422386    1.054870
     45          1           0       -2.722580   -3.464593    1.291832
     46          1           0       -3.192892   -2.316855    2.548534
     47          1           0       -0.243245   -2.878350    0.024297
     48          1           0       -1.813577   -0.465823   -0.491582
     49          1           0        1.623493   -0.533621    4.179911
     50          1           0        2.795764   -0.946794    3.045527
     51          1           0        3.089227   -2.743532    0.225535
     52          1           0       -1.736465   -1.051369    4.638036
     53          1           0       -0.477836    0.365670    4.507861
     54          1           0       -1.958338    0.204425    3.332569
     55          1           0       -5.796575   -1.593260    2.209778
     56          1           0       -5.400671   -3.432456    1.543515
     57          1           0       -6.715840   -2.264546    0.634101
     58          1           0        1.671498    0.981706    1.774361
     59          1           0        0.735292    1.476559    3.275685
     60          1           0        0.375373    0.383078   -0.133294
     61          1           0        4.488836   -1.324369   -3.121077
     62          1           0        4.159950   -2.451878   -1.789107
     63          1           0       -5.536317   -2.077855   -3.116921
     64          1           0        4.923653   -1.351153    0.019962
     65          1           0        5.839980    0.005047   -0.896686
     66          1           0        4.050033    0.588836   -4.134493
     67          1           0        3.349601    2.196744   -3.514276
     68          1           0        2.361184    1.298809   -4.593877
     69          1           0        0.756183    2.945156   -2.638334
     70          1           0       -7.004721   -3.648734   -0.677172
     71          1           0       -7.551540   -3.549616   -2.437965
     72          1           0        3.658477    3.589771    3.609089
     73          1           0       -0.408922    4.229105   -2.911937
     74          1           0       -4.054905    4.772431   -0.664182
     75          1           0       -4.303284    3.635750    0.937065
     76          1           0       -3.301560    5.114788    0.840239
     77          1           0        8.405964   -2.191692   -1.332197
     78          1           0       -1.810005    6.391393   -3.046663
     79          1           0       -2.752806    5.827483   -1.667214
 ---------------------------------------------------------------------

 SCF Done:  E(RB3LYP) =  -1947.83437222     A.U. after   18 cycles

 Excitation energies and oscillator strengths:

 Excited State   1:      Singlet-A      1.0109 eV 1226.43 nm  f=0.0002  <S**2>=0.000
     155 ->156         0.70518
 This state for optimization and/or second-order correction.
 Total Energy, E(TD-HF/TD-DFT) =  -1947.79722089
 Copying the excited state density for this state as the 1-particle RhoCI density.

 The electronic state is 1-A.
 Alpha  occ. eigenvalues --  -19.20715 -19.17445 -19.15134 -19.14046 -19.11608
 Alpha  occ. eigenvalues --  -19.07724 -14.36657 -14.36610 -14.33311 -14.31734
 Alpha  occ. eigenvalues --  -10.34235 -10.31639 -10.29441 -10.27101 -10.26712
 Alpha  occ. eigenvalues --  -10.26450 -10.25902 -10.24092 -10.23383 -10.23140
 Alpha  occ. eigenvalues --  -10.22906 -10.22385 -10.22329 -10.22247 -10.21932
 Alpha  occ. eigenvalues --  -10.21911 -10.21847 -10.21725 -10.21680 -10.21664
 Alpha  occ. eigenvalues --  -10.20888 -10.20473 -10.20470 -10.20208 -10.19866
 Alpha  occ. eigenvalues --  -10.19735 -10.19441 -10.19126 -10.18758 -10.18702
 Alpha  occ. eigenvalues --  -10.16991 -10.16802 -10.16105  -1.09411  -1.08774
 Alpha  occ. eigenvalues --   -1.06360  -1.00269  -0.99141  -0.98978  -0.97510
 Alpha  occ. eigenvalues --   -0.96111  -0.95124  -0.90920  -0.84477  -0.83149
 Alpha  occ. eigenvalues --   -0.81685  -0.80670  -0.80558  -0.79171  -0.77809
 Alpha  occ. eigenvalues --   -0.77322  -0.75905  -0.75556  -0.73991  -0.72458
 Alpha  occ. eigenvalues --   -0.71603  -0.69252  -0.69081  -0.68845  -0.66582
 Alpha  occ. eigenvalues --   -0.66508  -0.65842  -0.62508  -0.61355  -0.60428
 Alpha  occ. eigenvalues --   -0.59716  -0.59447  -0.59205  -0.57029  -0.56530
 Alpha  occ. eigenvalues --   -0.55440  -0.55260  -0.54632  -0.54109  -0.52739
 Alpha  occ. eigenvalues --   -0.51756  -0.50955  -0.50784  -0.50434  -0.49908
 Alpha  occ. eigenvalues --   -0.49456  -0.48860  -0.48143  -0.48019  -0.47760
 Alpha  occ. eigenvalues --   -0.47171  -0.46974  -0.46761  -0.46484  -0.45958
 Alpha  occ. eigenvalues --   -0.45614  -0.45024  -0.44807  -0.44680  -0.44640
 Alpha  occ. eigenvalues --   -0.44029  -0.43822  -0.43230  -0.42504  -0.41869
 Alpha  occ. eigenvalues --   -0.41640  -0.41196  -0.40797  -0.40627  -0.40616
 Alpha  occ. eigenvalues --   -0.40295  -0.40064  -0.39799  -0.39524  -0.39187
 Alpha  occ. eigenvalues --   -0.38952  -0.38470  -0.38050  -0.37957  -0.37856
 Alpha  occ. eigenvalues --   -0.37713  -0.37242  -0.37155  -0.36943  -0.36555
 Alpha  occ. eigenvalues --   -0.36274  -0.35837  -0.35270  -0.34864  -0.34519
 Alpha  occ. eigenvalues --   -0.33620  -0.33495  -0.33026  -0.32356  -0.31331
 Alpha  occ. eigenvalues --   -0.31268  -0.30391  -0.30340  -0.30036  -0.29554
 Alpha  occ. eigenvalues --   -0.27363  -0.27150  -0.26826  -0.25362  -0.24313
 Alpha  occ. eigenvalues --   -0.23537  -0.23104  -0.22786  -0.21798  -0.18928
 Alpha virt. eigenvalues --   -0.12894  -0.07022  -0.04785  -0.02954  -0.01448
 Alpha virt. eigenvalues --   -0.00442   0.00543   0.01377   0.02058   0.02713
 Alpha virt. eigenvalues --    0.03348   0.03498   0.04267   0.04856   0.05018

 Mulliken charges:
               1
     1  O   -0.265329
     2  O   -0.156616
     3  O   -0.249536
     4  O   -0.261246
     5  O   -0.259518
     6  O   -0.140456
     7  N   -0.065099
     8  N   -0.247893
     9  N   -0.143092
    10  N   -0.320103
    11  C    0.069457
    12  C    0.192298
    13  C   -0.077139
    14  C   -0.059258
    15  C   -0.194580
    16  C   -0.046799
    17  C   -0.162753
    18  C    0.163279
    19  C   -0.068214
    20  C   -0.196145
    21  C    0.181440
    22  C    0.169582
    23  C   -0.066308
    24  C   -0.041194
    25  C   -0.026397
    26  C   -0.074094
    27  C    0.018355
    28  C    0.178672
    29  C    0.122363
    30  C   -0.033360
    31  C   -0.056128
    32  C    0.026642
    33  C   -0.140632
    34  C    0.148254
    35  C    0.084657
    36  C   -0.046658
    37  C    0.199199
    38  C    0.020429
    39  C   -0.191526
    40  C    0.181637
    41  C    0.071175
    42  C   -0.011589
    43  C    0.007511
    44  H    0.043369
    45  H   -0.001519
    46  H   -0.004386
    47  H    0.114996
    48  H    0.190217
    49  H   -0.016495
    50  H   -0.004873
    51  H    0.069038
    52  H    0.009180
    53  H    0.038056
    54  H    0.061585
    55  H    0.047705
    56  H    0.059311
    57  H    0.064882
    58  H   -0.019577
    59  H    0.073856
    60  H    0.156399
    61  H    0.028705
    62  H    0.008035
    63  H    0.024604
    64  H    0.060676
    65  H    0.061216
    66  H    0.033023
    67  H    0.025607
    68  H    0.051735
    69  H   -0.001880
    70  H    0.029526
    71  H    0.015431
    72  H    0.165472
    73  H    0.001379
    74  H    0.052067
    75  H    0.054323
    76  H    0.022066
    77  H    0.236342
    78  H    0.028487
    79  H   -0.011848
 Sum of Mulliken charges =  -0.00000

 Dipole moment (field-independent basis, Debye):
    X=              2.6192    Y=              4.0136    Z=             -1.7119  Tot=              5.0892
 Quadrupole moment (field-independent basis, Debye-Ang):
   XX=           -235.4429   YY=           -230.2982   ZZ=           -274.3692
   XY=              1.6284   XZ=            -26.7439   YZ=            -13.2690

 Normal termination of Gaussian 16 at Wed Jul 31 08:30:53 2019.
