 Gaussian 16, Revision A.03,
 Gaussian 16:  ES64L-G16RevA.03 25-Dec-2016

 --------------------------
 # td=(NStates=1) B3LYP/SVP
 --------------------------

 --
 TD
 --
 Symbolic Z-matrix:
 Charge =  0 Multiplicity = 1

                         Standard orientation:
 ---------------------------------------------------------------------
 Center     Atomic      Atomic             Coordinates (Angstroms)
 Number     Number       Type             X           Y           Z
 ---------------------------------------------------------------------
      1          8           0       -3.438116   -1.444679   -2.896102
      2          8           0        3.022227    3.163351    3.068688
      3          8           0        3.607095    1.562969    4.407122
      4          8           0        7.768245   -1.710914   -0.773410
      5          8           0        6.695183   -3.132077   -2.205773
      6          8           0       -2.725614    1.778108    1.294618
      7          7           0       -0.352716   -2.337169    1.098865
      8          7           0       -2.729415   -1.282209   -0.695115
      9          7           0        1.176983   -0.023532   -0.708402
     10          7           0       -1.027841    1.429998   -0.241843
     11          6           0       -3.350982   -1.424317    0.634647
     12          6           0       -2.691511   -2.238514    1.695027
     13          6           0       -1.266567   -1.894585    1.850999
     14          6           0       -0.682950   -0.988164    2.819351
     15          6           0        0.760230   -1.087930    2.581451
     16          6           0        0.893691   -1.790602    1.461128
     17          6           0       -4.773885   -1.876851    0.271203
     18          6           0        1.763374   -0.329352    3.275477
     19          6           0       -4.931512   -2.073115   -1.074488
     20          6           0        2.087459   -1.933024    0.485368
     21          6           0        2.025559   -1.041972   -0.551345
     22          6           0       -3.697817   -1.579411   -1.696514
     23          6           0        3.006277   -0.816243   -1.568892
     24          6           0       -1.359209   -0.335519    3.908961
     25          6           0       -5.849036   -2.067400    1.269767
     26          6           0        2.667719    0.386196   -2.269909
     27          6           0        1.799934    1.151175    2.891344
     28          6           0        1.377703    0.825959   -1.765260
     29          6           0        4.269953   -1.654201   -1.832800
     30          6           0       -6.000297   -2.448744   -2.001073
     31          6           0        5.547207   -1.180966   -1.170503
     32          6           0        3.311869    0.977975   -3.547679
     33          6           0        0.645485    1.946393   -1.963700
     34          6           0        2.933443    1.931402    3.541616
     35          6           0       -0.558616    2.167434   -1.311166
     36          6           0       -7.009374   -3.149360   -1.617844
     37          6           0        6.675205   -2.148901   -1.436320
     38          6           0       -1.323458    3.498308   -1.443214
     39          6           0       -2.183335    3.483336   -0.349485
     40          6           0       -2.079820    2.124727    0.268243
     41          6           0       -0.968348    4.529677   -2.377593
     42          6           0       -3.201227    4.434307    0.093532
     43          6           0       -1.668904    5.698627   -2.695841
     44          1           0       -3.386504   -0.262810    0.966967
     45          1           0       -2.696686   -3.267427    1.232339
     46          1           0       -3.124745   -2.343527    2.573898
     47          1           0       -0.543311   -2.934630    0.366222
     48          1           0       -2.147490   -0.428728   -0.789607
     49          1           0        1.469043   -0.467766    4.384977
     50          1           0        2.848038   -0.865017    3.069473
     51          1           0        2.631270   -2.797365    0.513065
     52          1           0       -2.095842   -0.984401    4.454132
     53          1           0       -0.479606    0.150841    4.451542
     54          1           0       -1.850084    0.634033    3.517302
     55          1           0       -5.556620   -1.300544    2.120489
     56          1           0       -5.827299   -2.999220    1.614167
     57          1           0       -6.922560   -1.810506    0.824786
     58          1           0        1.904859    1.297150    1.855255
     59          1           0        0.868655    1.777210    3.180127
     60          1           0        0.424340    0.199652   -0.068718
     61          1           0        4.467774   -1.659505   -3.059584
     62          1           0        4.233121   -2.657949   -1.538383
     63          1           0       -5.703715   -2.307575   -2.940427
     64          1           0        5.358116   -1.182836   -0.070065
     65          1           0        5.904299   -0.078049   -1.437059
     66          1           0        3.959784    0.243541   -4.130325
     67          1           0        3.684311    1.903034   -3.401952
     68          1           0        2.520576    1.248206   -4.218785
     69          1           0        1.184404    2.443585   -2.744568
     70          1           0       -7.205422   -3.680419   -0.720833
     71          1           0       -7.806465   -3.644640   -2.314457
     72          1           0        3.684366    3.643542    3.692148
     73          1           0        0.038989    4.731053   -2.880516
     74          1           0       -3.939412    4.630171   -0.700961
     75          1           0       -3.743734    4.381147    1.164276
     76          1           0       -2.837375    5.334439    0.389144
     77          1           0        8.548454   -2.246088   -1.083320
     78          1           0       -1.177964    6.423582   -3.437099
     79          1           0       -2.596341    6.056068   -2.416263
 ---------------------------------------------------------------------

 SCF Done:  E(RB3LYP) =  -1947.85115731     A.U. after   22 cycles

 Excitation energies and oscillator strengths:

 Excited State   1:      Singlet-A      0.6927 eV 1789.97 nm  f=0.0002  <S**2>=0.000
     155 ->156         0.70523
 This state for optimization and/or second-order correction.
 Total Energy, E(TD-HF/TD-DFT) =  -1947.82570256
 Copying the excited state density for this state as the 1-particle RhoCI density.

 The electronic state is 1-A.
 Alpha  occ. eigenvalues --  -19.19834 -19.17656 -19.14212 -19.11639 -19.11524
 Alpha  occ. eigenvalues --  -19.07897 -14.37015 -14.36036 -14.31941 -14.31422
 Alpha  occ. eigenvalues --  -10.33788 -10.30371 -10.27778 -10.26300 -10.26280
 Alpha  occ. eigenvalues --  -10.26003 -10.25376 -10.23288 -10.23210 -10.23135
 Alpha  occ. eigenvalues --  -10.22675 -10.22575 -10.22349 -10.22303 -10.22214
 Alpha  occ. eigenvalues --  -10.21601 -10.21091 -10.21010 -10.20841 -10.20387
 Alpha  occ. eigenvalues --  -10.20080 -10.20067 -10.19881 -10.19418 -10.19348
 Alpha  occ. eigenvalues --  -10.19279 -10.18683 -10.18189 -10.18038 -10.17768
 Alpha  occ. eigenvalues --  -10.17440 -10.16319 -10.15481  -1.10954  -1.10143
 Alpha  occ. eigenvalues --   -1.01291  -1.01170  -1.00835  -1.00443  -0.99340
 Alpha  occ. eigenvalues --   -0.98861  -0.92973  -0.90381  -0.83995  -0.82993
 Alpha  occ. eigenvalues --   -0.81471  -0.81324  -0.80826  -0.79257  -0.78950
 Alpha  occ. eigenvalues --   -0.77457  -0.76130  -0.76052  -0.75488  -0.73660
 Alpha  occ. eigenvalues --   -0.71509  -0.70823  -0.70082  -0.69537  -0.67863
 Alpha  occ. eigenvalues --   -0.67398  -0.65946  -0.63542  -0.61864  -0.61294
 Alpha  occ. eigenvalues --   -0.60470  -0.59674  -0.58914  -0.57891  -0.56780
 Alpha  occ. eigenvalues --   -0.55534  -0.55044  -0.54351  -0.53909  -0.53559
 Alpha  occ. eigenvalues --   -0.52321  -0.51546  -0.51068  -0.50133  -0.50063
 Alpha  occ. eigenvalues --   -0.49883  -0.49246  -0.49056  -0.48598  -0.48245
 Alpha  occ. eigenvalues --   -0.47701  -0.47493  -0.47136  -0.46555  -0.46538
 Alpha  occ. eigenvalues --   -0.45840  -0.45314  -0.44715  -0.44660  -0.43990
 Alpha  occ. eigenvalues --   -0.43591  -0.43300  -0.42988  -0.42485  -0.42352
 Alpha  occ. eigenvalues --   -0.42042  -0.41913  -0.41311  -0.41237  -0.41032
 Alpha  occ. eigenvalues --   -0.40712  -0.40604  -0.40176  -0.39919  -0.39701
 Alpha  occ. eigenvalues --   -0.39404  -0.38932  -0.38874  -0.38375  -0.38224
 Alpha  occ. eigenvalues --   -0.37704  -0.37540  -0.36710  -0.36561  -0.36006
 Alpha  occ. eigenvalues --   -0.35735  -0.35531  -0.35320  -0.34683  -0.34234
 Alpha  occ. eigenvalues --   -0.33440  -0.33285  -0.32727  -0.32356  -0.32239
 Alpha  occ. eigenvalues --   -0.30824  -0.30490  -0.29608  -0.29211  -0.28775
 Alpha  occ. eigenvalues --   -0.27629  -0.26707  -0.25689  -0.23852  -0.23688
 Alpha  occ. eigenvalues --   -0.23466  -0.23208  -0.22849  -0.22488  -0.18211
 Alpha virt. eigenvalues --   -0.13159  -0.08010  -0.03897  -0.02788  -0.02366
 Alpha virt. eigenvalues --    0.02224   0.02288   0.02514   0.02973   0.03551
 Alpha virt. eigenvalues --    0.03999   0.04422   0.04647   0.05051   0.05729

 Mulliken charges:
               1
     1  O   -0.255142
     2  O   -0.200215
     3  O   -0.177117
     4  O   -0.190228
     5  O   -0.255509
     6  O   -0.240572
     7  N    0.075484
     8  N   -0.238724
     9  N   -0.057264
    10  N   -0.294952
    11  C    0.002958
    12  C    0.351685
    13  C   -0.198919
    14  C   -0.168963
    15  C   -0.051929
    16  C   -0.087956
    17  C   -0.213884
    18  C    0.051265
    19  C   -0.057397
    20  C   -0.044823
    21  C    0.135069
    22  C    0.134861
    23  C   -0.074935
    24  C    0.075070
    25  C    0.083964
    26  C   -0.133994
    27  C    0.017029
    28  C    0.065785
    29  C    0.076232
    30  C    0.136637
    31  C   -0.045065
    32  C    0.145141
    33  C   -0.054504
    34  C    0.071996
    35  C    0.171088
    36  C   -0.056821
    37  C    0.158879
    38  C    0.103395
    39  C   -0.157243
    40  C    0.177425
    41  C   -0.067737
    42  C    0.083366
    43  C   -0.061755
    44  H    0.081324
    45  H   -0.038567
    46  H   -0.067514
    47  H    0.077826
    48  H    0.147457
    49  H    0.032819
    50  H    0.019553
    51  H   -0.014732
    52  H    0.024317
    53  H   -0.015306
    54  H    0.031332
    55  H    0.037195
    56  H    0.001658
    57  H    0.054897
    58  H   -0.000158
    59  H    0.056145
    60  H    0.170757
    61  H    0.048135
    62  H   -0.001419
    63  H   -0.043220
    64  H    0.047276
    65  H    0.069622
    66  H    0.042071
    67  H   -0.009491
    68  H    0.012518
    69  H   -0.042391
    70  H    0.004377
    71  H    0.017811
    72  H    0.197258
    73  H    0.030151
    74  H    0.043490
    75  H    0.037399
    76  H   -0.012662
    77  H    0.196799
    78  H    0.033382
    79  H   -0.001791
 Sum of Mulliken charges =  -0.00000

 Dipole moment (field-independent basis, Debye):
    X=              4.0979    Y=              2.9813    Z=             -0.6775  Tot=              5.1127
 Quadrupole moment (field-independent basis, Debye-Ang):
   XX=           -231.7669   YY=           -229.2670   ZZ=           -271.0721
   XY=              7.5720   XZ=            -22.1832   YZ=            -16.6475

 Normal termination of Gaussian 16 at Tue Jul 30 21:03:03 2019.
