 Gaussian 16, Revision A.03,
 Gaussian 16:  ES64L-G16RevA.03 25-Dec-2016

 --------------------------
 # td=(NStates=1) B3LYP/SVP
 --------------------------

 --
 TD
 --
 Symbolic Z-matrix:
 Charge =  0 Multiplicity = 1

                         Standard orientation:
 ---------------------------------------------------------------------
 Center     Atomic      Atomic             Coordinates (Angstroms)
 Number     Number       Type             X           Y           Z
 ---------------------------------------------------------------------
      1          8           0        5.376326    0.121629   -3.157511
      2          8           0       -3.115503   -3.126147    2.927159
      3          8           0       -3.366002   -0.815034    3.086872
      4          8           0       -2.145643    7.105381    1.493032
      5          8           0       -0.758012    7.132285   -0.323540
      6          8           0       -1.678826   -3.965597    0.000060
      7          7           0        2.345266    0.953156    0.654792
      8          7           0        4.451776   -0.439058   -1.144446
      9          7           0       -1.745930    0.639828   -0.374884
     10          7           0       -2.579494   -1.848125   -0.460593
     11          6           0        4.791212   -1.078564   -0.073940
     12          6           0        4.349574   -0.357607    1.265867
     13          6           0        2.960721   -0.118187    1.438328
     14          6           0        1.918303   -0.724956    2.173078
     15          6           0        0.726205   -0.117332    1.752760
     16          6           0        0.980846    0.990317    0.830674
     17          6           0        6.303621   -1.168151   -0.174928
     18          6           0       -0.600223   -0.222664    2.428003
     19          6           0        6.763234   -0.741955   -1.401285
     20          6           0        0.197577    1.904819    0.194470
     21          6           0       -1.095366    1.867578   -0.253135
     22          6           0        5.484554   -0.253637   -2.062614
     23          6           0       -2.017064    2.857530   -0.819349
     24          6           0        2.163866   -1.858403    3.078013
     25          6           0        7.143556   -1.860957    0.871645
     26          6           0       -3.051945    2.324510   -1.312981
     27          6           0       -1.103207   -1.666152    2.625616
     28          6           0       -2.967042    0.875388   -1.047522
     29          6           0       -1.668860    4.320261   -0.910783
     30          6           0        8.093092   -0.606730   -2.048920
     31          6           0       -1.873508    5.037297    0.383768
     32          6           0       -4.226987    2.818087   -1.932546
     33          6           0       -3.888860   -0.083442   -1.399165
     34          6           0       -2.629303   -1.805589    2.947924
     35          6           0       -3.700730   -1.435891   -1.098016
     36          6           0        9.240536   -0.694161   -1.448215
     37          6           0       -1.438806    6.464975    0.407509
     38          6           0       -4.572706   -2.578195   -1.412923
     39          6           0       -3.873109   -3.762389   -1.012489
     40          6           0       -2.536534   -3.310909   -0.436849
     41          6           0       -5.771492   -2.424190   -2.206960
     42          6           0       -4.170940   -5.231751   -1.101779
     43          6           0       -6.668374   -3.344412   -2.733875
     44          1           0        4.479455   -2.160969    0.175566
     45          1           0        4.887305    0.539228    1.405128
     46          1           0        4.708355   -1.099143    2.158963
     47          1           0        2.821837    1.430990    0.076602
     48          1           0        3.491385   -0.316296   -1.422847
     49          1           0       -0.640269    0.254884    3.389148
     50          1           0       -1.430539    0.211531    1.857058
     51          1           0        0.632036    2.914484    0.394472
     52          1           0        3.297729   -1.890812    3.152805
     53          1           0        1.794811   -1.531295    4.154953
     54          1           0        1.836460   -2.858666    2.885212
     55          1           0        6.643318   -2.586531    1.308397
     56          1           0        7.522270   -1.161021    1.453088
     57          1           0        7.903704   -2.510906    0.332614
     58          1           0       -1.060365   -2.628639    1.856318
     59          1           0       -0.535796   -2.228619    3.432783
     60          1           0       -1.482295   -0.302676   -0.308673
     61          1           0       -2.211656    4.645701   -1.825288
     62          1           0       -0.501559    4.322660   -1.113304
     63          1           0        8.000230   -0.292205   -3.096881
     64          1           0       -1.083293    4.435322    1.057501
     65          1           0       -2.843281    4.807983    0.824724
     66          1           0       -3.943293    3.888828   -2.447080
     67          1           0       -5.007222    3.182545   -1.138240
     68          1           0       -4.443126    2.206568   -2.780785
     69          1           0       -4.777784    0.220087   -1.915812
     70          1           0        9.341716   -0.853217   -0.279185
     71          1           0       10.055261   -0.639159   -2.227224
     72          1           0       -4.064455   -3.023082    2.994393
     73          1           0       -5.966244   -1.351832   -2.454719
     74          1           0       -5.313220   -5.445052   -0.592976
     75          1           0       -4.445954   -5.664457   -2.260092
     76          1           0       -3.244429   -6.017610   -0.800647
     77          1           0       -1.794414    8.127984    1.672477
     78          1           0       -7.537364   -3.130072   -3.438175
     79          1           0       -6.460422   -4.344491   -2.469216
 ---------------------------------------------------------------------

 SCF Done:  E(RB3LYP) =  -1947.81974976     A.U. after   16 cycles

 Excitation energies and oscillator strengths:

 Excited State   1:      Singlet-A      1.8872 eV  656.96 nm  f=0.3441  <S**2>=0.000
     154 ->156         0.12170
     155 ->156         0.69306
 This state for optimization and/or second-order correction.
 Total Energy, E(TD-HF/TD-DFT) =  -1947.75039467
 Copying the excited state density for this state as the 1-particle RhoCI density.

 The electronic state is 1-A.
 Alpha  occ. eigenvalues --  -19.17009 -19.16636 -19.14281 -19.12030 -19.11344
 Alpha  occ. eigenvalues --  -19.10653 -14.37131 -14.35986 -14.35128 -14.28655
 Alpha  occ. eigenvalues --  -10.33094 -10.31014 -10.28409 -10.27221 -10.24579
 Alpha  occ. eigenvalues --  -10.24564 -10.24479 -10.23380 -10.23339 -10.22959
 Alpha  occ. eigenvalues --  -10.22932 -10.22779 -10.21749 -10.21705 -10.21677
 Alpha  occ. eigenvalues --  -10.21460 -10.21223 -10.21152 -10.21125 -10.21060
 Alpha  occ. eigenvalues --  -10.20459 -10.20336 -10.20186 -10.20182 -10.20041
 Alpha  occ. eigenvalues --  -10.19981 -10.19955 -10.19795 -10.19414 -10.19232
 Alpha  occ. eigenvalues --  -10.19113 -10.18798 -10.18425  -1.07421  -1.06066
 Alpha  occ. eigenvalues --   -1.05987  -1.05215  -0.98496  -0.98018  -0.98004
 Alpha  occ. eigenvalues --   -0.97801  -0.97327  -0.90910  -0.85009  -0.82597
 Alpha  occ. eigenvalues --   -0.82371  -0.81947  -0.80423  -0.79460  -0.78631
 Alpha  occ. eigenvalues --   -0.77750  -0.76476  -0.75651  -0.74220  -0.72993
 Alpha  occ. eigenvalues --   -0.72741  -0.71682  -0.69668  -0.68857  -0.68498
 Alpha  occ. eigenvalues --   -0.66751  -0.66255  -0.63707  -0.61623  -0.60341
 Alpha  occ. eigenvalues --   -0.59458  -0.58794  -0.57974  -0.57770  -0.56827
 Alpha  occ. eigenvalues --   -0.56266  -0.55556  -0.55048  -0.54870  -0.53008
 Alpha  occ. eigenvalues --   -0.52213  -0.51761  -0.51553  -0.51020  -0.50259
 Alpha  occ. eigenvalues --   -0.48754  -0.48692  -0.48390  -0.47989  -0.47452
 Alpha  occ. eigenvalues --   -0.47345  -0.46811  -0.46682  -0.46502  -0.46222
 Alpha  occ. eigenvalues --   -0.45679  -0.45070  -0.44666  -0.44351  -0.44069
 Alpha  occ. eigenvalues --   -0.43748  -0.43592  -0.43424  -0.43140  -0.42904
 Alpha  occ. eigenvalues --   -0.42682  -0.42451  -0.42293  -0.41828  -0.41146
 Alpha  occ. eigenvalues --   -0.40820  -0.40291  -0.40005  -0.39736  -0.39575
 Alpha  occ. eigenvalues --   -0.39205  -0.39026  -0.38987  -0.38494  -0.38316
 Alpha  occ. eigenvalues --   -0.38093  -0.37837  -0.37157  -0.37130  -0.36820
 Alpha  occ. eigenvalues --   -0.36670  -0.35877  -0.35204  -0.34761  -0.34636
 Alpha  occ. eigenvalues --   -0.34286  -0.33869  -0.32110  -0.31812  -0.31297
 Alpha  occ. eigenvalues --   -0.30918  -0.30505  -0.29118  -0.28724  -0.28201
 Alpha  occ. eigenvalues --   -0.27304  -0.26951  -0.26201  -0.26093  -0.24928
 Alpha  occ. eigenvalues --   -0.24558  -0.23805  -0.23601  -0.21565  -0.18951
 Alpha virt. eigenvalues --   -0.11259  -0.06888  -0.05132  -0.01893  -0.01112
 Alpha virt. eigenvalues --    0.00763   0.01070   0.01536   0.02238   0.02984
 Alpha virt. eigenvalues --    0.03300   0.04126   0.04485   0.04546   0.05047

 Mulliken charges:
               1
     1  O   -0.150664
     2  O   -0.213822
     3  O   -0.263587
     4  O   -0.330375
     5  O   -0.182698
     6  O   -0.128015
     7  N   -0.050060
     8  N   -0.089007
     9  N   -0.079857
    10  N   -0.354753
    11  C    0.053013
    12  C    0.130629
    13  C   -0.054996
    14  C   -0.086888
    15  C   -0.101708
    16  C    0.100812
    17  C   -0.251728
    18  C    0.145240
    19  C   -0.063195
    20  C   -0.112214
    21  C    0.100373
    22  C    0.095479
    23  C   -0.062010
    24  C    0.078308
    25  C    0.212309
    26  C   -0.115024
    27  C   -0.129085
    28  C    0.106327
    29  C    0.060825
    30  C    0.004972
    31  C   -0.009848
    32  C    0.073315
    33  C   -0.112530
    34  C    0.175363
    35  C    0.110117
    36  C   -0.042671
    37  C    0.191003
    38  C    0.090171
    39  C   -0.160926
    40  C    0.171001
    41  C   -0.075078
    42  C   -0.096616
    43  C   -0.008152
    44  H    0.012913
    45  H   -0.025630
    46  H    0.013637
    47  H    0.024901
    48  H    0.117649
    49  H    0.010428
    50  H    0.017906
    51  H    0.007187
    52  H   -0.012405
    53  H    0.031673
    54  H    0.043495
    55  H   -0.034197
    56  H    0.005740
    57  H    0.031318
    58  H    0.087823
    59  H    0.021719
    60  H    0.114508
    61  H    0.021167
    62  H    0.031982
    63  H    0.011177
    64  H    0.062894
    65  H    0.044045
    66  H    0.011626
    67  H    0.067818
    68  H    0.034817
    69  H   -0.040121
    70  H    0.047813
    71  H    0.037468
    72  H    0.170421
    73  H   -0.007421
    74  H    0.061075
    75  H    0.051268
    76  H    0.080186
    77  H    0.229734
    78  H    0.047595
    79  H   -0.005959
 Sum of Mulliken charges =  -0.00000

 Dipole moment (field-independent basis, Debye):
    X=              0.5309    Y=              0.8954    Z=              1.5528  Tot=              1.8695
 Quadrupole moment (field-independent basis, Debye-Ang):
   XX=           -223.4226   YY=           -250.2225   ZZ=           -261.7325
   XY=             -8.9352   XZ=             33.0606   YZ=              6.0796

 Normal termination of Gaussian 16 at Wed Oct  2 13:47:34 2019.
