 Gaussian 16, Revision A.03,
 Gaussian 16:  ES64L-G16RevA.03 25-Dec-2016

 --------------------------
 # td=(NStates=1) B3LYP/SVP
 --------------------------

 --
 TD
 --
 Symbolic Z-matrix:
 Charge =  0 Multiplicity = 1

                         Standard orientation:
 ---------------------------------------------------------------------
 Center     Atomic      Atomic             Coordinates (Angstroms)
 Number     Number       Type             X           Y           Z
 ---------------------------------------------------------------------
      1          8           0        5.354074   -0.054804   -3.191581
      2          8           0       -3.285810   -2.618249    3.071724
      3          8           0       -3.366857   -0.385185    2.946588
      4          8           0       -1.715426    7.133036    1.417115
      5          8           0       -0.904947    7.015508   -0.601916
      6          8           0       -1.731413   -4.069016    0.388520
      7          7           0        2.351261    1.014250    0.635170
      8          7           0        4.348123   -0.659107   -1.266495
      9          7           0       -1.774502    0.679738   -0.434144
     10          7           0       -2.457352   -1.993505   -0.557882
     11          6           0        4.757614   -1.170457    0.021436
     12          6           0        4.461463   -0.296547    1.234881
     13          6           0        2.953401    0.003157    1.371085
     14          6           0        1.950298   -0.612331    2.118332
     15          6           0        0.716853   -0.002206    1.801658
     16          6           0        0.987087    0.963962    0.788441
     17          6           0        6.298739   -1.313438   -0.192556
     18          6           0       -0.503476   -0.136163    2.637086
     19          6           0        6.704304   -0.771513   -1.314979
     20          6           0        0.115075    2.021908    0.197100
     21          6           0       -1.090973    1.801310   -0.331667
     22          6           0        5.418358   -0.406300   -2.027607
     23          6           0       -2.011640    2.918113   -0.888478
     24          6           0        2.146054   -1.700843    3.116236
     25          6           0        7.169497   -1.885351    0.960165
     26          6           0       -3.064996    2.261408   -1.313827
     27          6           0       -1.219551   -1.514746    2.480810
     28          6           0       -2.989542    0.781053   -1.032244
     29          6           0       -1.475426    4.348809   -0.915515
     30          6           0        7.950524   -0.675786   -2.018950
     31          6           0       -1.804225    4.996994    0.257560
     32          6           0       -4.344370    2.766798   -1.997417
     33          6           0       -3.801653   -0.220686   -1.289602
     34          6           0       -2.734907   -1.432313    2.895879
     35          6           0       -3.568707   -1.642198   -1.055077
     36          6           0        9.173992   -0.819509   -1.421149
     37          6           0       -1.434549    6.511034    0.285683
     38          6           0       -4.535933   -2.784302   -1.390588
     39          6           0       -3.828030   -3.921619   -1.010925
     40          6           0       -2.595783   -3.411566   -0.309456
     41          6           0       -5.742615   -2.495709   -2.185122
     42          6           0       -4.176545   -5.347863   -0.942197
     43          6           0       -6.604163   -3.461211   -2.586878
     44          1           0        4.456286   -2.135759    0.100881
     45          1           0        5.100512    0.592091    1.272697
     46          1           0        4.636422   -0.958794    2.105951
     47          1           0        2.892001    1.384786   -0.154890
     48          1           0        3.463868   -0.650681   -1.565343
     49          1           0       -0.477968    0.011896    3.644426
     50          1           0       -1.051300    0.535858    2.146641
     51          1           0        0.585998    2.815315   -0.175909
     52          1           0        3.250710   -1.555756    3.465516
     53          1           0        1.525201   -1.389347    4.047984
     54          1           0        1.766126   -2.682034    2.736561
     55          1           0        6.792023   -2.682425    1.590695
     56          1           0        7.446045   -0.900686    1.652769
     57          1           0        8.140720   -2.286354    0.608367
     58          1           0       -1.318975   -1.895243    1.248893
     59          1           0       -0.588285   -2.415428    2.943879
     60          1           0       -1.651853   -0.260160   -0.143211
     61          1           0       -2.054018    4.829090   -1.820386
     62          1           0       -0.411014    4.364957   -1.137306
     63          1           0        7.748363   -0.339254   -3.095147
     64          1           0       -1.406486    4.615539    1.343644
     65          1           0       -2.919189    4.937588    0.497863
     66          1           0       -4.378294    3.938910   -2.107101
     67          1           0       -5.311250    2.160865   -1.670894
     68          1           0       -4.249999    2.335596   -3.062415
     69          1           0       -4.693536    0.169547   -1.847007
     70          1           0        9.099395   -1.023978   -0.315462
     71          1           0       10.155677   -0.474287   -2.035067
     72          1           0       -4.273019   -2.439245    2.970001
     73          1           0       -6.032634   -1.448694   -2.450449
     74          1           0       -5.069660   -5.512349   -0.462631
     75          1           0       -4.155410   -5.802270   -2.040253
     76          1           0       -3.406371   -5.963892   -0.457785
     77          1           0       -1.694413    8.121508    1.248629
     78          1           0       -7.281191   -2.969789   -3.244759
     79          1           0       -6.361199   -4.598404   -2.372219
 ---------------------------------------------------------------------

 SCF Done:  E(RB3LYP) =  -1947.86270624     A.U. after   16 cycles

 Excitation energies and oscillator strengths:

 Excited State   1:      Singlet-A      1.8148 eV  683.19 nm  f=0.2938  <S**2>=0.000
     155 ->156         0.70670
 This state for optimization and/or second-order correction.
 Total Energy, E(TD-HF/TD-DFT) =  -1947.79601416
 Copying the excited state density for this state as the 1-particle RhoCI density.

 The electronic state is 1-A.
 Alpha  occ. eigenvalues --  -19.18500 -19.17613 -19.12696 -19.12159 -19.10851
 Alpha  occ. eigenvalues --  -19.08912 -14.37640 -14.36105 -14.34917 -14.30882
 Alpha  occ. eigenvalues --  -10.31479 -10.30544 -10.28680 -10.27708 -10.24642
 Alpha  occ. eigenvalues --  -10.24146 -10.23917 -10.23531 -10.22411 -10.22310
 Alpha  occ. eigenvalues --  -10.22260 -10.22058 -10.21873 -10.21785 -10.21778
 Alpha  occ. eigenvalues --  -10.21722 -10.21704 -10.21466 -10.21310 -10.21152
 Alpha  occ. eigenvalues --  -10.21125 -10.21031 -10.20736 -10.20170 -10.20032
 Alpha  occ. eigenvalues --  -10.20015 -10.19849 -10.19357 -10.19327 -10.19314
 Alpha  occ. eigenvalues --  -10.17885 -10.17601 -10.16632  -1.11995  -1.08895
 Alpha  occ. eigenvalues --   -1.02810  -1.02723  -1.00201  -0.99543  -0.98462
 Alpha  occ. eigenvalues --   -0.97486  -0.94765  -0.93831  -0.84060  -0.82940
 Alpha  occ. eigenvalues --   -0.82105  -0.81563  -0.80712  -0.79585  -0.78927
 Alpha  occ. eigenvalues --   -0.77593  -0.76418  -0.75205  -0.74455  -0.71587
 Alpha  occ. eigenvalues --   -0.71270  -0.70798  -0.70069  -0.68222  -0.67756
 Alpha  occ. eigenvalues --   -0.66777  -0.66165  -0.64473  -0.62015  -0.61672
 Alpha  occ. eigenvalues --   -0.60769  -0.59076  -0.58967  -0.58102  -0.57511
 Alpha  occ. eigenvalues --   -0.55881  -0.55291  -0.54593  -0.53875  -0.52862
 Alpha  occ. eigenvalues --   -0.52561  -0.51948  -0.51283  -0.50788  -0.49828
 Alpha  occ. eigenvalues --   -0.49351  -0.48698  -0.48638  -0.48324  -0.47517
 Alpha  occ. eigenvalues --   -0.47285  -0.47003  -0.46556  -0.46367  -0.45762
 Alpha  occ. eigenvalues --   -0.45334  -0.45118  -0.44640  -0.44161  -0.43730
 Alpha  occ. eigenvalues --   -0.43408  -0.43318  -0.43197  -0.42541  -0.42433
 Alpha  occ. eigenvalues --   -0.42051  -0.41674  -0.41487  -0.41366  -0.41257
 Alpha  occ. eigenvalues --   -0.41159  -0.40508  -0.40043  -0.39689  -0.39589
 Alpha  occ. eigenvalues --   -0.39464  -0.39129  -0.38977  -0.38652  -0.38287
 Alpha  occ. eigenvalues --   -0.38206  -0.37646  -0.37404  -0.36600  -0.36230
 Alpha  occ. eigenvalues --   -0.36060  -0.35650  -0.35142  -0.34577  -0.33953
 Alpha  occ. eigenvalues --   -0.33773  -0.33157  -0.32891  -0.32370  -0.32146
 Alpha  occ. eigenvalues --   -0.31703  -0.30641  -0.29466  -0.28736  -0.28485
 Alpha  occ. eigenvalues --   -0.26651  -0.26542  -0.26517  -0.25137  -0.24874
 Alpha  occ. eigenvalues --   -0.24484  -0.24056  -0.23929  -0.23401  -0.18654
 Alpha virt. eigenvalues --   -0.11364  -0.05934  -0.05033  -0.01197   0.01375
 Alpha virt. eigenvalues --    0.01652   0.01695   0.02360   0.02651   0.03238
 Alpha virt. eigenvalues --    0.03832   0.04619   0.04883   0.05084   0.05257

 Mulliken charges:
               1
     1  O   -0.235591
     2  O   -0.161886
     3  O   -0.258204
     4  O   -0.181132
     5  O   -0.164677
     6  O   -0.252070
     7  N   -0.070652
     8  N   -0.104638
     9  N    0.024717
    10  N   -0.248866
    11  C    0.160625
    12  C    0.237673
    13  C   -0.143413
    14  C   -0.136659
    15  C   -0.128339
    16  C   -0.006098
    17  C   -0.238364
    18  C    0.309843
    19  C   -0.006883
    20  C   -0.018286
    21  C    0.085885
    22  C    0.094419
    23  C   -0.109973
    24  C    0.051592
    25  C    0.017312
    26  C   -0.100654
    27  C   -0.213610
    28  C    0.028393
    29  C    0.184552
    30  C   -0.024744
    31  C   -0.106199
    32  C    0.018760
    33  C   -0.072739
    34  C    0.142681
    35  C    0.042491
    36  C   -0.063770
    37  C    0.092433
    38  C    0.062174
    39  C   -0.182021
    40  C    0.193762
    41  C   -0.080588
    42  C    0.096331
    43  C    0.000828
    44  H   -0.022268
    45  H    0.000617
    46  H   -0.010485
    47  H    0.120072
    48  H    0.085462
    49  H   -0.015495
    50  H   -0.064432
    51  H   -0.077289
    52  H    0.021295
    53  H    0.023167
    54  H    0.062870
    55  H    0.023527
    56  H    0.057072
    57  H    0.039880
    58  H    0.135210
    59  H    0.043041
    60  H    0.114781
    61  H    0.027625
    62  H    0.020037
    63  H    0.032771
    64  H    0.064481
    65  H    0.039242
    66  H    0.043965
    67  H    0.051371
    68  H    0.030847
    69  H   -0.038388
    70  H    0.027593
    71  H    0.061930
    72  H    0.188279
    73  H    0.017852
    74  H    0.021547
    75  H    0.039389
    76  H    0.027237
    77  H    0.196783
    78  H    0.019996
    79  H    0.056004
 Sum of Mulliken charges =  -0.00000

 Dipole moment (field-independent basis, Debye):
    X=             -2.2575    Y=              1.1401    Z=              1.1437  Tot=              2.7756
 Quadrupole moment (field-independent basis, Debye-Ang):
   XX=           -220.6588   YY=           -239.0352   ZZ=           -267.5019
   XY=             -4.7242   XZ=             37.2613   YZ=              5.9832

 Normal termination of Gaussian 16 at Thu Sep 12 22:22:24 2019.
