 Gaussian 16, Revision A.03,
 Gaussian 16:  ES64L-G16RevA.03 25-Dec-2016

 --------------------------
 # td=(NStates=1) B3LYP/SVP
 --------------------------

 --
 TD
 --
 Symbolic Z-matrix:
 Charge =  0 Multiplicity = 1

                         Standard orientation:
 ---------------------------------------------------------------------
 Center     Atomic      Atomic             Coordinates (Angstroms)
 Number     Number       Type             X           Y           Z
 ---------------------------------------------------------------------
      1          8           0        5.414503    0.023952   -3.264867
      2          8           0       -2.807450   -2.857339    3.518505
      3          8           0       -3.282974   -0.675633    3.355901
      4          8           0       -2.069248    7.279366    1.446719
      5          8           0       -0.662971    7.031837   -0.440781
      6          8           0       -1.612541   -4.018005    0.114006
      7          7           0        2.286046    0.989231    0.469058
      8          7           0        4.413036   -0.389901   -1.270771
      9          7           0       -1.820053    0.674998   -0.546952
     10          7           0       -2.453144   -2.022960   -0.601665
     11          6           0        4.699850   -1.053556   -0.020245
     12          6           0        4.453404   -0.174913    1.208891
     13          6           0        2.906746    0.061518    1.320609
     14          6           0        1.929395   -0.549624    2.016332
     15          6           0        0.673982    0.030200    1.801111
     16          6           0        0.962366    1.024445    0.662345
     17          6           0        6.237308   -1.371076   -0.221368
     18          6           0       -0.509151   -0.114867    2.615443
     19          6           0        6.638024   -0.897005   -1.317405
     20          6           0        0.105459    1.981302   -0.004790
     21          6           0       -1.149079    1.837456   -0.483097
     22          6           0        5.449837   -0.302579   -2.159992
     23          6           0       -1.990522    2.952553   -1.018415
     24          6           0        2.127525   -1.620545    3.085283
     25          6           0        6.953636   -1.963104    0.957590
     26          6           0       -3.152956    2.259846   -1.322974
     27          6           0       -1.111657   -1.525225    2.585492
     28          6           0       -3.093044    0.883259   -1.098495
     29          6           0       -1.694301    4.404785   -1.009891
     30          6           0        7.914048   -0.735878   -1.904668
     31          6           0       -2.024512    5.117846    0.427245
     32          6           0       -4.414118    2.760641   -2.050805
     33          6           0       -3.929412   -0.216503   -1.449594
     34          6           0       -2.479223   -1.595253    3.122284
     35          6           0       -3.570028   -1.612576   -1.152526
     36          6           0        9.118885   -0.717570   -1.240963
     37          6           0       -1.474655    6.561598    0.382809
     38          6           0       -4.481986   -2.869514   -1.395425
     39          6           0       -3.652357   -3.992353   -1.047936
     40          6           0       -2.438930   -3.369164   -0.457747
     41          6           0       -5.675146   -2.733038   -2.229076
     42          6           0       -3.960442   -5.378304   -1.017614
     43          6           0       -6.620451   -3.741140   -2.477105
     44          1           0        4.235321   -1.962564    0.091598
     45          1           0        4.872961    0.725280    1.055700
     46          1           0        4.592164   -0.502360    2.094536
     47          1           0        2.652088    1.602225   -0.352725
     48          1           0        3.395152    0.012599   -1.507239
     49          1           0       -0.340075    0.255171    3.630761
     50          1           0       -1.416050    0.484223    2.131442
     51          1           0        0.758322    2.845803   -0.409616
     52          1           0        3.197776   -1.593026    3.517202
     53          1           0        1.471121   -1.509337    3.974210
     54          1           0        1.664035   -2.469317    2.751536
     55          1           0        6.420952   -2.791412    1.423619
     56          1           0        6.993547   -1.205460    1.809047
     57          1           0        8.054673   -2.167160    0.853922
     58          1           0       -1.133934   -2.007286    1.613166
     59          1           0       -0.520694   -2.311217    3.173209
     60          1           0       -1.606671   -0.251081   -0.217462
     61          1           0       -2.140400    4.848971   -1.818116
     62          1           0       -0.777864    4.448844   -0.970719
     63          1           0        8.005557   -0.617249   -3.030759
     64          1           0       -1.497233    4.562128    1.190500
     65          1           0       -3.016318    5.179155    0.675557
     66          1           0       -4.012646    3.822914   -2.266503
     67          1           0       -5.342195    2.818497   -1.398956
     68          1           0       -4.570671    2.279711   -3.016674
     69          1           0       -4.825738    0.057578   -1.890386
     70          1           0        9.090113   -0.598693   -0.181944
     71          1           0       10.005740   -0.791064   -1.850567
     72          1           0       -3.748596   -2.951108    3.634424
     73          1           0       -6.072755   -1.789364   -2.735131
     74          1           0       -4.988320   -5.525149   -0.566578
     75          1           0       -4.014187   -5.848977   -1.993323
     76          1           0       -3.216892   -5.957246   -0.294372
     77          1           0       -1.665256    8.204331    1.430801
     78          1           0       -7.571311   -3.551804   -3.045057
     79          1           0       -6.238432   -4.829531   -2.320474
 ---------------------------------------------------------------------

 SCF Done:  E(RB3LYP) =  -1947.86105015     A.U. after   16 cycles

 Excitation energies and oscillator strengths:

 Excited State   1:      Singlet-A      1.9594 eV  632.77 nm  f=0.4232  <S**2>=0.000
     154 ->156         0.11223
     155 ->156         0.69740
     155 <-156        -0.12444
 This state for optimization and/or second-order correction.
 Total Energy, E(TD-HF/TD-DFT) =  -1947.78904410
 Copying the excited state density for this state as the 1-particle RhoCI density.

 The electronic state is 1-A.
 Alpha  occ. eigenvalues --  -19.19579 -19.16276 -19.14947 -19.11167 -19.10994
 Alpha  occ. eigenvalues --  -19.10254 -14.39762 -14.36411 -14.35793 -14.29053
 Alpha  occ. eigenvalues --  -10.34230 -10.30913 -10.28408 -10.26028 -10.24557
 Alpha  occ. eigenvalues --  -10.24478 -10.24332 -10.24268 -10.23844 -10.23330
 Alpha  occ. eigenvalues --  -10.22223 -10.22124 -10.22086 -10.21156 -10.21112
 Alpha  occ. eigenvalues --  -10.21063 -10.20801 -10.20746 -10.20657 -10.20467
 Alpha  occ. eigenvalues --  -10.20229 -10.20168 -10.20146 -10.19893 -10.19769
 Alpha  occ. eigenvalues --  -10.19755 -10.19728 -10.19682 -10.19485 -10.19173
 Alpha  occ. eigenvalues --  -10.19116 -10.19046 -10.18625  -1.07840  -1.07525
 Alpha  occ. eigenvalues --   -1.06234  -1.02936  -1.00443  -0.99254  -0.98766
 Alpha  occ. eigenvalues --   -0.97596  -0.94419  -0.92608  -0.83484  -0.82707
 Alpha  occ. eigenvalues --   -0.82490  -0.81890  -0.80444  -0.79634  -0.78216
 Alpha  occ. eigenvalues --   -0.77678  -0.76180  -0.75468  -0.74565  -0.72457
 Alpha  occ. eigenvalues --   -0.71684  -0.71121  -0.70151  -0.69526  -0.68336
 Alpha  occ. eigenvalues --   -0.67791  -0.66677  -0.64600  -0.61005  -0.60856
 Alpha  occ. eigenvalues --   -0.60125  -0.59417  -0.58856  -0.58250  -0.57735
 Alpha  occ. eigenvalues --   -0.57120  -0.56603  -0.55451  -0.53711  -0.52919
 Alpha  occ. eigenvalues --   -0.52452  -0.51727  -0.51367  -0.50458  -0.50320
 Alpha  occ. eigenvalues --   -0.49332  -0.49249  -0.48572  -0.48091  -0.47705
 Alpha  occ. eigenvalues --   -0.47284  -0.46992  -0.46601  -0.46358  -0.45555
 Alpha  occ. eigenvalues --   -0.45538  -0.45028  -0.44662  -0.44471  -0.44119
 Alpha  occ. eigenvalues --   -0.44057  -0.43427  -0.43296  -0.43042  -0.42835
 Alpha  occ. eigenvalues --   -0.42478  -0.42383  -0.42273  -0.42185  -0.42035
 Alpha  occ. eigenvalues --   -0.41430  -0.41204  -0.40626  -0.40337  -0.40119
 Alpha  occ. eigenvalues --   -0.40024  -0.39914  -0.39585  -0.39357  -0.39209
 Alpha  occ. eigenvalues --   -0.38990  -0.37756  -0.37599  -0.37533  -0.37270
 Alpha  occ. eigenvalues --   -0.37170  -0.36694  -0.35645  -0.35271  -0.34812
 Alpha  occ. eigenvalues --   -0.34278  -0.33695  -0.33438  -0.32126  -0.32028
 Alpha  occ. eigenvalues --   -0.30660  -0.30471  -0.29766  -0.28742  -0.27145
 Alpha  occ. eigenvalues --   -0.26984  -0.26610  -0.26477  -0.26297  -0.25704
 Alpha  occ. eigenvalues --   -0.24309  -0.23829  -0.23596  -0.21586  -0.18779
 Alpha virt. eigenvalues --   -0.11206  -0.07184  -0.04649  -0.02453  -0.01181
 Alpha virt. eigenvalues --    0.00342   0.00597   0.00894   0.02647   0.03329
 Alpha virt. eigenvalues --    0.03782   0.04609   0.04775   0.05068   0.06066

 Mulliken charges:
               1
     1  O   -0.136911
     2  O   -0.185250
     3  O   -0.261240
     4  O   -0.243296
     5  O   -0.245913
     6  O   -0.185365
     7  N   -0.102333
     8  N   -0.264064
     9  N   -0.049357
    10  N   -0.222204
    11  C    0.136547
    12  C    0.441970
    13  C   -0.181124
    14  C   -0.127043
    15  C   -0.064626
    16  C   -0.016263
    17  C   -0.172500
    18  C    0.062911
    19  C   -0.026046
    20  C   -0.151922
    21  C    0.117626
    22  C    0.142134
    23  C   -0.144769
    24  C    0.132363
    25  C    0.072213
    26  C   -0.160460
    27  C   -0.026046
    28  C    0.096981
    29  C    0.343675
    30  C   -0.081372
    31  C    0.025675
    32  C    0.067792
    33  C   -0.034212
    34  C    0.132094
    35  C    0.063665
    36  C   -0.003798
    37  C    0.179330
    38  C    0.040440
    39  C   -0.164907
    40  C    0.113925
    41  C   -0.072662
    42  C    0.040643
    43  C   -0.085688
    44  H   -0.010475
    45  H   -0.057569
    46  H   -0.085200
    47  H    0.150895
    48  H    0.148437
    49  H    0.024382
    50  H    0.036307
    51  H    0.013829
    52  H    0.029641
    53  H    0.001355
    54  H    0.009341
    55  H    0.015941
    56  H    0.027531
    57  H    0.030691
    58  H    0.063114
    59  H    0.030705
    60  H    0.129080
    61  H    0.000741
    62  H   -0.103792
    63  H    0.024280
    64  H    0.047526
    65  H    0.018972
    66  H    0.004488
    67  H    0.048106
    68  H    0.039331
    69  H   -0.060023
    70  H    0.008833
    71  H    0.024627
    72  H    0.172791
    73  H    0.022942
    74  H    0.036266
    75  H    0.032983
    76  H    0.048599
    77  H    0.201783
    78  H    0.038405
    79  H    0.034526
 Sum of Mulliken charges =  -0.00000

 Dipole moment (field-independent basis, Debye):
    X=              0.3063    Y=              2.9127    Z=              2.4522  Tot=              3.8197
 Quadrupole moment (field-independent basis, Debye-Ang):
   XX=           -232.5692   YY=           -243.7746   ZZ=           -262.3473
   XY=             -6.3840   XZ=             34.2883   YZ=              2.8836

 Normal termination of Gaussian 16 at Mon Sep 30 02:57:00 2019.
