 Gaussian 16, Revision A.03,
 Gaussian 16:  ES64L-G16RevA.03 25-Dec-2016

 --------------------------
 # td=(NStates=1) B3LYP/SVP
 --------------------------

 --
 TD
 --
 Symbolic Z-matrix:
 Charge =  0 Multiplicity = 1

                         Standard orientation:
 ---------------------------------------------------------------------
 Center     Atomic      Atomic             Coordinates (Angstroms)
 Number     Number       Type             X           Y           Z
 ---------------------------------------------------------------------
      1          8           0       -3.322522   -1.040937   -2.970198
      2          8           0        3.114891    2.656571    3.417540
      3          8           0        3.938470    0.728228    4.336587
      4          8           0        7.645821   -1.424477   -0.922123
      5          8           0        6.600634   -2.718316   -2.449862
      6          8           0       -2.602089    1.535715    1.760040
      7          7           0       -0.214877   -2.489141    0.617964
      8          7           0       -2.708570   -1.099677   -0.741163
      9          7           0        1.077339    0.152754   -0.796922
     10          7           0       -1.101152    1.473911   -0.021609
     11          6           0       -3.331179   -1.400331    0.427004
     12          6           0       -2.546856   -2.478879    1.336221
     13          6           0       -1.130851   -2.237601    1.532269
     14          6           0       -0.388647   -1.628289    2.745852
     15          6           0        0.868610   -1.552035    2.377636
     16          6           0        1.042326   -1.980020    1.002297
     17          6           0       -4.755380   -1.900282    0.057426
     18          6           0        2.012028   -0.984665    3.180259
     19          6           0       -4.798107   -1.909696   -1.260342
     20          6           0        2.064234   -1.823746    0.073266
     21          6           0        2.088109   -0.747582   -0.860532
     22          6           0       -3.528999   -1.277819   -1.847526
     23          6           0        2.993880   -0.314734   -1.866917
     24          6           0       -1.203347   -1.122128    3.818945
     25          6           0       -5.821567   -2.284913    1.005526
     26          6           0        2.524579    0.873806   -2.375896
     27          6           0        2.001011    0.607934    3.003605
     28          6           0        1.269128    1.165519   -1.642007
     29          6           0        4.195870   -1.142734   -2.298189
     30          6           0       -5.854961   -2.261847   -2.232956
     31          6           0        5.415483   -0.793422   -1.557258
     32          6           0        3.030165    1.794909   -3.543874
     33          6           0        0.472033    2.263400   -1.719771
     34          6           0        3.206649    1.257875    3.654382
     35          6           0       -0.688712    2.404963   -0.842246
     36          6           0       -6.876052   -3.107130   -1.959086
     37          6           0        6.607273   -1.778644   -1.721281
     38          6           0       -1.516849    3.654008   -0.754300
     39          6           0       -2.362799    3.420381    0.266806
     40          6           0       -2.066153    2.130156    0.772872
     41          6           0       -1.299592    4.827215   -1.542720
     42          6           0       -3.434821    4.273528    0.946883
     43          6           0       -2.163552    5.858470   -1.668031
     44          1           0       -3.455960   -0.570953    1.087354
     45          1           0       -2.306412   -3.437281    0.568245
     46          1           0       -3.309441   -2.605045    2.244713
     47          1           0       -0.377036   -3.018145   -0.211274
     48          1           0       -2.087167   -0.335932   -0.895618
     49          1           0        1.971165   -1.342580    4.146584
     50          1           0        2.947093   -1.331189    2.874957
     51          1           0        2.916119   -2.514974   -0.055722
     52          1           0       -1.974113   -2.021894    4.208820
     53          1           0       -0.750005   -0.670185    4.649246
     54          1           0       -1.552620   -0.310237    3.333617
     55          1           0       -5.589247   -1.756532    1.988189
     56          1           0       -5.966947   -3.451945    1.190348
     57          1           0       -6.670014   -1.864856    0.531832
     58          1           0        2.143784    0.912720    1.915546
     59          1           0        1.151493    0.987504    3.319731
     60          1           0        0.390543    0.308442   -0.067812
     61          1           0        4.528338   -0.864671   -3.357235
     62          1           0        4.034070   -2.237317   -2.163552
     63          1           0       -5.907933   -2.018975   -3.270796
     64          1           0        5.002658   -0.491250   -0.301590
     65          1           0        5.814110    0.198601   -1.937647
     66          1           0        3.732678    1.180557   -4.202265
     67          1           0        3.369029    2.860488   -3.366022
     68          1           0        2.229603    1.953501   -4.266025
     69          1           0        0.663902    3.035779   -2.384007
     70          1           0       -7.142212   -3.574587   -0.912700
     71          1           0       -7.474815   -3.357757   -2.772924
     72          1           0        3.746412    3.051927    3.985048
     73          1           0       -0.338470    4.625297   -1.998313
     74          1           0       -4.358962    4.152784    0.136490
     75          1           0       -3.946564    3.749277    1.740386
     76          1           0       -3.050356    5.415266    0.966528
     77          1           0        8.333330   -2.108618   -0.929899
     78          1           0       -2.047245    6.626137   -2.388192
     79          1           0       -3.177348    5.833448   -1.239696
 ---------------------------------------------------------------------

 SCF Done:  E(RB3LYP) =  -1947.83848332     A.U. after   17 cycles

 Excitation energies and oscillator strengths:

 Excited State   1:      Singlet-A      0.7782 eV 1593.16 nm  f=0.0146  <S**2>=0.000
     155 ->156         0.70380
 This state for optimization and/or second-order correction.
 Total Energy, E(TD-HF/TD-DFT) =  -1947.80988394
 Copying the excited state density for this state as the 1-particle RhoCI density.

 The electronic state is 1-A.
 Alpha  occ. eigenvalues --  -19.18957 -19.16230 -19.14249 -19.13805 -19.11871
 Alpha  occ. eigenvalues --  -19.09131 -14.37707 -14.36666 -14.32124 -14.30747
 Alpha  occ. eigenvalues --  -10.33421 -10.31126 -10.27751 -10.26247 -10.25187
 Alpha  occ. eigenvalues --  -10.24900 -10.24716 -10.23462 -10.22925 -10.22440
 Alpha  occ. eigenvalues --  -10.22255 -10.21872 -10.21723 -10.21676 -10.21544
 Alpha  occ. eigenvalues --  -10.21505 -10.21462 -10.20905 -10.20853 -10.20822
 Alpha  occ. eigenvalues --  -10.20433 -10.20058 -10.19931 -10.19831 -10.19497
 Alpha  occ. eigenvalues --  -10.18997 -10.18572 -10.18214 -10.17778 -10.17623
 Alpha  occ. eigenvalues --  -10.17175 -10.17001 -10.16625  -1.10845  -1.10734
 Alpha  occ. eigenvalues --   -1.03806  -1.02585  -1.02029  -1.01334  -1.00775
 Alpha  occ. eigenvalues --   -0.97604  -0.94172  -0.94041  -0.83903  -0.82432
 Alpha  occ. eigenvalues --   -0.82004  -0.81119  -0.80893  -0.78723  -0.78377
 Alpha  occ. eigenvalues --   -0.76790  -0.76287  -0.75542  -0.74161  -0.72482
 Alpha  occ. eigenvalues --   -0.71128  -0.70475  -0.69944  -0.68768  -0.67845
 Alpha  occ. eigenvalues --   -0.67314  -0.66217  -0.64008  -0.61549  -0.60801
 Alpha  occ. eigenvalues --   -0.59431  -0.58727  -0.58586  -0.57813  -0.57379
 Alpha  occ. eigenvalues --   -0.56236  -0.55973  -0.55819  -0.53646  -0.53107
 Alpha  occ. eigenvalues --   -0.52504  -0.51487  -0.51078  -0.50188  -0.49829
 Alpha  occ. eigenvalues --   -0.49620  -0.48913  -0.48683  -0.48494  -0.47835
 Alpha  occ. eigenvalues --   -0.47470  -0.47047  -0.46610  -0.46206  -0.45948
 Alpha  occ. eigenvalues --   -0.45749  -0.45013  -0.44953  -0.44462  -0.44115
 Alpha  occ. eigenvalues --   -0.43630  -0.43206  -0.42842  -0.42372  -0.42046
 Alpha  occ. eigenvalues --   -0.41817  -0.41706  -0.41637  -0.41508  -0.41210
 Alpha  occ. eigenvalues --   -0.41061  -0.40694  -0.40368  -0.39997  -0.39887
 Alpha  occ. eigenvalues --   -0.39244  -0.39000  -0.38893  -0.38701  -0.38476
 Alpha  occ. eigenvalues --   -0.38293  -0.38163  -0.37911  -0.36732  -0.36424
 Alpha  occ. eigenvalues --   -0.35839  -0.35486  -0.35384  -0.34960  -0.34208
 Alpha  occ. eigenvalues --   -0.33939  -0.33483  -0.33432  -0.32770  -0.32113
 Alpha  occ. eigenvalues --   -0.30483  -0.30211  -0.29791  -0.29405  -0.28867
 Alpha  occ. eigenvalues --   -0.28571  -0.27457  -0.25996  -0.25009  -0.24338
 Alpha  occ. eigenvalues --   -0.24095  -0.24026  -0.22872  -0.21693  -0.17224
 Alpha virt. eigenvalues --   -0.12174  -0.07747  -0.03326  -0.01853  -0.01400
 Alpha virt. eigenvalues --    0.00302   0.01901   0.02485   0.03229   0.04091
 Alpha virt. eigenvalues --    0.04390   0.04464   0.04857   0.05222   0.05684

 Mulliken charges:
               1
     1  O   -0.164688
     2  O   -0.233071
     3  O   -0.124652
     4  O   -0.187717
     5  O   -0.189603
     6  O   -0.243520
     7  N   -0.005863
     8  N   -0.140770
     9  N   -0.015009
    10  N   -0.274834
    11  C    0.109986
    12  C    0.060946
    13  C   -0.081906
    14  C   -0.120097
    15  C   -0.115890
    16  C    0.030099
    17  C   -0.180609
    18  C    0.218136
    19  C   -0.040094
    20  C   -0.123567
    21  C    0.037583
    22  C    0.087996
    23  C   -0.077856
    24  C    0.147016
    25  C    0.053004
    26  C   -0.107210
    27  C    0.015555
    28  C    0.097775
    29  C    0.142473
    30  C   -0.009575
    31  C   -0.146803
    32  C    0.070028
    33  C   -0.083383
    34  C    0.118938
    35  C    0.067410
    36  C   -0.057136
    37  C    0.156075
    38  C    0.009700
    39  C   -0.179425
    40  C    0.156451
    41  C    0.024141
    42  C    0.058392
    43  C   -0.002999
    44  H    0.017109
    45  H   -0.010938
    46  H    0.022629
    47  H    0.106984
    48  H    0.122346
    49  H   -0.017734
    50  H   -0.040760
    51  H   -0.009211
    52  H    0.035518
    53  H   -0.029743
    54  H    0.006945
    55  H    0.026926
    56  H    0.062321
    57  H    0.031237
    58  H    0.035311
    59  H   -0.004954
    60  H    0.165151
    61  H    0.019653
    62  H    0.034686
    63  H   -0.007724
    64  H    0.069666
    65  H    0.048550
    66  H    0.023534
    67  H    0.049022
    68  H    0.021520
    69  H   -0.059771
    70  H    0.027554
    71  H   -0.000073
    72  H    0.149322
    73  H   -0.023606
    74  H    0.041407
    75  H    0.025273
    76  H    0.068547
    77  H    0.184138
    78  H    0.020548
    79  H    0.033188
 Sum of Mulliken charges =  -0.00000

 Dipole moment (field-independent basis, Debye):
    X=              2.7014    Y=              3.1246    Z=             -0.6125  Tot=              4.1757
 Quadrupole moment (field-independent basis, Debye-Ang):
   XX=           -233.7704   YY=           -234.9758   ZZ=           -263.8981
   XY=              3.4454   XZ=            -13.8977   YZ=            -12.0985

 Normal termination of Gaussian 16 at Tue Jul 30 14:44:31 2019.
