 Gaussian 16, Revision A.03,
 Gaussian 16:  ES64L-G16RevA.03 25-Dec-2016

 --------------------------
 # td=(NStates=1) B3LYP/SVP
 --------------------------

 --
 TD
 --
 Symbolic Z-matrix:
 Charge =  0 Multiplicity = 1

                         Standard orientation:
 ---------------------------------------------------------------------
 Center     Atomic      Atomic             Coordinates (Angstroms)
 Number     Number       Type             X           Y           Z
 ---------------------------------------------------------------------
      1          8           0       -3.291054   -1.502004   -2.750517
      2          8           0        3.274649    3.140731    2.950881
      3          8           0        3.897995    1.522927    4.276612
      4          8           0        7.610169   -1.747172   -0.508300
      5          8           0        6.691771   -3.147340   -2.015734
      6          8           0       -2.612369    1.835496    1.323933
      7          7           0       -0.354328   -2.181472    1.023258
      8          7           0       -2.919053   -1.158907   -0.582163
      9          7           0        1.168559    0.021478   -0.733120
     10          7           0       -0.973781    1.413632   -0.292791
     11          6           0       -3.579958   -1.193926    0.735676
     12          6           0       -2.769747   -2.135500    1.771889
     13          6           0       -1.298667   -1.768883    1.921086
     14          6           0       -0.580007   -1.050735    2.936773
     15          6           0        0.780212   -1.036567    2.582835
     16          6           0        0.901916   -1.710173    1.387226
     17          6           0       -4.830928   -1.734747    0.393664
     18          6           0        1.833218   -0.292056    3.267209
     19          6           0       -4.917863   -2.035220   -0.925402
     20          6           0        2.017023   -1.867558    0.406734
     21          6           0        2.077974   -1.029452   -0.649219
     22          6           0       -3.658644   -1.562167   -1.583385
     23          6           0        2.994581   -0.881983   -1.761397
     24          6           0       -1.228150   -0.179010    3.970618
     25          6           0       -6.114333   -1.950972    1.269059
     26          6           0        2.544521    0.178789   -2.571251
     27          6           0        1.964763    1.277549    2.750632
     28          6           0        1.380039    0.816852   -1.816692
     29          6           0        4.205828   -1.928998   -1.949490
     30          6           0       -5.996589   -2.645935   -1.794635
     31          6           0        5.322835   -1.388898   -1.128047
     32          6           0        3.235446    0.759083   -3.774663
     33          6           0        0.621260    1.847740   -2.195679
     34          6           0        3.125666    2.017881    3.502809
     35          6           0       -0.601063    2.148450   -1.413608
     36          6           0       -7.174626   -3.305801   -1.476425
     37          6           0        6.552402   -2.179969   -1.263532
     38          6           0       -1.244024    3.475991   -1.468170
     39          6           0       -2.083105    3.502678   -0.366558
     40          6           0       -1.924594    2.190019    0.310910
     41          6           0       -0.944947    4.609813   -2.473022
     42          6           0       -3.016249    4.563296    0.111585
     43          6           0       -1.761429    5.636536   -2.705226
     44          1           0       -3.468821   -0.095800    1.273524
     45          1           0       -2.829429   -3.117157    1.530058
     46          1           0       -3.109127   -2.232764    2.719330
     47          1           0       -0.804923   -2.647576    0.270884
     48          1           0       -2.210297   -0.532429   -0.915535
     49          1           0        1.778587   -0.457722    4.203063
     50          1           0        2.709207   -0.633181    2.898601
     51          1           0        2.609990   -2.805656    0.540110
     52          1           0       -2.032295   -0.858228    4.366569
     53          1           0       -0.512503    0.114302    4.605526
     54          1           0       -1.668040    0.592562    3.231731
     55          1           0       -6.116922   -0.939599    1.974090
     56          1           0       -6.180773   -2.914964    1.876094
     57          1           0       -6.915559   -1.964858    0.730331
     58          1           0        2.081319    1.266957    1.775640
     59          1           0        1.131792    1.715170    2.924798
     60          1           0        0.251267    0.238278   -0.174548
     61          1           0        4.421059   -1.908552   -3.131293
     62          1           0        3.693414   -3.023583   -1.659609
     63          1           0       -5.639879   -2.574535   -2.823610
     64          1           0        4.955751   -1.378557    0.020706
     65          1           0        5.577197   -0.271056   -1.525962
     66          1           0        4.008895    0.088848   -4.066054
     67          1           0        3.798116    1.765958   -3.681381
     68          1           0        2.706756    0.707015   -4.801056
     69          1           0        0.975091    2.312357   -2.916879
     70          1           0       -7.376841   -3.445506   -0.287848
     71          1           0       -7.796197   -3.850891   -2.158818
     72          1           0        4.113415    3.645979    3.278961
     73          1           0        0.252698    4.555472   -2.875761
     74          1           0       -4.192615    4.636820   -0.309570
     75          1           0       -3.340260    4.363387    1.317090
     76          1           0       -2.793176    5.709678   -0.024893
     77          1           0        8.280567   -2.502482   -0.594549
     78          1           0       -1.332832    6.345693   -3.398197
     79          1           0       -3.040275    5.735639   -2.326655
 ---------------------------------------------------------------------

 SCF Done:  E(RB3LYP) =  -1947.73141800     A.U. after   18 cycles

 Excitation energies and oscillator strengths:

 Excited State   1:      Singlet-A      0.8532 eV 1453.12 nm  f=0.0009  <S**2>=0.000
     155 ->156         0.70490
 This state for optimization and/or second-order correction.
 Total Energy, E(TD-HF/TD-DFT) =  -1947.70006244
 Copying the excited state density for this state as the 1-particle RhoCI density.

 The electronic state is 1-A.
 Alpha  occ. eigenvalues --  -19.19379 -19.19147 -19.13647 -19.12535 -19.11300
 Alpha  occ. eigenvalues --  -19.07502 -14.36886 -14.35992 -14.32880 -14.32426
 Alpha  occ. eigenvalues --  -10.33146 -10.31068 -10.28972 -10.27045 -10.26037
 Alpha  occ. eigenvalues --  -10.25549 -10.25225 -10.24654 -10.24434 -10.23775
 Alpha  occ. eigenvalues --  -10.23742 -10.23716 -10.23500 -10.22951 -10.22646
 Alpha  occ. eigenvalues --  -10.22621 -10.22497 -10.22300 -10.22258 -10.20636
 Alpha  occ. eigenvalues --  -10.20259 -10.19856 -10.19841 -10.19765 -10.19721
 Alpha  occ. eigenvalues --  -10.19463 -10.18792 -10.18611 -10.17504 -10.16551
 Alpha  occ. eigenvalues --  -10.16253 -10.16103 -10.15830  -1.12182  -1.09548
 Alpha  occ. eigenvalues --   -1.01444  -1.01197  -1.00501  -1.00142  -0.98999
 Alpha  occ. eigenvalues --   -0.96243  -0.93608  -0.92957  -0.83571  -0.82585
 Alpha  occ. eigenvalues --   -0.81194  -0.80652  -0.80489  -0.79251  -0.78330
 Alpha  occ. eigenvalues --   -0.76640  -0.76000  -0.75838  -0.73891  -0.72723
 Alpha  occ. eigenvalues --   -0.71125  -0.70476  -0.70013  -0.68384  -0.68213
 Alpha  occ. eigenvalues --   -0.67196  -0.66047  -0.64423  -0.62266  -0.60850
 Alpha  occ. eigenvalues --   -0.59973  -0.59237  -0.58925  -0.57250  -0.56021
 Alpha  occ. eigenvalues --   -0.55819  -0.55540  -0.54895  -0.53384  -0.52786
 Alpha  occ. eigenvalues --   -0.51967  -0.51413  -0.50910  -0.50215  -0.49644
 Alpha  occ. eigenvalues --   -0.49484  -0.48888  -0.48678  -0.48553  -0.48193
 Alpha  occ. eigenvalues --   -0.47630  -0.46866  -0.46508  -0.46117  -0.45774
 Alpha  occ. eigenvalues --   -0.45545  -0.45172  -0.44712  -0.44071  -0.43882
 Alpha  occ. eigenvalues --   -0.43125  -0.42721  -0.42558  -0.42293  -0.41983
 Alpha  occ. eigenvalues --   -0.41663  -0.41514  -0.41359  -0.41150  -0.41025
 Alpha  occ. eigenvalues --   -0.40829  -0.40496  -0.40426  -0.40036  -0.39348
 Alpha  occ. eigenvalues --   -0.38953  -0.38755  -0.38328  -0.38213  -0.37831
 Alpha  occ. eigenvalues --   -0.37602  -0.37384  -0.36994  -0.36294  -0.36025
 Alpha  occ. eigenvalues --   -0.35922  -0.35677  -0.35156  -0.34653  -0.34237
 Alpha  occ. eigenvalues --   -0.33816  -0.33140  -0.32873  -0.32602  -0.32158
 Alpha  occ. eigenvalues --   -0.31799  -0.30172  -0.29887  -0.29622  -0.29115
 Alpha  occ. eigenvalues --   -0.27475  -0.27227  -0.26696  -0.24802  -0.24327
 Alpha  occ. eigenvalues --   -0.23441  -0.22911  -0.22712  -0.22310  -0.18678
 Alpha virt. eigenvalues --   -0.13140  -0.07755  -0.04710  -0.02606  -0.02274
 Alpha virt. eigenvalues --    0.01651   0.01760   0.01947   0.02237   0.02640
 Alpha virt. eigenvalues --    0.02962   0.03423   0.04023   0.04249   0.04603

 Mulliken charges:
               1
     1  O   -0.261813
     2  O   -0.136783
     3  O   -0.229672
     4  O   -0.216362
     5  O   -0.244684
     6  O   -0.255885
     7  N   -0.046013
     8  N   -0.146418
     9  N   -0.134804
    10  N   -0.311896
    11  C    0.024086
    12  C    0.323909
    13  C   -0.187921
    14  C   -0.198632
    15  C   -0.116599
    16  C   -0.028240
    17  C   -0.145169
    18  C    0.260793
    19  C   -0.087401
    20  C   -0.144455
    21  C    0.186042
    22  C    0.082947
    23  C   -0.086669
    24  C    0.136761
    25  C    0.108923
    26  C   -0.108639
    27  C    0.099498
    28  C    0.098434
    29  C    0.014344
    30  C    0.019176
    31  C   -0.042300
    32  C    0.052644
    33  C    0.033762
    34  C    0.098557
    35  C    0.149117
    36  C   -0.057104
    37  C    0.155408
    38  C   -0.016461
    39  C   -0.083280
    40  C    0.193201
    41  C   -0.041239
    42  C   -0.102817
    43  C   -0.058132
    44  H    0.106989
    45  H   -0.066634
    46  H   -0.048049
    47  H    0.101319
    48  H    0.120820
    49  H   -0.050425
    50  H   -0.058208
    51  H    0.028734
    52  H    0.008284
    53  H   -0.024135
    54  H    0.070667
    55  H    0.037183
    56  H    0.039724
    57  H   -0.022534
    58  H   -0.027526
    59  H   -0.031813
    60  H    0.227728
    61  H    0.055781
    62  H    0.072731
    63  H    0.007116
    64  H    0.085832
    65  H    0.079663
    66  H   -0.017005
    67  H    0.053394
    68  H    0.042437
    69  H   -0.157488
    70  H    0.029806
    71  H    0.026366
    72  H    0.204207
    73  H    0.060037
    74  H    0.057407
    75  H    0.061877
    76  H    0.053997
    77  H    0.205093
    78  H    0.029087
    79  H    0.089321
 Sum of Mulliken charges =  -0.00000

 Dipole moment (field-independent basis, Debye):
    X=              3.5385    Y=              3.7774    Z=             -1.3093  Tot=              5.3389
 Quadrupole moment (field-independent basis, Debye-Ang):
   XX=           -240.3149   YY=           -230.6584   ZZ=           -270.1877
   XY=              7.2142   XZ=            -19.9393   YZ=            -16.9416

 Normal termination of Gaussian 16 at Sun Jul 28 05:27:16 2019.
