 Gaussian 16, Revision A.03,
 Gaussian 16:  ES64L-G16RevA.03 25-Dec-2016

 --------------------------
 # td=(NStates=1) B3LYP/SVP
 --------------------------

 --
 TD
 --
 Symbolic Z-matrix:
 Charge =  0 Multiplicity = 1

                         Standard orientation:
 ---------------------------------------------------------------------
 Center     Atomic      Atomic             Coordinates (Angstroms)
 Number     Number       Type             X           Y           Z
 ---------------------------------------------------------------------
      1          8           0       -3.123559   -1.023290   -3.053095
      2          8           0        2.944492    2.881554    3.475265
      3          8           0        3.571596    1.129461    4.571372
      4          8           0        7.786751   -1.374411   -0.792121
      5          8           0        6.974304   -2.475615   -2.584361
      6          8           0       -2.532199    1.483029    1.719391
      7          7           0       -0.296572   -2.447069    0.682346
      8          7           0       -2.677779   -1.120208   -0.742290
      9          7           0        1.162335    0.145922   -0.630392
     10          7           0       -1.057860    1.444520    0.019163
     11          6           0       -3.390890   -1.403785    0.473435
     12          6           0       -2.627480   -2.566635    1.364035
     13          6           0       -1.215332   -2.249149    1.628870
     14          6           0       -0.582594   -1.608058    2.773670
     15          6           0        0.675079   -1.482745    2.466827
     16          6           0        0.879130   -1.901656    1.112336
     17          6           0       -4.757910   -1.869398    0.007601
     18          6           0        1.850164   -0.688647    3.259780
     19          6           0       -4.784409   -1.895359   -1.341332
     20          6           0        2.139114   -1.911511    0.289914
     21          6           0        2.179373   -0.859583   -0.558376
     22          6           0       -3.457689   -1.288672   -1.876039
     23          6           0        3.074049   -0.576170   -1.729607
     24          6           0       -1.460719   -0.948035    3.910059
     25          6           0       -5.685799   -2.304607    1.054775
     26          6           0        2.607127    0.582817   -2.447896
     27          6           0        1.903038    0.769319    2.825724
     28          6           0        1.381315    1.046316   -1.770856
     29          6           0        4.355514   -1.308080   -2.237818
     30          6           0       -5.956839   -2.073646   -2.177625
     31          6           0        5.506687   -1.100871   -1.103249
     32          6           0        3.130602    1.483505   -3.546638
     33          6           0        0.370168    2.031441   -1.922227
     34          6           0        2.906591    1.518694    3.697570
     35          6           0       -0.675984    2.353591   -0.955844
     36          6           0       -6.977771   -2.933480   -2.105005
     37          6           0        6.746061   -1.770311   -1.573610
     38          6           0       -1.535828    3.578656   -1.018717
     39          6           0       -2.328339    3.268281    0.063601
     40          6           0       -2.059297    2.016013    0.665612
     41          6           0       -1.312864    4.632917   -1.879192
     42          6           0       -3.488258    4.193355    0.548763
     43          6           0       -1.910460    5.824014   -1.977498
     44          1           0       -3.229132   -0.468277    1.183331
     45          1           0       -2.697230   -3.509485    0.876368
     46          1           0       -3.272655   -2.618626    2.343678
     47          1           0       -0.449012   -2.931674   -0.148062
     48          1           0       -1.984760   -0.187997   -0.790354
     49          1           0        1.522745   -0.975410    4.114290
     50          1           0        2.915523   -0.939569    2.715930
     51          1           0        2.819327   -2.830238    0.242131
     52          1           0       -2.154987   -1.513418    4.242393
     53          1           0       -0.741582   -0.822416    4.766738
     54          1           0       -1.982670    0.097225    3.727740
     55          1           0       -5.661324   -1.706415    1.990431
     56          1           0       -5.726523   -3.453917    1.179600
     57          1           0       -6.724377   -2.216002    0.736192
     58          1           0        2.302721    1.064252    1.809039
     59          1           0        0.987117    1.226651    3.120248
     60          1           0        0.389176    0.455527    0.049765
     61          1           0        4.843058   -1.033511   -3.178563
     62          1           0        3.984427   -2.376432   -2.366386
     63          1           0       -5.555760   -1.714497   -3.219068
     64          1           0        5.197062   -1.361090   -0.065194
     65          1           0        5.696356   -0.036405   -1.101680
     66          1           0        3.741611    0.838284   -4.003272
     67          1           0        3.594548    2.440226   -3.030418
     68          1           0        2.401517    1.892235   -4.131725
     69          1           0        0.669502    2.642006   -2.702361
     70          1           0       -7.070695   -3.273675   -1.079501
     71          1           0       -7.768310   -2.950958   -2.975466
     72          1           0        3.444635    3.309529    4.121087
     73          1           0       -0.618111    4.516285   -2.781382
     74          1           0       -4.186887    4.283491   -0.229062
     75          1           0       -3.757592    3.701480    1.576190
     76          1           0       -2.944277    5.203699    0.716424
     77          1           0        8.633916   -1.621838   -1.387762
     78          1           0       -1.777839    6.596851   -2.698538
     79          1           0       -2.694778    5.794987   -1.142426
 ---------------------------------------------------------------------

 SCF Done:  E(RB3LYP) =  -1947.77122745     A.U. after   28 cycles

 Excitation energies and oscillator strengths:

 Excited State   1:      Singlet-A      0.5268 eV 2353.58 nm  f=0.0008  <S**2>=0.000
     155 ->156         0.70445
 This state for optimization and/or second-order correction.
 Total Energy, E(TD-HF/TD-DFT) =  -1947.75186827
 Copying the excited state density for this state as the 1-particle RhoCI density.

 The electronic state is 1-A.
 Alpha  occ. eigenvalues --  -19.19674 -19.15241 -19.14310 -19.11855 -19.11762
 Alpha  occ. eigenvalues --  -19.08401 -14.37361 -14.36797 -14.33008 -14.31445
 Alpha  occ. eigenvalues --  -10.33849 -10.30540 -10.27687 -10.27315 -10.26907
 Alpha  occ. eigenvalues --  -10.26889 -10.26754 -10.25099 -10.24028 -10.23817
 Alpha  occ. eigenvalues --  -10.23506 -10.23501 -10.22169 -10.22111 -10.21760
 Alpha  occ. eigenvalues --  -10.21683 -10.21672 -10.21451 -10.21264 -10.20535
 Alpha  occ. eigenvalues --  -10.20434 -10.20366 -10.19986 -10.19873 -10.19761
 Alpha  occ. eigenvalues --  -10.19603 -10.19580 -10.18689 -10.18518 -10.18497
 Alpha  occ. eigenvalues --  -10.17255 -10.16926 -10.16692  -1.09699  -1.09440
 Alpha  occ. eigenvalues --   -1.01973  -1.00042  -0.99555  -0.98706  -0.98425
 Alpha  occ. eigenvalues --   -0.95848  -0.94060  -0.90889  -0.83376  -0.82774
 Alpha  occ. eigenvalues --   -0.82449  -0.80894  -0.80220  -0.79263  -0.77913
 Alpha  occ. eigenvalues --   -0.77290  -0.76792  -0.75847  -0.74528  -0.73552
 Alpha  occ. eigenvalues --   -0.71399  -0.69769  -0.69334  -0.69228  -0.67685
 Alpha  occ. eigenvalues --   -0.66995  -0.65903  -0.63571  -0.62147  -0.60048
 Alpha  occ. eigenvalues --   -0.59804  -0.59254  -0.58468  -0.57291  -0.57014
 Alpha  occ. eigenvalues --   -0.56792  -0.55465  -0.54256  -0.53140  -0.53037
 Alpha  occ. eigenvalues --   -0.51972  -0.51342  -0.50674  -0.50311  -0.50139
 Alpha  occ. eigenvalues --   -0.49524  -0.49337  -0.48736  -0.48587  -0.47690
 Alpha  occ. eigenvalues --   -0.47617  -0.46781  -0.46659  -0.46426  -0.46115
 Alpha  occ. eigenvalues --   -0.45741  -0.45267  -0.45034  -0.44417  -0.43943
 Alpha  occ. eigenvalues --   -0.43776  -0.43206  -0.42801  -0.42579  -0.42299
 Alpha  occ. eigenvalues --   -0.41904  -0.41742  -0.41454  -0.41085  -0.40901
 Alpha  occ. eigenvalues --   -0.40497  -0.40326  -0.40037  -0.39860  -0.39549
 Alpha  occ. eigenvalues --   -0.39135  -0.38756  -0.38667  -0.38368  -0.37831
 Alpha  occ. eigenvalues --   -0.37336  -0.37023  -0.36723  -0.36601  -0.36424
 Alpha  occ. eigenvalues --   -0.35799  -0.35743  -0.35332  -0.34573  -0.33767
 Alpha  occ. eigenvalues --   -0.33352  -0.32980  -0.32747  -0.31601  -0.31387
 Alpha  occ. eigenvalues --   -0.30625  -0.30367  -0.29665  -0.29585  -0.29264
 Alpha  occ. eigenvalues --   -0.27122  -0.26647  -0.26410  -0.24897  -0.24504
 Alpha  occ. eigenvalues --   -0.23885  -0.23421  -0.22739  -0.22600  -0.18153
 Alpha virt. eigenvalues --   -0.13776  -0.08787  -0.04075  -0.03102  -0.02823
 Alpha virt. eigenvalues --    0.01359   0.01898   0.02092   0.02442   0.02521
 Alpha virt. eigenvalues --    0.03166   0.04105   0.04342   0.04715   0.05478

 Mulliken charges:
               1
     1  O   -0.272135
     2  O   -0.205186
     3  O   -0.175692
     4  O   -0.235281
     5  O   -0.265878
     6  O   -0.251993
     7  N    0.042780
     8  N   -0.265625
     9  N   -0.223880
    10  N   -0.281180
    11  C   -0.014759
    12  C    0.164790
    13  C   -0.122245
    14  C   -0.108943
    15  C   -0.121864
    16  C   -0.075214
    17  C   -0.101329
    18  C    0.161774
    19  C   -0.112590
    20  C   -0.144735
    21  C    0.212121
    22  C    0.171441
    23  C   -0.108902
    24  C    0.139498
    25  C    0.077950
    26  C   -0.127452
    27  C    0.027468
    28  C    0.074198
    29  C    0.062752
    30  C   -0.035635
    31  C   -0.013863
    32  C    0.178208
    33  C    0.011085
    34  C    0.071385
    35  C    0.072367
    36  C   -0.041169
    37  C    0.171937
    38  C    0.183215
    39  C   -0.239794
    40  C    0.161268
    41  C   -0.115078
    42  C    0.071858
    43  C   -0.007702
    44  H    0.082824
    45  H   -0.035144
    46  H    0.013247
    47  H    0.093363
    48  H    0.203328
    49  H   -0.036832
    50  H    0.017817
    51  H    0.041459
    52  H   -0.059836
    53  H   -0.014180
    54  H    0.067054
    55  H    0.034852
    56  H    0.045512
    57  H    0.007771
    58  H    0.054792
    59  H    0.035041
    60  H    0.218570
    61  H    0.035068
    62  H    0.048816
    63  H    0.026785
    64  H    0.067126
    65  H    0.045780
    66  H   -0.009843
    67  H    0.054403
    68  H    0.010068
    69  H   -0.062499
    70  H    0.001583
    71  H    0.054778
    72  H    0.148097
    73  H    0.010210
    74  H    0.040511
    75  H    0.057440
    76  H    0.047984
    77  H    0.224235
    78  H    0.028644
    79  H    0.013206
 Sum of Mulliken charges =  -0.00000

 Dipole moment (field-independent basis, Debye):
    X=              3.5041    Y=              3.5040    Z=             -1.4817  Tot=              5.1723
 Quadrupole moment (field-independent basis, Debye-Ang):
   XX=           -239.9992   YY=           -233.0321   ZZ=           -272.8196
   XY=              7.1204   XZ=            -23.9322   YZ=            -16.4915

 Normal termination of Gaussian 16 at Thu Jul 25 16:04:20 2019.
