 Gaussian 16, Revision A.03,
 Gaussian 16:  ES64L-G16RevA.03 25-Dec-2016

 --------------------------
 # td=(NStates=1) B3LYP/SVP
 --------------------------

 --
 TD
 --
 Symbolic Z-matrix:
 Charge =  0 Multiplicity = 1

                         Standard orientation:
 ---------------------------------------------------------------------
 Center     Atomic      Atomic             Coordinates (Angstroms)
 Number     Number       Type             X           Y           Z
 ---------------------------------------------------------------------
      1          8           0        5.334737    0.206154   -3.274433
      2          8           0       -3.018130   -2.937038    3.001452
      3          8           0       -3.426674   -0.709902    3.044779
      4          8           0       -1.770753    7.270998    1.375674
      5          8           0       -0.696246    7.063108   -0.634688
      6          8           0       -1.517816   -4.020007   -0.074347
      7          7           0        2.296026    0.802340    0.578064
      8          7           0        4.351422   -0.567253   -1.244637
      9          7           0       -1.776707    0.632072   -0.433764
     10          7           0       -2.541481   -1.863166   -0.438600
     11          6           0        4.780239   -1.241388   -0.042375
     12          6           0        4.405631   -0.415580    1.225806
     13          6           0        2.906004   -0.093852    1.426924
     14          6           0        1.816798   -0.668523    2.288071
     15          6           0        0.732810    0.146805    1.944638
     16          6           0        0.898276    1.012710    0.763604
     17          6           0        6.281467   -1.337822   -0.187589
     18          6           0       -0.635180   -0.075413    2.669617
     19          6           0        6.682702   -0.723815   -1.357428
     20          6           0        0.194514    1.966441    0.108391
     21          6           0       -1.074665    1.796620   -0.330783
     22          6           0        5.395257   -0.314448   -2.085699
     23          6           0       -1.982651    2.800974   -0.898218
     24          6           0        2.032650   -1.625554    3.343626
     25          6           0        7.135951   -2.028628    0.863886
     26          6           0       -3.236252    2.281928   -1.237983
     27          6           0       -1.219930   -1.515571    2.618946
     28          6           0       -3.003415    0.842936   -0.934872
     29          6           0       -1.620108    4.336265   -0.952643
     30          6           0        8.003826   -0.579070   -1.988588
     31          6           0       -1.820693    5.047298    0.396642
     32          6           0       -4.491953    2.888919   -1.851170
     33          6           0       -3.839827   -0.146548   -1.310071
     34          6           0       -2.660202   -1.715547    2.964403
     35          6           0       -3.648446   -1.512489   -1.109631
     36          6           0        9.181806   -0.691914   -1.357050
     37          6           0       -1.319926    6.516750    0.253090
     38          6           0       -4.484019   -2.661336   -1.466277
     39          6           0       -3.692847   -3.843650   -1.123247
     40          6           0       -2.438183   -3.356362   -0.502384
     41          6           0       -5.743377   -2.570044   -2.160587
     42          6           0       -3.998683   -5.327456   -1.363550
     43          6           0       -6.759398   -3.497422   -2.389675
     44          1           0        4.224132   -2.198423    0.042942
     45          1           0        4.881653    0.463253    1.303046
     46          1           0        4.603276   -0.804132    2.216554
     47          1           0        2.774381    1.127337   -0.131319
     48          1           0        3.331426   -0.747489   -1.493115
     49          1           0       -0.524202    0.092041    3.773423
     50          1           0       -1.468882    0.720689    2.446672
     51          1           0        0.796847    2.969078   -0.136627
     52          1           0        3.064415   -1.961656    3.403329
     53          1           0        1.608912   -1.268043    4.253635
     54          1           0        1.553737   -2.746384    3.339604
     55          1           0        6.369984   -2.474946    1.514834
     56          1           0        7.741045   -1.331229    1.450662
     57          1           0        7.852181   -2.883693    0.380806
     58          1           0       -0.853216   -1.988411    1.729943
     59          1           0       -0.669770   -1.885786    3.592336
     60          1           0       -1.468575   -0.372129   -0.178081
     61          1           0       -2.124183    4.902872   -1.649614
     62          1           0       -0.631678    4.404034   -1.334209
     63          1           0        8.011761   -0.230952   -3.053928
     64          1           0       -1.276500    4.701180    1.259810
     65          1           0       -2.905197    4.977449    0.626029
     66          1           0       -4.602554    4.103531   -1.589252
     67          1           0       -5.267986    2.509593   -1.455151
     68          1           0       -4.476442    2.746614   -3.015143
     69          1           0       -4.773521   -0.024404   -1.803800
     70          1           0        9.167250   -0.910613   -0.358963
     71          1           0       10.240891   -0.611663   -1.887020
     72          1           0       -3.863795   -2.853849    3.126897
     73          1           0       -5.899707   -1.545076   -2.522450
     74          1           0       -4.700767   -5.756098   -0.533854
     75          1           0       -4.373093   -5.664601   -2.461756
     76          1           0       -3.175399   -5.828195   -1.142746
     77          1           0       -1.328034    8.197261    1.386494
     78          1           0       -7.459231   -3.419283   -3.038408
     79          1           0       -6.593963   -4.593622   -2.103447
 ---------------------------------------------------------------------

 SCF Done:  E(RB3LYP) =  -1947.82941324     A.U. after   17 cycles

 Excitation energies and oscillator strengths:

 Excited State   1:      Singlet-A      1.8105 eV  684.82 nm  f=0.3437  <S**2>=0.000
     154 ->156         0.18394
     155 ->156         0.68127
     155 <-156        -0.11511
 This state for optimization and/or second-order correction.
 Total Energy, E(TD-HF/TD-DFT) =  -1947.76287985
 Copying the excited state density for this state as the 1-particle RhoCI density.

 The electronic state is 1-A.
 Alpha  occ. eigenvalues --  -19.18885 -19.17334 -19.14143 -19.11322 -19.10518
 Alpha  occ. eigenvalues --  -19.09901 -14.37949 -14.37454 -14.36294 -14.28617
 Alpha  occ. eigenvalues --  -10.33040 -10.31047 -10.29729 -10.27034 -10.26250
 Alpha  occ. eigenvalues --  -10.24500 -10.24113 -10.23991 -10.23265 -10.23071
 Alpha  occ. eigenvalues --  -10.22549 -10.22375 -10.21851 -10.21842 -10.21742
 Alpha  occ. eigenvalues --  -10.21732 -10.21513 -10.21470 -10.21433 -10.21229
 Alpha  occ. eigenvalues --  -10.21174 -10.21113 -10.20814 -10.20465 -10.20374
 Alpha  occ. eigenvalues --  -10.20297 -10.20117 -10.19849 -10.19770 -10.19432
 Alpha  occ. eigenvalues --  -10.19291 -10.18876 -10.17911  -1.14506  -1.07363
 Alpha  occ. eigenvalues --   -1.01844  -1.00066  -0.99152  -0.98902  -0.98108
 Alpha  occ. eigenvalues --   -0.97627  -0.93725  -0.90632  -0.82629  -0.82473
 Alpha  occ. eigenvalues --   -0.81629  -0.81407  -0.79963  -0.79132  -0.78006
 Alpha  occ. eigenvalues --   -0.77281  -0.76592  -0.75995  -0.74415  -0.72641
 Alpha  occ. eigenvalues --   -0.71871  -0.71757  -0.70002  -0.69396  -0.68446
 Alpha  occ. eigenvalues --   -0.67782  -0.66988  -0.64585  -0.62063  -0.61773
 Alpha  occ. eigenvalues --   -0.60759  -0.58716  -0.58254  -0.57956  -0.57557
 Alpha  occ. eigenvalues --   -0.56902  -0.56188  -0.55108  -0.54098  -0.53248
 Alpha  occ. eigenvalues --   -0.51980  -0.51847  -0.51322  -0.49850  -0.49774
 Alpha  occ. eigenvalues --   -0.49371  -0.48845  -0.48527  -0.48402  -0.47932
 Alpha  occ. eigenvalues --   -0.47676  -0.47280  -0.46680  -0.46266  -0.45910
 Alpha  occ. eigenvalues --   -0.45555  -0.45276  -0.44894  -0.44164  -0.43779
 Alpha  occ. eigenvalues --   -0.43723  -0.43114  -0.42679  -0.42553  -0.42487
 Alpha  occ. eigenvalues --   -0.42161  -0.42015  -0.41760  -0.41487  -0.40929
 Alpha  occ. eigenvalues --   -0.40573  -0.40307  -0.40087  -0.39870  -0.39532
 Alpha  occ. eigenvalues --   -0.39437  -0.39032  -0.38782  -0.38605  -0.38440
 Alpha  occ. eigenvalues --   -0.38333  -0.38155  -0.37900  -0.37716  -0.37525
 Alpha  occ. eigenvalues --   -0.36472  -0.36041  -0.35500  -0.35184  -0.34867
 Alpha  occ. eigenvalues --   -0.33942  -0.33904  -0.32265  -0.32158  -0.31257
 Alpha  occ. eigenvalues --   -0.31127  -0.30208  -0.28953  -0.28590  -0.28072
 Alpha  occ. eigenvalues --   -0.26821  -0.25984  -0.25883  -0.25120  -0.24841
 Alpha  occ. eigenvalues --   -0.24664  -0.23849  -0.23653  -0.21509  -0.18558
 Alpha virt. eigenvalues --   -0.11298  -0.07196  -0.06548  -0.01254  -0.00955
 Alpha virt. eigenvalues --   -0.00248   0.00105   0.01151   0.02445   0.02768
 Alpha virt. eigenvalues --    0.03298   0.04211   0.04319   0.04947   0.05368

 Mulliken charges:
               1
     1  O   -0.300740
     2  O   -0.005314
     3  O   -0.300111
     4  O   -0.279117
     5  O   -0.211432
     6  O   -0.190654
     7  N   -0.031217
     8  N   -0.192902
     9  N   -0.056983
    10  N   -0.375525
    11  C    0.084506
    12  C    0.281608
    13  C   -0.168765
    14  C   -0.077348
    15  C   -0.089742
    16  C    0.102799
    17  C   -0.176173
    18  C    0.003610
    19  C   -0.017009
    20  C   -0.169006
    21  C    0.139986
    22  C    0.183299
    23  C   -0.137003
    24  C    0.055385
    25  C    0.052837
    26  C   -0.121365
    27  C   -0.010807
    28  C    0.170216
    29  C    0.149040
    30  C   -0.020505
    31  C    0.014885
    32  C    0.135239
    33  C   -0.106247
    34  C    0.113840
    35  C    0.050780
    36  C   -0.016180
    37  C    0.158502
    38  C    0.077974
    39  C   -0.203341
    40  C    0.186284
    41  C   -0.069728
    42  C    0.109389
    43  C    0.037173
    44  H    0.028322
    45  H   -0.045105
    46  H   -0.010218
    47  H    0.048703
    48  H    0.162711
    49  H   -0.006270
    50  H    0.035664
    51  H    0.041025
    52  H   -0.002570
    53  H    0.017366
    54  H    0.040957
    55  H    0.015145
    56  H    0.052897
    57  H    0.070469
    58  H    0.069202
    59  H    0.026238
    60  H    0.182251
    61  H   -0.020481
    62  H   -0.003438
    63  H    0.027209
    64  H    0.040749
    65  H    0.049106
    66  H    0.037929
    67  H   -0.022611
    68  H    0.057518
    69  H   -0.069303
    70  H   -0.023570
    71  H    0.055349
    72  H    0.105111
    73  H   -0.004515
    74  H    0.035665
    75  H    0.053955
    76  H   -0.031042
    77  H    0.205770
    78  H   -0.028851
    79  H    0.028525
 Sum of Mulliken charges =  -0.00000

 Dipole moment (field-independent basis, Debye):
    X=              1.0205    Y=             -0.3250    Z=              3.3216  Tot=              3.4900
 Quadrupole moment (field-independent basis, Debye-Ang):
   XX=           -220.6713   YY=           -247.4260   ZZ=           -262.2622
   XY=             -9.1499   XZ=             37.1783   YZ=              3.6754

 Normal termination of Gaussian 16 at Sun Sep 15 06:23:34 2019.
