 Gaussian 16, Revision A.03,
 Gaussian 16:  ES64L-G16RevA.03 25-Dec-2016

 --------------------------
 # td=(NStates=1) B3LYP/SVP
 --------------------------

 --
 TD
 --
 Symbolic Z-matrix:
 Charge =  0 Multiplicity = 1

                         Standard orientation:
 ---------------------------------------------------------------------
 Center     Atomic      Atomic             Coordinates (Angstroms)
 Number     Number       Type             X           Y           Z
 ---------------------------------------------------------------------
      1          8           0       -3.038112   -1.431784   -2.732007
      2          8           0        2.771668    3.434128    2.793615
      3          8           0        3.491525    1.912318    4.357270
      4          8           0        7.832800   -1.533976   -0.810095
      5          8           0        6.538901   -3.367057   -1.430268
      6          8           0       -2.602863    1.702824    1.335765
      7          7           0       -0.327548   -2.411866    1.164773
      8          7           0       -2.651945   -1.198898   -0.469797
      9          7           0        1.129978   -0.011742   -0.661831
     10          7           0       -0.885527    1.404615   -0.247592
     11          6           0       -3.432935   -1.270794    0.760855
     12          6           0       -2.688731   -2.390208    1.800375
     13          6           0       -1.241049   -2.003264    1.982366
     14          6           0       -0.687128   -1.009610    2.893295
     15          6           0        0.691334   -0.867256    2.517424
     16          6           0        0.884492   -1.748699    1.379676
     17          6           0       -4.729901   -1.919078    0.267402
     18          6           0        1.660597   -0.066511    3.150855
     19          6           0       -4.715261   -2.047273   -1.118701
     20          6           0        2.038680   -1.942458    0.490725
     21          6           0        2.031215   -0.965646   -0.519212
     22          6           0       -3.389935   -1.536298   -1.620005
     23          6           0        3.014758   -0.831812   -1.758826
     24          6           0       -1.456290   -0.263594    3.872097
     25          6           0       -5.777011   -2.119802    1.249600
     26          6           0        2.649299    0.284900   -2.423422
     27          6           0        1.768985    1.426785    2.727841
     28          6           0        1.495672    0.731400   -1.764811
     29          6           0        4.285033   -1.759002   -1.796635
     30          6           0       -5.781784   -2.558213   -2.018556
     31          6           0        5.565530   -1.186149   -1.168466
     32          6           0        3.239438    0.754992   -3.652467
     33          6           0        0.599087    1.846076   -2.022373
     34          6           0        2.777208    2.214812    3.434152
     35          6           0       -0.484799    2.215226   -1.327018
     36          6           0       -6.915992   -3.295889   -1.734364
     37          6           0        6.695388   -2.180134   -1.181110
     38          6           0       -1.416380    3.367051   -1.463444
     39          6           0       -2.284269    3.324953   -0.448815
     40          6           0       -1.979167    2.083009    0.338483
     41          6           0       -1.211783    4.375080   -2.601523
     42          6           0       -3.346716    4.349270   -0.072186
     43          6           0       -1.687038    5.575360   -2.700527
     44          1           0       -3.506701   -0.344053    1.202465
     45          1           0       -2.832412   -3.387564    1.054837
     46          1           0       -3.273961   -2.535380    2.873587
     47          1           0       -0.404706   -2.869376    0.204203
     48          1           0       -2.182627   -0.371549   -0.504094
     49          1           0        1.586802   -0.023258    4.276145
     50          1           0        2.713316   -0.369686    2.977160
     51          1           0        2.793549   -2.548134    0.715712
     52          1           0       -1.986999   -1.210160    4.647352
     53          1           0       -0.721640    0.206947    4.584677
     54          1           0       -2.257332    0.515040    3.378230
     55          1           0       -5.561751   -1.617594    2.097976
     56          1           0       -5.787132   -3.111481    1.594453
     57          1           0       -6.982264   -1.793754    0.784152
     58          1           0        2.110455    1.196398    1.624353
     59          1           0        0.700229    1.866336    2.759469
     60          1           0        0.065441    0.288290   -0.262811
     61          1           0        4.387475   -2.231456   -2.762394
     62          1           0        4.291983   -2.792978   -1.175049
     63          1           0       -5.630622   -2.281322   -2.991984
     64          1           0        5.518317   -0.826552   -0.137753
     65          1           0        5.805687   -0.266137   -1.550367
     66          1           0        4.146137    0.071622   -4.136069
     67          1           0        3.644367    1.943831   -3.563423
     68          1           0        2.347288    0.610224   -4.349642
     69          1           0        0.866407    2.570784   -2.695862
     70          1           0       -7.174923   -3.773471   -0.831763
     71          1           0       -7.554945   -3.484436   -2.433204
     72          1           0        3.559663    4.116402    3.116111
     73          1           0       -0.289094    4.272291   -3.356000
     74          1           0       -4.061540    4.614448   -0.992670
     75          1           0       -3.993927    3.926620    0.658265
     76          1           0       -2.963480    5.296410    0.149396
     77          1           0        8.551752   -2.080190   -0.886423
     78          1           0       -1.174159    6.467198   -3.444995
     79          1           0       -2.577985    6.225977   -2.073263
 ---------------------------------------------------------------------

 SCF Done:  E(RB3LYP) =  -1947.75417371     A.U. after   19 cycles

 Excitation energies and oscillator strengths:

 Excited State   1:      Singlet-A      0.6935 eV 1787.77 nm  f=0.0000  <S**2>=0.000
     155 ->156         0.70422
 This state for optimization and/or second-order correction.
 Total Energy, E(TD-HF/TD-DFT) =  -1947.72868764
 Copying the excited state density for this state as the 1-particle RhoCI density.

 The electronic state is 1-A.
 Alpha  occ. eigenvalues --  -19.20016 -19.17400 -19.14932 -19.12580 -19.11683
 Alpha  occ. eigenvalues --  -19.09345 -14.36953 -14.36353 -14.31530 -14.31318
 Alpha  occ. eigenvalues --  -10.34245 -10.31328 -10.28493 -10.26954 -10.26843
 Alpha  occ. eigenvalues --  -10.25443 -10.24505 -10.24342 -10.23874 -10.23052
 Alpha  occ. eigenvalues --  -10.22836 -10.22602 -10.22575 -10.22305 -10.22157
 Alpha  occ. eigenvalues --  -10.21768 -10.21701 -10.21463 -10.21204 -10.20386
 Alpha  occ. eigenvalues --  -10.20002 -10.19871 -10.19858 -10.19799 -10.19746
 Alpha  occ. eigenvalues --  -10.19402 -10.19254 -10.18950 -10.18636 -10.17773
 Alpha  occ. eigenvalues --  -10.17143 -10.16897 -10.16227  -1.11671  -1.07046
 Alpha  occ. eigenvalues --   -1.03591  -1.03130  -1.02015  -1.00115  -0.99117
 Alpha  occ. eigenvalues --   -0.97065  -0.92683  -0.92061  -0.84495  -0.82236
 Alpha  occ. eigenvalues --   -0.81205  -0.80349  -0.80114  -0.79744  -0.77980
 Alpha  occ. eigenvalues --   -0.76253  -0.75818  -0.75403  -0.73669  -0.72305
 Alpha  occ. eigenvalues --   -0.70951  -0.70428  -0.69767  -0.69029  -0.67606
 Alpha  occ. eigenvalues --   -0.65741  -0.65448  -0.62793  -0.62408  -0.60907
 Alpha  occ. eigenvalues --   -0.60388  -0.59185  -0.57395  -0.57027  -0.55995
 Alpha  occ. eigenvalues --   -0.55522  -0.54846  -0.53561  -0.52788  -0.52522
 Alpha  occ. eigenvalues --   -0.52210  -0.51891  -0.50458  -0.50041  -0.49581
 Alpha  occ. eigenvalues --   -0.49440  -0.49065  -0.48418  -0.48025  -0.47845
 Alpha  occ. eigenvalues --   -0.47128  -0.46708  -0.46542  -0.46485  -0.45727
 Alpha  occ. eigenvalues --   -0.45076  -0.44567  -0.44209  -0.43925  -0.43656
 Alpha  occ. eigenvalues --   -0.43454  -0.43120  -0.42853  -0.42427  -0.42109
 Alpha  occ. eigenvalues --   -0.42040  -0.41740  -0.41584  -0.41279  -0.40812
 Alpha  occ. eigenvalues --   -0.40471  -0.40300  -0.40042  -0.39842  -0.39608
 Alpha  occ. eigenvalues --   -0.39117  -0.38665  -0.38141  -0.37795  -0.37597
 Alpha  occ. eigenvalues --   -0.37388  -0.37080  -0.36893  -0.36325  -0.35949
 Alpha  occ. eigenvalues --   -0.35856  -0.34849  -0.34530  -0.33809  -0.33506
 Alpha  occ. eigenvalues --   -0.33253  -0.33158  -0.32615  -0.32131  -0.31752
 Alpha  occ. eigenvalues --   -0.30746  -0.30303  -0.29807  -0.29510  -0.28983
 Alpha  occ. eigenvalues --   -0.27853  -0.27296  -0.25891  -0.25629  -0.24696
 Alpha  occ. eigenvalues --   -0.24223  -0.22506  -0.22279  -0.21796  -0.17867
 Alpha virt. eigenvalues --   -0.12617  -0.06959  -0.04476  -0.01715  -0.00962
 Alpha virt. eigenvalues --    0.00260   0.01704   0.01862   0.02122   0.02868
 Alpha virt. eigenvalues --    0.03220   0.03469   0.03802   0.04231   0.04419

 Mulliken charges:
               1
     1  O   -0.167459
     2  O   -0.277490
     3  O   -0.208250
     4  O   -0.144938
     5  O   -0.224991
     6  O   -0.233400
     7  N   -0.000081
     8  N   -0.194273
     9  N   -0.108607
    10  N   -0.387542
    11  C    0.074899
    12  C    0.025902
    13  C   -0.066023
    14  C   -0.107430
    15  C    0.014396
    16  C   -0.066846
    17  C   -0.182013
    18  C    0.024475
    19  C   -0.058855
    20  C   -0.045430
    21  C    0.078426
    22  C    0.122884
    23  C   -0.038662
    24  C   -0.035941
    25  C    0.135343
    26  C   -0.064779
    27  C   -0.088088
    28  C    0.116070
    29  C    0.028054
    30  C    0.014151
    31  C    0.047838
    32  C   -0.040961
    33  C   -0.043613
    34  C    0.176886
    35  C    0.087325
    36  C    0.042472
    37  C    0.153461
    38  C    0.109876
    39  C   -0.206354
    40  C    0.200254
    41  C    0.024037
    42  C    0.104871
    43  C   -0.178428
    44  H    0.027503
    45  H    0.012724
    46  H    0.038144
    47  H    0.144701
    48  H    0.109088
    49  H    0.012847
    50  H   -0.020105
    51  H   -0.037137
    52  H    0.014759
    53  H    0.008890
    54  H    0.092732
    55  H   -0.021890
    56  H    0.011982
    57  H    0.058047
    58  H    0.057353
    59  H    0.074522
    60  H    0.266477
    61  H    0.020947
    62  H    0.048271
    63  H   -0.031027
    64  H    0.032568
    65  H   -0.010684
    66  H    0.059782
    67  H    0.064164
    68  H    0.062987
    69  H   -0.084154
    70  H   -0.001389
    71  H   -0.028970
    72  H    0.222944
    73  H    0.045659
    74  H    0.033322
    75  H    0.020598
    76  H    0.023028
    77  H    0.149070
    78  H    0.051912
    79  H    0.059170
 Sum of Mulliken charges =  -0.00000

 Dipole moment (field-independent basis, Debye):
    X=              4.6142    Y=              3.3804    Z=             -3.2457  Tot=              6.5767
 Quadrupole moment (field-independent basis, Debye-Ang):
   XX=           -220.1082   YY=           -236.6029   ZZ=           -270.6143
   XY=              4.5432   XZ=            -23.5834   YZ=            -12.3694

 Normal termination of Gaussian 16 at Thu Jul 25 08:50:07 2019.
