 Gaussian 16, Revision A.03,
 Gaussian 16:  ES64L-G16RevA.03 25-Dec-2016

 --------------------------
 # td=(NStates=1) B3LYP/SVP
 --------------------------

 --
 TD
 --
 Symbolic Z-matrix:
 Charge =  0 Multiplicity = 1

                         Standard orientation:
 ---------------------------------------------------------------------
 Center     Atomic      Atomic             Coordinates (Angstroms)
 Number     Number       Type             X           Y           Z
 ---------------------------------------------------------------------
      1          8           0        5.178260   -0.066574   -3.300152
      2          8           0       -3.194571   -2.945337    2.921715
      3          8           0       -3.378724   -0.726535    2.959434
      4          8           0       -1.627627    7.035426    1.589556
      5          8           0       -0.916948    7.100518   -0.579828
      6          8           0       -1.829305   -4.015509    0.250096
      7          7           0        2.333130    1.072901    0.621852
      8          7           0        4.359402   -0.492084   -1.158611
      9          7           0       -1.741823    0.723145   -0.453213
     10          7           0       -2.613584   -1.923009   -0.327041
     11          6           0        4.794098   -1.155149   -0.030833
     12          6           0        4.450113   -0.296127    1.288269
     13          6           0        3.000723    0.005215    1.365813
     14          6           0        1.972367   -0.620337    2.238310
     15          6           0        0.751441    0.063151    1.995803
     16          6           0        0.963070    1.100058    0.974646
     17          6           0        6.322419   -1.334510   -0.123263
     18          6           0       -0.635081   -0.190997    2.497165
     19          6           0        6.680967   -0.875755   -1.364839
     20          6           0        0.246604    2.085991    0.299098
     21          6           0       -1.042881    1.854781   -0.274107
     22          6           0        5.360459   -0.476964   -2.212747
     23          6           0       -1.884561    2.897807   -0.915416
     24          6           0        2.203458   -1.758973    3.155894
     25          6           0        7.118037   -1.970586    0.844970
     26          6           0       -3.107983    2.323546   -1.395813
     27          6           0       -1.220512   -1.679334    2.507989
     28          6           0       -2.886693    0.868924   -1.053044
     29          6           0       -1.482532    4.367069   -0.957130
     30          6           0        7.998918   -0.773397   -2.050980
     31          6           0       -1.705908    4.934827    0.399929
     32          6           0       -4.307691    2.941505   -2.011645
     33          6           0       -3.793922   -0.074693   -1.339658
     34          6           0       -2.699192   -1.673400    2.821901
     35          6           0       -3.696095   -1.463584   -1.017516
     36          6           0        9.235961   -0.898044   -1.507030
     37          6           0       -1.305475    6.445848    0.359327
     38          6           0       -4.510781   -2.621411   -1.406495
     39          6           0       -3.822325   -3.768562   -1.075550
     40          6           0       -2.597783   -3.270503   -0.384656
     41          6           0       -5.748604   -2.438497   -2.196316
     42          6           0       -4.226357   -5.276864   -1.109960
     43          6           0       -6.681996   -3.366323   -2.646625
     44          1           0        4.417754   -2.100681    0.273225
     45          1           0        4.832052    0.696463    1.076621
     46          1           0        4.973016   -0.655151    2.298618
     47          1           0        2.640872    1.504430   -0.168646
     48          1           0        3.292934   -0.483934   -1.306508
     49          1           0       -0.688736    0.238635    3.602241
     50          1           0       -1.413213    0.468656    1.953951
     51          1           0        0.718149    3.043298   -0.001463
     52          1           0        3.150360   -2.068302    3.264302
     53          1           0        1.780313   -1.703275    4.069732
     54          1           0        1.835671   -2.691461    2.644203
     55          1           0        6.603585   -2.549342    1.442148
     56          1           0        7.689949   -1.258902    1.629219
     57          1           0        7.763900   -2.662413    0.334674
     58          1           0       -1.124837   -2.089985    1.350605
     59          1           0       -0.872060   -2.274123    3.226579
     60          1           0       -1.411978   -0.237045   -0.360690
     61          1           0       -2.016618    4.757273   -1.779294
     62          1           0       -0.476717    4.644908   -1.284503
     63          1           0        7.721706   -0.208784   -2.963097
     64          1           0       -1.295133    4.350327    1.284711
     65          1           0       -2.738083    4.545507    0.654757
     66          1           0       -4.188991    3.917141   -2.174283
     67          1           0       -5.064439    2.885124   -1.125758
     68          1           0       -4.806553    2.141321   -2.741342
     69          1           0       -4.851013    0.090875   -1.673303
     70          1           0        9.614091   -1.134491   -0.466924
     71          1           0       10.070146   -0.718877   -2.257877
     72          1           0       -4.027185   -2.731400    3.374290
     73          1           0       -6.031205   -1.286608   -2.666716
     74          1           0       -5.225243   -5.630935   -0.593783
     75          1           0       -4.197118   -5.721871   -2.093693
     76          1           0       -3.539997   -5.658494   -0.167393
     77          1           0       -1.450428    8.088412    1.520610
     78          1           0       -7.564610   -3.125150   -3.293504
     79          1           0       -6.782475   -4.532006   -2.442116
 ---------------------------------------------------------------------

 SCF Done:  E(RB3LYP) =  -1947.81284026     A.U. after   20 cycles

 Excitation energies and oscillator strengths:

 Excited State   1:      Singlet-A      1.8701 eV  662.99 nm  f=0.4433  <S**2>=0.000
     155 ->156         0.70152
     155 <-156        -0.13386
 This state for optimization and/or second-order correction.
 Total Energy, E(TD-HF/TD-DFT) =  -1947.74411670
 Copying the excited state density for this state as the 1-particle RhoCI density.

 The electronic state is 1-A.
 Alpha  occ. eigenvalues --  -19.18480 -19.15679 -19.14668 -19.12740 -19.11141
 Alpha  occ. eigenvalues --  -19.09657 -14.38275 -14.37731 -14.35948 -14.28524
 Alpha  occ. eigenvalues --  -10.33632 -10.30467 -10.29488 -10.25547 -10.24849
 Alpha  occ. eigenvalues --  -10.24760 -10.24636 -10.24303 -10.23522 -10.23452
 Alpha  occ. eigenvalues --  -10.22502 -10.22489 -10.22235 -10.22208 -10.21976
 Alpha  occ. eigenvalues --  -10.21730 -10.21617 -10.21535 -10.20900 -10.20894
 Alpha  occ. eigenvalues --  -10.20888 -10.20839 -10.20670 -10.20574 -10.20528
 Alpha  occ. eigenvalues --  -10.20237 -10.20120 -10.20056 -10.20052 -10.20045
 Alpha  occ. eigenvalues --  -10.19373 -10.18223 -10.18072  -1.08696  -1.08365
 Alpha  occ. eigenvalues --   -1.05842  -1.01295  -1.00000  -0.99983  -0.99678
 Alpha  occ. eigenvalues --   -0.96510  -0.94664  -0.91903  -0.83247  -0.82664
 Alpha  occ. eigenvalues --   -0.81918  -0.81189  -0.79454  -0.78802  -0.78076
 Alpha  occ. eigenvalues --   -0.77304  -0.75798  -0.75324  -0.73295  -0.72658
 Alpha  occ. eigenvalues --   -0.72115  -0.71498  -0.69863  -0.68408  -0.67689
 Alpha  occ. eigenvalues --   -0.66579  -0.66035  -0.63315  -0.61147  -0.60508
 Alpha  occ. eigenvalues --   -0.59266  -0.58692  -0.58594  -0.58100  -0.57532
 Alpha  occ. eigenvalues --   -0.56954  -0.56018  -0.54461  -0.53957  -0.52602
 Alpha  occ. eigenvalues --   -0.51838  -0.51625  -0.51153  -0.50470  -0.49245
 Alpha  occ. eigenvalues --   -0.48534  -0.48401  -0.48106  -0.47475  -0.46979
 Alpha  occ. eigenvalues --   -0.46785  -0.46597  -0.46357  -0.46120  -0.46071
 Alpha  occ. eigenvalues --   -0.45595  -0.45530  -0.44798  -0.44669  -0.44102
 Alpha  occ. eigenvalues --   -0.43671  -0.43528  -0.43298  -0.43057  -0.42735
 Alpha  occ. eigenvalues --   -0.42310  -0.42191  -0.42103  -0.41563  -0.41187
 Alpha  occ. eigenvalues --   -0.40985  -0.40877  -0.40557  -0.40430  -0.40140
 Alpha  occ. eigenvalues --   -0.39950  -0.39754  -0.39314  -0.38724  -0.38602
 Alpha  occ. eigenvalues --   -0.38227  -0.38090  -0.37584  -0.37243  -0.35804
 Alpha  occ. eigenvalues --   -0.35511  -0.34585  -0.34083  -0.33840  -0.33525
 Alpha  occ. eigenvalues --   -0.33393  -0.33085  -0.32653  -0.31567  -0.31415
 Alpha  occ. eigenvalues --   -0.30845  -0.30682  -0.29817  -0.28216  -0.27761
 Alpha  occ. eigenvalues --   -0.26803  -0.26728  -0.26531  -0.25439  -0.24829
 Alpha  occ. eigenvalues --   -0.24169  -0.23698  -0.23459  -0.22005  -0.18595
 Alpha virt. eigenvalues --   -0.11464  -0.06972  -0.06089  -0.02061  -0.01370
 Alpha virt. eigenvalues --   -0.00378   0.00254   0.02426   0.02777   0.02987
 Alpha virt. eigenvalues --    0.03135   0.03883   0.04206   0.04628   0.05089

 Mulliken charges:
               1
     1  O   -0.153286
     2  O   -0.191667
     3  O   -0.202618
     4  O   -0.273740
     5  O   -0.208405
     6  O   -0.238783
     7  N   -0.115104
     8  N   -0.235337
     9  N    0.056415
    10  N   -0.291935
    11  C    0.109302
    12  C    0.134731
    13  C   -0.073272
    14  C   -0.149551
    15  C   -0.032341
    16  C    0.102438
    17  C   -0.170265
    18  C   -0.023366
    19  C   -0.150230
    20  C   -0.112733
    21  C    0.044443
    22  C    0.189750
    23  C   -0.172234
    24  C    0.221102
    25  C    0.159097
    26  C   -0.149583
    27  C    0.033875
    28  C    0.142640
    29  C    0.140239
    30  C    0.034397
    31  C   -0.065819
    32  C    0.162400
    33  C   -0.141531
    34  C    0.102417
    35  C    0.008788
    36  C   -0.071069
    37  C    0.217821
    38  C    0.088685
    39  C   -0.156582
    40  C    0.145872
    41  C   -0.074639
    42  C   -0.006229
    43  C   -0.104926
    44  H   -0.008122
    45  H   -0.015906
    46  H    0.042627
    47  H    0.086503
    48  H    0.151360
    49  H    0.015361
    50  H    0.038151
    51  H    0.015073
    52  H   -0.058388
    53  H   -0.003903
    54  H    0.029563
    55  H   -0.051223
    56  H    0.052976
    57  H    0.028294
    58  H    0.119015
    59  H   -0.021800
    60  H    0.139401
    61  H   -0.002577
    62  H    0.006228
    63  H    0.025880
    64  H    0.054499
    65  H    0.042598
    66  H   -0.018887
    67  H    0.037636
    68  H    0.054197
    69  H   -0.007122
    70  H    0.045665
    71  H    0.038058
    72  H    0.158556
    73  H    0.042058
    74  H    0.036941
    75  H    0.041007
    76  H    0.062630
    77  H    0.221584
    78  H    0.030311
    79  H    0.042586
 Sum of Mulliken charges =  -0.00000

 Dipole moment (field-independent basis, Debye):
    X=              1.3825    Y=              2.2291    Z=              2.5894  Tot=              3.6858
 Quadrupole moment (field-independent basis, Debye-Ang):
   XX=           -220.3942   YY=           -251.7500   ZZ=           -260.4830
   XY=            -12.9204   XZ=             31.0316   YZ=              2.1481

 Normal termination of Gaussian 16 at Thu Sep 26 17:01:19 2019.
