 Gaussian 16, Revision A.03,
 Gaussian 16:  ES64L-G16RevA.03 25-Dec-2016

 --------------------------
 # td=(NStates=1) B3LYP/SVP
 --------------------------

 --
 TD
 --
 Symbolic Z-matrix:
 Charge =  0 Multiplicity = 1

                         Standard orientation:
 ---------------------------------------------------------------------
 Center     Atomic      Atomic             Coordinates (Angstroms)
 Number     Number       Type             X           Y           Z
 ---------------------------------------------------------------------
      1          8           0       -3.295053   -0.851439   -2.957848
      2          8           0        3.200738    2.429641    3.355871
      3          8           0        3.643186    0.473094    4.468364
      4          8           0        7.716656   -1.499167   -0.831659
      5          8           0        6.639893   -2.546756   -2.445880
      6          8           0       -2.595817    1.496587    1.643367
      7          7           0       -0.264994   -2.472726    0.416519
      8          7           0       -2.775533   -1.099494   -0.732968
      9          7           0        1.109508    0.225464   -0.738953
     10          7           0       -0.972506    1.519766    0.077739
     11          6           0       -3.464919   -1.355657    0.454569
     12          6           0       -2.675249   -2.589367    1.187889
     13          6           0       -1.247335   -2.342785    1.381931
     14          6           0       -0.557227   -1.691599    2.483893
     15          6           0        0.818351   -1.548027    2.235068
     16          6           0        0.927384   -1.983159    0.864347
     17          6           0       -4.767537   -1.910220   -0.012756
     18          6           0        1.889784   -0.939903    3.040809
     19          6           0       -4.855536   -1.721298   -1.331837
     20          6           0        2.096078   -1.843604   -0.102801
     21          6           0        2.056049   -0.792505   -0.911640
     22          6           0       -3.604288   -1.161925   -1.816883
     23          6           0        3.008715   -0.395903   -1.840978
     24          6           0       -1.225809   -1.254204    3.731137
     25          6           0       -5.836546   -2.313630    1.062351
     26          6           0        2.543911    0.835966   -2.370025
     27          6           0        1.919799    0.562361    2.995310
     28          6           0        1.394219    1.179809   -1.644129
     29          6           0        4.325200   -1.151177   -2.165531
     30          6           0       -5.907919   -2.160139   -2.367027
     31          6           0        5.485230   -0.845528   -1.158853
     32          6           0        3.142920    1.701940   -3.486284
     33          6           0        0.524012    2.327971   -1.642353
     34          6           0        2.983374    1.131379    3.677426
     35          6           0       -0.559133    2.513991   -0.790697
     36          6           0       -6.955310   -2.886686   -2.051838
     37          6           0        6.648217   -1.760176   -1.578260
     38          6           0       -1.451376    3.713926   -0.665844
     39          6           0       -2.262555    3.439216    0.307605
     40          6           0       -1.972731    2.113517    0.717676
     41          6           0       -1.287841    4.840826   -1.579241
     42          6           0       -3.350371    4.289747    0.999396
     43          6           0       -1.820224    6.032722   -1.282409
     44          1           0       -3.382322   -0.513919    1.093136
     45          1           0       -2.924432   -3.680860    0.523810
     46          1           0       -3.154675   -2.651318    2.170919
     47          1           0       -0.330130   -2.668254   -0.534827
     48          1           0       -2.042943   -0.427366   -0.787034
     49          1           0        1.759065   -1.192134    4.012039
     50          1           0        2.946982   -1.439746    2.804177
     51          1           0        2.742524   -2.619652   -0.051300
     52          1           0       -2.130119   -1.997778    4.020561
     53          1           0       -0.711607   -0.905246    4.681264
     54          1           0       -1.914076   -0.207635    3.416248
     55          1           0       -5.819571   -1.968336    2.090247
     56          1           0       -5.818427   -3.409713    1.162835
     57          1           0       -6.872813   -2.298660    0.584079
     58          1           0        2.010051    0.754289    1.760358
     59          1           0        1.017911    0.934876    3.251373
     60          1           0        0.357080    0.481432   -0.111833
     61          1           0        4.744653   -0.940031   -3.200737
     62          1           0        4.124563   -2.137507   -2.223919
     63          1           0       -5.743586   -1.762099   -3.311119
     64          1           0        5.271207   -1.033883   -0.086423
     65          1           0        5.715684    0.245264   -1.617908
     66          1           0        3.580639    1.015975   -4.418623
     67          1           0        3.846239    2.496840   -3.193585
     68          1           0        2.274385    2.246019   -3.921512
     69          1           0        0.888446    3.178762   -2.406687
     70          1           0       -7.159729   -3.490062   -1.034632
     71          1           0       -7.677359   -3.404789   -2.951948
     72          1           0        4.021865    2.690984    3.965697
     73          1           0       -0.551299    4.775455   -2.433015
     74          1           0       -4.117342    4.602215    0.107773
     75          1           0       -3.924303    3.577616    1.444034
     76          1           0       -3.022515    5.254522    1.699529
     77          1           0        8.407787   -2.030382   -0.958933
     78          1           0       -1.789112    7.055692   -1.963384
     79          1           0       -2.542898    6.027408   -0.634862
 ---------------------------------------------------------------------

 SCF Done:  E(RB3LYP) =  -1947.80036187     A.U. after   20 cycles

 Excitation energies and oscillator strengths:

 Excited State   1:      Singlet-A      0.9107 eV 1361.41 nm  f=0.0069  <S**2>=0.000
     155 ->156         0.70514
 This state for optimization and/or second-order correction.
 Total Energy, E(TD-HF/TD-DFT) =  -1947.76689421
 Copying the excited state density for this state as the 1-particle RhoCI density.

 The electronic state is 1-A.
 Alpha  occ. eigenvalues --  -19.18910 -19.18807 -19.14405 -19.12179 -19.09780
 Alpha  occ. eigenvalues --  -19.07444 -14.37110 -14.37032 -14.31849 -14.30344
 Alpha  occ. eigenvalues --  -10.33493 -10.31078 -10.26399 -10.26165 -10.25522
 Alpha  occ. eigenvalues --  -10.25467 -10.24780 -10.23856 -10.23553 -10.23214
 Alpha  occ. eigenvalues --  -10.23090 -10.22729 -10.22118 -10.21703 -10.21341
 Alpha  occ. eigenvalues --  -10.21327 -10.21083 -10.20816 -10.20813 -10.20762
 Alpha  occ. eigenvalues --  -10.20591 -10.20590 -10.20112 -10.20034 -10.19834
 Alpha  occ. eigenvalues --  -10.19627 -10.19583 -10.19263 -10.18837 -10.18508
 Alpha  occ. eigenvalues --  -10.18279 -10.17635 -10.17458  -1.13392  -1.08726
 Alpha  occ. eigenvalues --   -1.04579  -1.01306  -1.00521  -1.00367  -0.99934
 Alpha  occ. eigenvalues --   -0.97030  -0.93146  -0.93120  -0.84667  -0.82731
 Alpha  occ. eigenvalues --   -0.82336  -0.81656  -0.80127  -0.79676  -0.78123
 Alpha  occ. eigenvalues --   -0.77396  -0.76373  -0.75575  -0.74347  -0.73098
 Alpha  occ. eigenvalues --   -0.71011  -0.70595  -0.70105  -0.69577  -0.67868
 Alpha  occ. eigenvalues --   -0.67003  -0.66313  -0.63664  -0.63059  -0.61125
 Alpha  occ. eigenvalues --   -0.59736  -0.58599  -0.58214  -0.57958  -0.57199
 Alpha  occ. eigenvalues --   -0.56493  -0.56273  -0.55485  -0.53536  -0.53230
 Alpha  occ. eigenvalues --   -0.52201  -0.51877  -0.51804  -0.50954  -0.50758
 Alpha  occ. eigenvalues --   -0.49871  -0.49671  -0.49281  -0.48864  -0.48540
 Alpha  occ. eigenvalues --   -0.48006  -0.47620  -0.46952  -0.46017  -0.45302
 Alpha  occ. eigenvalues --   -0.45030  -0.44830  -0.44666  -0.43956  -0.43288
 Alpha  occ. eigenvalues --   -0.43167  -0.42941  -0.42552  -0.42202  -0.41958
 Alpha  occ. eigenvalues --   -0.41458  -0.40968  -0.40896  -0.40741  -0.40472
 Alpha  occ. eigenvalues --   -0.40347  -0.40127  -0.39648  -0.39255  -0.38973
 Alpha  occ. eigenvalues --   -0.38695  -0.38520  -0.38442  -0.38291  -0.37737
 Alpha  occ. eigenvalues --   -0.37467  -0.37432  -0.37127  -0.36930  -0.36563
 Alpha  occ. eigenvalues --   -0.35460  -0.35274  -0.35221  -0.34829  -0.34690
 Alpha  occ. eigenvalues --   -0.34211  -0.33664  -0.32885  -0.32254  -0.31839
 Alpha  occ. eigenvalues --   -0.31567  -0.30242  -0.30235  -0.29537  -0.29191
 Alpha  occ. eigenvalues --   -0.28005  -0.27475  -0.24952  -0.24524  -0.24058
 Alpha  occ. eigenvalues --   -0.23660  -0.23098  -0.22902  -0.22287  -0.18570
 Alpha virt. eigenvalues --   -0.12772  -0.07519  -0.03647  -0.01577  -0.00714
 Alpha virt. eigenvalues --   -0.00287   0.01464   0.01844   0.02837   0.03014
 Alpha virt. eigenvalues --    0.03262   0.04282   0.04768   0.05046   0.05602

 Mulliken charges:
               1
     1  O   -0.249088
     2  O   -0.222748
     3  O   -0.247138
     4  O   -0.114109
     5  O   -0.177788
     6  O   -0.272714
     7  N   -0.004690
     8  N   -0.155895
     9  N   -0.062794
    10  N   -0.258758
    11  C    0.082877
    12  C    0.093180
    13  C   -0.039690
    14  C   -0.071254
    15  C   -0.076124
    16  C   -0.117226
    17  C   -0.144074
    18  C    0.158700
    19  C   -0.064809
    20  C   -0.097066
    21  C    0.217441
    22  C    0.094918
    23  C   -0.056000
    24  C   -0.078248
    25  C    0.088715
    26  C   -0.118864
    27  C    0.003403
    28  C    0.052657
    29  C    0.129986
    30  C    0.094018
    31  C   -0.059790
    32  C    0.025661
    33  C   -0.127004
    34  C    0.154698
    35  C    0.091319
    36  C   -0.118067
    37  C    0.102283
    38  C    0.097123
    39  C   -0.201478
    40  C    0.121676
    41  C   -0.037027
    42  C    0.091224
    43  C    0.021085
    44  H    0.033328
    45  H    0.020721
    46  H   -0.012797
    47  H    0.092795
    48  H    0.117385
    49  H   -0.037744
    50  H    0.007341
    51  H   -0.019512
    52  H    0.023950
    53  H    0.028226
    54  H    0.063930
    55  H    0.033800
    56  H    0.010052
    57  H    0.025803
    58  H    0.051718
    59  H    0.017089
    60  H    0.167915
    61  H    0.022999
    62  H   -0.017281
    63  H   -0.014664
    64  H    0.064340
    65  H    0.076150
    66  H    0.058186
    67  H    0.047444
    68  H    0.032341
    69  H    0.011879
    70  H    0.041224
    71  H    0.039739
    72  H    0.213157
    73  H    0.007617
    74  H    0.034676
    75  H   -0.009973
    76  H    0.077359
    77  H    0.131715
    78  H    0.050772
    79  H   -0.040205
 Sum of Mulliken charges =  -0.00000

 Dipole moment (field-independent basis, Debye):
    X=              5.5944    Y=              2.3880    Z=             -0.8065  Tot=              6.1360
 Quadrupole moment (field-independent basis, Debye-Ang):
   XX=           -229.0291   YY=           -233.5322   ZZ=           -270.2699
   XY=              6.3373   XZ=            -19.6086   YZ=             -6.8563

 Normal termination of Gaussian 16 at Sun Jul 28 18:35:23 2019.
