 Gaussian 16, Revision A.03,
 Gaussian 16:  ES64L-G16RevA.03 25-Dec-2016

 --------------------------
 # td=(NStates=1) B3LYP/SVP
 --------------------------

 --
 TD
 --
 Symbolic Z-matrix:
 Charge =  0 Multiplicity = 1

                         Standard orientation:
 ---------------------------------------------------------------------
 Center     Atomic      Atomic             Coordinates (Angstroms)
 Number     Number       Type             X           Y           Z
 ---------------------------------------------------------------------
      1          8           0       -3.180494   -1.586164   -2.654443
      2          8           0        2.709924    3.714453    2.845286
      3          8           0        3.292768    2.267367    4.410765
      4          8           0        7.774677   -1.589837   -0.557292
      5          8           0        6.765065   -3.203218   -1.602536
      6          8           0       -2.567404    1.753410    1.342265
      7          7           0       -0.216250   -2.302720    1.267859
      8          7           0       -2.566756   -1.291984   -0.437969
      9          7           0        1.251201    0.101346   -0.754512
     10          7           0       -0.931075    1.383790   -0.372057
     11          6           0       -3.360066   -1.343163    0.782137
     12          6           0       -2.606719   -2.212080    1.914632
     13          6           0       -1.210417   -1.828437    2.033159
     14          6           0       -0.592327   -0.859364    2.931651
     15          6           0        0.847891   -0.798020    2.619862
     16          6           0        0.925357   -1.608581    1.446415
     17          6           0       -4.645354   -1.788004    0.445876
     18          6           0        1.862475    0.136100    3.153144
     19          6           0       -4.824515   -2.195890   -0.873943
     20          6           0        2.126447   -1.773159    0.630812
     21          6           0        2.222511   -0.875406   -0.480374
     22          6           0       -3.389284   -1.658613   -1.409413
     23          6           0        3.160480   -0.885651   -1.752429
     24          6           0       -1.276004   -0.061374    3.875035
     25          6           0       -5.779925   -1.979928    1.512211
     26          6           0        2.677454    0.168599   -2.454305
     27          6           0        1.767992    1.475898    2.651086
     28          6           0        1.479105    0.739186   -1.891892
     29          6           0        4.317947   -1.692148   -1.832182
     30          6           0       -5.838738   -2.630705   -1.783350
     31          6           0        5.408862   -1.290551   -0.858303
     32          6           0        3.186550    0.580221   -3.892695
     33          6           0        0.501478    1.564426   -2.381631
     34          6           0        2.733297    2.515605    3.324333
     35          6           0       -0.617333    1.928867   -1.516381
     36          6           0       -6.973960   -3.300866   -1.420534
     37          6           0        6.618617   -2.223929   -1.035874
     38          6           0       -1.498532    3.139435   -1.764427
     39          6           0       -2.189434    3.219523   -0.653594
     40          6           0       -2.040943    2.067506    0.196278
     41          6           0       -1.281566    4.108301   -2.940005
     42          6           0       -3.384700    4.108211   -0.238914
     43          6           0       -2.089445    5.191241   -3.196804
     44          1           0       -3.473059   -0.266796    1.198349
     45          1           0       -2.760890   -3.252799    1.975883
     46          1           0       -3.014515   -2.020414    2.945223
     47          1           0       -0.421088   -2.899282    0.581978
     48          1           0       -1.995590   -0.592281   -0.613433
     49          1           0        1.826528    0.081662    4.237903
     50          1           0        2.803807   -0.491026    2.937125
     51          1           0        2.789820   -2.598786    0.763176
     52          1           0       -2.147418   -0.753925    4.179161
     53          1           0       -0.770474    0.145472    4.872908
     54          1           0       -1.685552    0.986242    3.395070
     55          1           0       -5.911157   -1.023198    2.109935
     56          1           0       -5.329309   -2.766758    2.201395
     57          1           0       -6.793334   -2.354095    1.191164
     58          1           0        2.089702    1.458901    1.699884
     59          1           0        0.765241    2.085494    2.485972
     60          1           0        0.121546    0.323025   -0.138515
     61          1           0        4.759038   -1.696846   -2.848597
     62          1           0        4.136220   -2.875026   -1.743097
     63          1           0       -5.477366   -2.438401   -3.049546
     64          1           0        5.198342   -1.256398    0.216392
     65          1           0        5.600330   -0.230158   -1.263999
     66          1           0        4.127819   -0.003842   -4.120968
     67          1           0        3.529396    1.574053   -3.780336
     68          1           0        2.490584    0.601868   -4.784336
     69          1           0        0.585459    1.948605   -3.493438
     70          1           0       -7.328994   -3.736676   -0.517923
     71          1           0       -7.709658   -3.833121   -2.192011
     72          1           0        3.078165    4.652156    3.413763
     73          1           0       -0.262644    4.122092   -3.437069
     74          1           0       -4.359894    4.100434   -0.893511
     75          1           0       -3.852114    3.642706    0.648706
     76          1           0       -2.979554    5.127785    0.083689
     77          1           0        8.469123   -2.417985   -0.706404
     78          1           0       -1.838980    5.614260   -4.054986
     79          1           0       -2.798855    5.338429   -2.532611
 ---------------------------------------------------------------------

 SCF Done:  E(RB3LYP) =  -1947.73642309     A.U. after   17 cycles

 Excitation energies and oscillator strengths:

 Excited State   1:      Singlet-A      0.9789 eV 1266.57 nm  f=0.0071  <S**2>=0.000
     155 ->156         0.70333
 This state for optimization and/or second-order correction.
 Total Energy, E(TD-HF/TD-DFT) =  -1947.70044937
 Copying the excited state density for this state as the 1-particle RhoCI density.

 The electronic state is 1-A.
 Alpha  occ. eigenvalues --  -19.18609 -19.17517 -19.15086 -19.13635 -19.09849
 Alpha  occ. eigenvalues --  -19.07838 -14.36549 -14.35916 -14.34052 -14.33454
 Alpha  occ. eigenvalues --  -10.32763 -10.30803 -10.29925 -10.26984 -10.26294
 Alpha  occ. eigenvalues --  -10.25883 -10.25464 -10.23410 -10.23123 -10.22883
 Alpha  occ. eigenvalues --  -10.22755 -10.22546 -10.22539 -10.22484 -10.22409
 Alpha  occ. eigenvalues --  -10.21997 -10.21413 -10.21378 -10.20959 -10.20863
 Alpha  occ. eigenvalues --  -10.20801 -10.20523 -10.20394 -10.19929 -10.19894
 Alpha  occ. eigenvalues --  -10.19604 -10.19488 -10.19473 -10.19462 -10.18377
 Alpha  occ. eigenvalues --  -10.17734 -10.17198 -10.16588  -1.12398  -1.07981
 Alpha  occ. eigenvalues --   -1.01423  -1.00187  -1.00142  -0.98766  -0.98222
 Alpha  occ. eigenvalues --   -0.96569  -0.95310  -0.93141  -0.84524  -0.82113
 Alpha  occ. eigenvalues --   -0.81797  -0.81325  -0.80652  -0.78909  -0.78546
 Alpha  occ. eigenvalues --   -0.77261  -0.76365  -0.75846  -0.73995  -0.72287
 Alpha  occ. eigenvalues --   -0.70772  -0.69919  -0.69165  -0.68469  -0.67195
 Alpha  occ. eigenvalues --   -0.66917  -0.66598  -0.64063  -0.61278  -0.61070
 Alpha  occ. eigenvalues --   -0.60329  -0.60057  -0.57960  -0.56688  -0.56585
 Alpha  occ. eigenvalues --   -0.56507  -0.55569  -0.55331  -0.54165  -0.53127
 Alpha  occ. eigenvalues --   -0.52530  -0.51959  -0.50845  -0.50618  -0.50274
 Alpha  occ. eigenvalues --   -0.49378  -0.49201  -0.48921  -0.48493  -0.47263
 Alpha  occ. eigenvalues --   -0.47009  -0.46735  -0.46678  -0.46232  -0.45736
 Alpha  occ. eigenvalues --   -0.45421  -0.45139  -0.44475  -0.44279  -0.43869
 Alpha  occ. eigenvalues --   -0.43654  -0.43504  -0.42770  -0.42105  -0.42040
 Alpha  occ. eigenvalues --   -0.41818  -0.41731  -0.41173  -0.40992  -0.40754
 Alpha  occ. eigenvalues --   -0.40634  -0.40385  -0.40261  -0.39939  -0.39553
 Alpha  occ. eigenvalues --   -0.39466  -0.39177  -0.38988  -0.38603  -0.38107
 Alpha  occ. eigenvalues --   -0.37431  -0.37138  -0.36943  -0.36486  -0.36118
 Alpha  occ. eigenvalues --   -0.35367  -0.34860  -0.34539  -0.34288  -0.33727
 Alpha  occ. eigenvalues --   -0.33269  -0.32853  -0.31979  -0.31585  -0.30825
 Alpha  occ. eigenvalues --   -0.30319  -0.30227  -0.29988  -0.29721  -0.28951
 Alpha  occ. eigenvalues --   -0.27154  -0.27038  -0.25746  -0.25513  -0.25445
 Alpha  occ. eigenvalues --   -0.22774  -0.22427  -0.22034  -0.21939  -0.18857
 Alpha virt. eigenvalues --   -0.12942  -0.07748  -0.04558  -0.02971  -0.02230
 Alpha virt. eigenvalues --   -0.00552   0.01931   0.02025   0.02279   0.02724
 Alpha virt. eigenvalues --    0.02844   0.03359   0.03944   0.04375   0.04977

 Mulliken charges:
               1
     1  O   -0.296567
     2  O   -0.241615
     3  O   -0.276329
     4  O   -0.288093
     5  O   -0.146464
     6  O   -0.270555
     7  N    0.078479
     8  N   -0.053573
     9  N   -0.232694
    10  N   -0.311816
    11  C    0.101210
    12  C    0.214183
    13  C   -0.176926
    14  C   -0.104787
    15  C   -0.119930
    16  C   -0.050051
    17  C   -0.189175
    18  C    0.165248
    19  C   -0.023783
    20  C   -0.088776
    21  C    0.086767
    22  C    0.074614
    23  C   -0.011697
    24  C   -0.007842
    25  C    0.043183
    26  C   -0.143382
    27  C    0.058080
    28  C    0.161947
    29  C    0.013716
    30  C   -0.040221
    31  C   -0.014081
    32  C    0.089708
    33  C   -0.154649
    34  C    0.120873
    35  C    0.080784
    36  C   -0.089991
    37  C    0.128926
    38  C    0.064619
    39  C   -0.205007
    40  C    0.237962
    41  C   -0.097035
    42  C    0.034590
    43  C    0.150062
    44  H    0.072347
    45  H   -0.026264
    46  H   -0.018841
    47  H    0.059728
    48  H    0.080641
    49  H    0.001041
    50  H    0.005141
    51  H    0.000914
    52  H   -0.004965
    53  H    0.013036
    54  H    0.071435
    55  H    0.031658
    56  H    0.033170
    57  H    0.036081
    58  H   -0.029057
    59  H    0.065641
    60  H    0.320994
    61  H    0.014556
    62  H    0.045324
    63  H    0.086427
    64  H    0.058095
    65  H    0.059812
    66  H    0.013977
    67  H    0.003166
    68  H    0.053582
    69  H    0.034600
    70  H    0.013540
    71  H    0.029306
    72  H    0.276053
    73  H    0.028823
    74  H    0.053376
    75  H    0.023743
    76  H    0.041236
    77  H    0.214174
    78  H   -0.004694
    79  H   -0.027708
 Sum of Mulliken charges =  -0.00000

 Dipole moment (field-independent basis, Debye):
    X=              2.2980    Y=              2.7421    Z=             -2.0043  Tot=              4.1008
 Quadrupole moment (field-independent basis, Debye-Ang):
   XX=           -246.9532   YY=           -226.5051   ZZ=           -269.6448
   XY=              0.4862   XZ=            -24.6805   YZ=            -17.7489

 Normal termination of Gaussian 16 at Wed Jul 31 06:32:55 2019.
