 Gaussian 16, Revision A.03,
 Gaussian 16:  ES64L-G16RevA.03 25-Dec-2016

 --------------------------
 # td=(NStates=1) B3LYP/SVP
 --------------------------

 --
 TD
 --
 Symbolic Z-matrix:
 Charge =  0 Multiplicity = 1

                         Standard orientation:
 ---------------------------------------------------------------------
 Center     Atomic      Atomic             Coordinates (Angstroms)
 Number     Number       Type             X           Y           Z
 ---------------------------------------------------------------------
      1          8           0       -3.213641   -1.309554   -2.745623
      2          8           0        2.875540    3.303506    3.191579
      3          8           0        3.792000    1.555187    4.177947
      4          8           0        7.718749   -1.260273   -0.662561
      5          8           0        6.773898   -3.003695   -1.842468
      6          8           0       -2.507391    1.455395    1.325515
      7          7           0       -0.195388   -2.315717    0.891552
      8          7           0       -2.583507   -1.238538   -0.568013
      9          7           0        1.203086   -0.000005   -0.774096
     10          7           0       -0.945900    1.350053   -0.284731
     11          6           0       -3.386029   -1.291072    0.732221
     12          6           0       -2.601669   -2.323947    1.681621
     13          6           0       -1.218039   -1.967567    1.803903
     14          6           0       -0.662200   -1.157293    2.776455
     15          6           0        0.775297   -0.933595    2.489179
     16          6           0        0.993315   -1.721354    1.311884
     17          6           0       -4.711355   -1.826866    0.330117
     18          6           0        1.790722   -0.261864    3.245478
     19          6           0       -4.752316   -1.922536   -1.039383
     20          6           0        2.099926   -1.891853    0.364677
     21          6           0        2.192460   -0.913672   -0.646820
     22          6           0       -3.527705   -1.463354   -1.649608
     23          6           0        3.030005   -0.811913   -1.746345
     24          6           0       -1.360042   -0.377524    3.861730
     25          6           0       -5.792694   -2.036184    1.249976
     26          6           0        2.629810    0.395975   -2.540506
     27          6           0        1.744042    1.247278    2.910424
     28          6           0        1.441464    0.845509   -1.867141
     29          6           0        4.186208   -1.730279   -1.837877
     30          6           0       -5.816117   -2.555657   -1.900723
     31          6           0        5.444852   -1.033771   -1.133179
     32          6           0        3.209577    0.842611   -3.749691
     33          6           0        0.463874    1.999271   -2.140260
     34          6           0        2.868373    2.024207    3.499681
     35          6           0       -0.569213    2.218018   -1.260147
     36          6           0       -6.848477   -3.207467   -1.526347
     37          6           0        6.688739   -1.935724   -1.261221
     38          6           0       -1.478609    3.342362   -1.327314
     39          6           0       -2.360800    3.275110   -0.286386
     40          6           0       -1.916206    2.007323    0.396050
     41          6           0       -1.315317    4.331413   -2.286428
     42          6           0       -3.386790    4.257990    0.142953
     43          6           0       -2.335869    5.294822   -2.658867
     44          1           0       -3.389280   -0.247155    1.245717
     45          1           0       -2.793912   -3.307991    1.254714
     46          1           0       -3.139030   -2.519404    2.698714
     47          1           0       -0.348801   -3.042392    0.048259
     48          1           0       -2.025673   -0.406848   -0.888425
     49          1           0        1.582351   -0.432595    4.257207
     50          1           0        2.998472   -0.712572    3.121872
     51          1           0        2.712608   -2.800500    0.390953
     52          1           0       -1.958005   -0.894818    4.651783
     53          1           0       -0.550407    0.239421    4.533849
     54          1           0       -2.176718    0.146160    3.362056
     55          1           0       -5.693794   -1.409144    2.062457
     56          1           0       -5.574494   -2.943358    1.978598
     57          1           0       -6.909199   -2.217778    0.828480
     58          1           0        1.738197    1.384608    1.739842
     59          1           0        0.657659    1.715368    3.193999
     60          1           0        0.379650    0.416426   -0.277952
     61          1           0        4.425878   -2.060717   -2.914822
     62          1           0        3.918356   -2.610475   -1.394863
     63          1           0       -5.678044   -2.339451   -2.929875
     64          1           0        5.369565   -0.788342   -0.052155
     65          1           0        5.761083   -0.105010   -1.709526
     66          1           0        3.857562    0.078512   -4.463986
     67          1           0        3.974177    1.781214   -3.696233
     68          1           0        2.395419    1.307614   -4.227754
     69          1           0        0.630972    2.606377   -2.986215
     70          1           0       -6.905881   -3.634255   -0.418659
     71          1           0       -7.562985   -3.552630   -2.246436
     72          1           0        3.557117    3.803738    3.380479
     73          1           0       -0.396157    4.265357   -2.959785
     74          1           0       -4.316595    4.418462   -0.298507
     75          1           0       -3.761160    3.879448    1.150528
     76          1           0       -2.953321    5.234896    0.199980
     77          1           0        8.509208   -1.807613   -1.055283
     78          1           0       -2.067178    6.161567   -3.500877
     79          1           0       -3.244198    5.588434   -2.114871
 ---------------------------------------------------------------------

 SCF Done:  E(RB3LYP) =  -1947.82115235     A.U. after   22 cycles

 Excitation energies and oscillator strengths:

 Excited State   1:      Singlet-A      0.9334 eV 1328.30 nm  f=0.0082  <S**2>=0.000
     155 ->156         0.70158
 This state for optimization and/or second-order correction.
 Total Energy, E(TD-HF/TD-DFT) =  -1947.78685029
 Copying the excited state density for this state as the 1-particle RhoCI density.

 The electronic state is 1-A.
 Alpha  occ. eigenvalues --  -19.20111 -19.16919 -19.14862 -19.10958 -19.10274
 Alpha  occ. eigenvalues --  -19.08510 -14.36980 -14.36229 -14.30343 -14.29968
 Alpha  occ. eigenvalues --  -10.33631 -10.31474 -10.27227 -10.26998 -10.25205
 Alpha  occ. eigenvalues --  -10.25064 -10.24187 -10.23681 -10.23354 -10.23186
 Alpha  occ. eigenvalues --  -10.22868 -10.22641 -10.22370 -10.22040 -10.21943
 Alpha  occ. eigenvalues --  -10.21759 -10.21304 -10.21250 -10.21161 -10.20619
 Alpha  occ. eigenvalues --  -10.20226 -10.20010 -10.19860 -10.19807 -10.19616
 Alpha  occ. eigenvalues --  -10.19442 -10.19141 -10.18162 -10.17744 -10.17699
 Alpha  occ. eigenvalues --  -10.17627 -10.17571 -10.17056  -1.10753  -1.10109
 Alpha  occ. eigenvalues --   -1.03985  -1.01934  -1.01761  -0.99320  -0.98809
 Alpha  occ. eigenvalues --   -0.94455  -0.93610  -0.89087  -0.83642  -0.82251
 Alpha  occ. eigenvalues --   -0.81716  -0.80176  -0.80012  -0.78725  -0.78042
 Alpha  occ. eigenvalues --   -0.76675  -0.75916  -0.74873  -0.73900  -0.73432
 Alpha  occ. eigenvalues --   -0.70808  -0.70417  -0.70162  -0.69033  -0.67952
 Alpha  occ. eigenvalues --   -0.66737  -0.65212  -0.62734  -0.61927  -0.60630
 Alpha  occ. eigenvalues --   -0.59832  -0.58858  -0.57444  -0.57188  -0.56090
 Alpha  occ. eigenvalues --   -0.55297  -0.54745  -0.53466  -0.53178  -0.52630
 Alpha  occ. eigenvalues --   -0.51793  -0.50870  -0.50381  -0.50184  -0.49503
 Alpha  occ. eigenvalues --   -0.49238  -0.48887  -0.48327  -0.47556  -0.47313
 Alpha  occ. eigenvalues --   -0.46846  -0.46366  -0.46034  -0.45709  -0.45266
 Alpha  occ. eigenvalues --   -0.45241  -0.44726  -0.44349  -0.44214  -0.43778
 Alpha  occ. eigenvalues --   -0.43611  -0.43020  -0.42085  -0.41998  -0.41862
 Alpha  occ. eigenvalues --   -0.41571  -0.41399  -0.41005  -0.40684  -0.40535
 Alpha  occ. eigenvalues --   -0.40496  -0.40171  -0.40129  -0.39875  -0.39708
 Alpha  occ. eigenvalues --   -0.39461  -0.38812  -0.38473  -0.38290  -0.38193
 Alpha  occ. eigenvalues --   -0.37587  -0.37326  -0.37215  -0.36714  -0.36346
 Alpha  occ. eigenvalues --   -0.35710  -0.35616  -0.35258  -0.34916  -0.34078
 Alpha  occ. eigenvalues --   -0.33982  -0.33443  -0.32194  -0.31409  -0.31157
 Alpha  occ. eigenvalues --   -0.31007  -0.30060  -0.29971  -0.28906  -0.28222
 Alpha  occ. eigenvalues --   -0.26726  -0.25459  -0.25178  -0.24435  -0.23345
 Alpha  occ. eigenvalues --   -0.22868  -0.22497  -0.21891  -0.21361  -0.19332
 Alpha virt. eigenvalues --   -0.13202  -0.08429  -0.03914  -0.02428  -0.01487
 Alpha virt. eigenvalues --    0.00174   0.01923   0.02362   0.02681   0.03115
 Alpha virt. eigenvalues --    0.03393   0.04105   0.04460   0.05058   0.05270

 Mulliken charges:
               1
     1  O   -0.154744
     2  O   -0.091147
     3  O   -0.258311
     4  O   -0.223139
     5  O   -0.226438
     6  O   -0.239136
     7  N   -0.146324
     8  N   -0.293478
     9  N   -0.081043
    10  N   -0.294203
    11  C    0.014778
    12  C    0.147033
    13  C    0.007088
    14  C   -0.099306
    15  C   -0.079265
    16  C    0.015672
    17  C   -0.120254
    18  C    0.070448
    19  C   -0.086973
    20  C   -0.088982
    21  C    0.138582
    22  C    0.099522
    23  C   -0.112051
    24  C    0.047076
    25  C    0.099022
    26  C   -0.072652
    27  C   -0.103982
    28  C    0.048086
    29  C    0.148540
    30  C    0.042972
    31  C   -0.031749
    32  C   -0.004161
    33  C   -0.062631
    34  C    0.136640
    35  C    0.122893
    36  C   -0.047477
    37  C    0.153884
    38  C    0.100882
    39  C   -0.162524
    40  C    0.151452
    41  C   -0.084874
    42  C    0.093279
    43  C   -0.086897
    44  H    0.097137
    45  H   -0.040870
    46  H    0.004599
    47  H    0.167677
    48  H    0.152460
    49  H   -0.002953
    50  H    0.040662
    51  H    0.029903
    52  H   -0.007072
    53  H    0.023786
    54  H    0.033759
    55  H   -0.021580
    56  H    0.014490
    57  H    0.068320
    58  H    0.051535
    59  H    0.079752
    60  H    0.193381
    61  H    0.033041
    62  H   -0.018716
    63  H   -0.020069
    64  H    0.060766
    65  H    0.057247
    66  H    0.062753
    67  H    0.042006
    68  H    0.016158
    69  H   -0.040826
    70  H    0.033117
    71  H    0.009630
    72  H    0.122894
    73  H    0.017957
    74  H    0.018147
    75  H    0.023512
    76  H    0.021385
    77  H    0.204874
    78  H    0.046809
    79  H    0.038221
 Sum of Mulliken charges =  -0.00000

 Dipole moment (field-independent basis, Debye):
    X=              3.1757    Y=              2.3474    Z=             -1.8073  Tot=              4.3430
 Quadrupole moment (field-independent basis, Debye-Ang):
   XX=           -231.1882   YY=           -235.0083   ZZ=           -265.2575
   XY=              4.8929   XZ=            -28.7002   YZ=            -11.7116

 Normal termination of Gaussian 16 at Mon Jul 29 18:55:47 2019.
