 Gaussian 16, Revision A.03,
 Gaussian 16:  ES64L-G16RevA.03 25-Dec-2016

 --------------------------
 # td=(NStates=1) B3LYP/SVP
 --------------------------

 --
 TD
 --
 Symbolic Z-matrix:
 Charge =  0 Multiplicity = 1

                         Standard orientation:
 ---------------------------------------------------------------------
 Center     Atomic      Atomic             Coordinates (Angstroms)
 Number     Number       Type             X           Y           Z
 ---------------------------------------------------------------------
      1          8           0       -3.434858   -1.617994   -2.921948
      2          8           0        2.743567    3.246187    3.380142
      3          8           0        3.770184    1.321591    4.357582
      4          8           0        7.789060   -1.693632   -0.630826
      5          8           0        6.769491   -3.009750   -2.112582
      6          8           0       -2.637743    1.509932    1.324017
      7          7           0       -0.251380   -2.451788    0.853756
      8          7           0       -2.805857   -1.153610   -0.642405
      9          7           0        1.138693    0.027710   -0.757885
     10          7           0       -0.957110    1.474247   -0.272084
     11          6           0       -3.516171   -1.299869    0.670420
     12          6           0       -2.685847   -2.303579    1.582751
     13          6           0       -1.243228   -2.046540    1.797676
     14          6           0       -0.587901   -1.125491    2.660666
     15          6           0        0.820221   -1.178625    2.439214
     16          6           0        1.026841   -1.996535    1.294354
     17          6           0       -4.880967   -1.818602    0.242030
     18          6           0        1.868302   -0.395621    3.231422
     19          6           0       -4.949522   -1.957316   -1.031966
     20          6           0        2.182948   -1.913318    0.283027
     21          6           0        2.208117   -0.906266   -0.603535
     22          6           0       -3.582559   -1.547248   -1.676670
     23          6           0        3.043802   -0.671789   -1.657621
     24          6           0       -1.329406   -0.326440    3.733814
     25          6           0       -5.921182   -2.052748    1.335851
     26          6           0        2.813718    0.528323   -2.442115
     27          6           0        1.845548    1.065813    2.831785
     28          6           0        1.497479    0.923047   -1.801825
     29          6           0        4.300358   -1.577758   -2.005345
     30          6           0       -5.928365   -2.501415   -1.922214
     31          6           0        5.511010   -1.162498   -1.046006
     32          6           0        3.358072    1.219144   -3.543394
     33          6           0        0.717980    1.999058   -2.045859
     34          6           0        2.915907    1.910318    3.620669
     35          6           0       -0.543301    2.228906   -1.245191
     36          6           0       -6.991905   -3.351450   -1.524870
     37          6           0        6.592620   -2.064105   -1.305842
     38          6           0       -1.436723    3.513970   -1.388334
     39          6           0       -2.299040    3.415658   -0.286011
     40          6           0       -2.036667    2.059912    0.300873
     41          6           0       -1.164890    4.688163   -2.303084
     42          6           0       -3.335771    4.288778    0.281194
     43          6           0       -1.938365    5.721469   -2.339308
     44          1           0       -3.601905   -0.296787    1.194004
     45          1           0       -2.803034   -3.274952    1.093562
     46          1           0       -3.288708   -2.230320    2.699590
     47          1           0       -0.563796   -2.652754   -0.084897
     48          1           0       -2.206439   -0.271936   -0.908289
     49          1           0        1.571113   -0.607002    4.254886
     50          1           0        2.870662   -0.933785    3.121698
     51          1           0        2.827885   -2.794045    0.217567
     52          1           0       -2.057696   -0.920555    4.134874
     53          1           0       -0.660017   -0.018812    4.609711
     54          1           0       -1.676401    0.809770    3.210789
     55          1           0       -5.859746   -1.307020    2.112485
     56          1           0       -5.817971   -3.079332    1.682507
     57          1           0       -6.843143   -1.905234    0.812210
     58          1           0        2.229954    1.290089    1.827360
     59          1           0        0.980588    1.688701    2.952157
     60          1           0        0.496150    0.347861   -0.108545
     61          1           0        4.560895   -1.364216   -3.227950
     62          1           0        4.037664   -2.500781   -1.851629
     63          1           0       -5.796005   -2.394056   -2.894690
     64          1           0        5.106013   -1.363701   -0.116395
     65          1           0        5.740307   -0.136286   -1.161773
     66          1           0        4.497096    0.743600   -3.698021
     67          1           0        3.356943    2.484552   -3.720756
     68          1           0        2.812111    0.917578   -4.397188
     69          1           0        0.796439    2.791063   -3.056516
     70          1           0       -7.231689   -3.497557   -0.488272
     71          1           0       -7.751152   -3.514244   -2.289386
     72          1           0        3.515001    3.637180    3.902806
     73          1           0       -0.439012    4.580920   -3.126007
     74          1           0       -3.996699    4.728455   -0.623820
     75          1           0       -3.955265    3.992963    1.109173
     76          1           0       -2.888299    5.193645    0.370600
     77          1           0        8.422785   -2.300453   -1.024090
     78          1           0       -1.575670    6.562956   -3.095426
     79          1           0       -2.663669    6.075849   -1.692406
 ---------------------------------------------------------------------

 SCF Done:  E(RB3LYP) =  -1947.77943879     A.U. after   18 cycles

 Excitation energies and oscillator strengths:

 Excited State   1:      Singlet-A      1.0578 eV 1172.12 nm  f=0.0047  <S**2>=0.000
     155 ->156         0.70306
 This state for optimization and/or second-order correction.
 Total Energy, E(TD-HF/TD-DFT) =  -1947.74056623
 Copying the excited state density for this state as the 1-particle RhoCI density.

 The electronic state is 1-A.
 Alpha  occ. eigenvalues --  -19.20372 -19.17142 -19.14112 -19.13124 -19.12942
 Alpha  occ. eigenvalues --  -19.08606 -14.36543 -14.36082 -14.34117 -14.32199
 Alpha  occ. eigenvalues --  -10.33537 -10.32656 -10.29586 -10.27301 -10.26784
 Alpha  occ. eigenvalues --  -10.26751 -10.25260 -10.24383 -10.24339 -10.23651
 Alpha  occ. eigenvalues --  -10.23394 -10.23105 -10.22978 -10.22854 -10.22762
 Alpha  occ. eigenvalues --  -10.22519 -10.22491 -10.22379 -10.21756 -10.21131
 Alpha  occ. eigenvalues --  -10.21070 -10.20697 -10.20556 -10.20454 -10.19575
 Alpha  occ. eigenvalues --  -10.19039 -10.18652 -10.18336 -10.18108 -10.17820
 Alpha  occ. eigenvalues --  -10.17811 -10.17294 -10.16992  -1.08685  -1.08220
 Alpha  occ. eigenvalues --   -1.01327  -0.98880  -0.98731  -0.98522  -0.98308
 Alpha  occ. eigenvalues --   -0.94660  -0.93881  -0.91509  -0.84398  -0.82910
 Alpha  occ. eigenvalues --   -0.82731  -0.80818  -0.80750  -0.79895  -0.78552
 Alpha  occ. eigenvalues --   -0.77237  -0.75774  -0.75367  -0.74641  -0.73234
 Alpha  occ. eigenvalues --   -0.71741  -0.69915  -0.69647  -0.69489  -0.67498
 Alpha  occ. eigenvalues --   -0.66430  -0.65930  -0.63032  -0.61034  -0.59856
 Alpha  occ. eigenvalues --   -0.59199  -0.59048  -0.58602  -0.57862  -0.56912
 Alpha  occ. eigenvalues --   -0.56243  -0.55710  -0.54833  -0.54167  -0.52227
 Alpha  occ. eigenvalues --   -0.51804  -0.51612  -0.51152  -0.50609  -0.49916
 Alpha  occ. eigenvalues --   -0.49156  -0.48599  -0.48523  -0.48466  -0.47933
 Alpha  occ. eigenvalues --   -0.47716  -0.47075  -0.46830  -0.46583  -0.46451
 Alpha  occ. eigenvalues --   -0.45777  -0.45680  -0.44963  -0.44364  -0.43938
 Alpha  occ. eigenvalues --   -0.43064  -0.42748  -0.42670  -0.42506  -0.42203
 Alpha  occ. eigenvalues --   -0.42016  -0.41847  -0.41284  -0.40927  -0.40799
 Alpha  occ. eigenvalues --   -0.40762  -0.40514  -0.40400  -0.40047  -0.40015
 Alpha  occ. eigenvalues --   -0.39680  -0.39320  -0.39257  -0.38425  -0.37813
 Alpha  occ. eigenvalues --   -0.37485  -0.37317  -0.36763  -0.36443  -0.36080
 Alpha  occ. eigenvalues --   -0.35967  -0.35025  -0.34897  -0.34857  -0.34286
 Alpha  occ. eigenvalues --   -0.34099  -0.33209  -0.33082  -0.32517  -0.32250
 Alpha  occ. eigenvalues --   -0.31877  -0.30259  -0.29731  -0.29394  -0.28969
 Alpha  occ. eigenvalues --   -0.27400  -0.26944  -0.26787  -0.25209  -0.24938
 Alpha  occ. eigenvalues --   -0.23350  -0.22825  -0.22588  -0.22209  -0.19449
 Alpha virt. eigenvalues --   -0.13222  -0.08751  -0.03789  -0.03115  -0.02698
 Alpha virt. eigenvalues --   -0.00545   0.00195   0.00345   0.01964   0.02330
 Alpha virt. eigenvalues --    0.03086   0.03216   0.04052   0.04416   0.04801

 Mulliken charges:
               1
     1  O   -0.273146
     2  O   -0.200495
     3  O   -0.280142
     4  O   -0.231043
     5  O   -0.261554
     6  O   -0.273775
     7  N   -0.138329
     8  N   -0.238300
     9  N   -0.109820
    10  N   -0.213807
    11  C    0.054216
    12  C    0.120040
    13  C   -0.027391
    14  C   -0.117242
    15  C   -0.152062
    16  C    0.005769
    17  C   -0.207366
    18  C    0.160911
    19  C   -0.013634
    20  C   -0.141862
    21  C    0.228427
    22  C    0.146948
    23  C   -0.149669
    24  C    0.039596
    25  C    0.139306
    26  C   -0.023144
    27  C    0.029205
    28  C    0.137146
    29  C    0.093022
    30  C    0.009978
    31  C    0.116932
    32  C   -0.027650
    33  C   -0.153475
    34  C    0.144661
    35  C    0.017870
    36  C   -0.021340
    37  C    0.162270
    38  C    0.004312
    39  C   -0.193120
    40  C    0.171419
    41  C    0.031925
    42  C    0.155390
    43  C   -0.036800
    44  H    0.067336
    45  H   -0.014960
    46  H    0.029117
    47  H    0.124826
    48  H    0.180518
    49  H    0.010834
    50  H    0.014289
    51  H    0.019872
    52  H   -0.011105
    53  H   -0.002142
    54  H    0.079777
    55  H    0.013041
    56  H    0.036572
    57  H    0.017967
    58  H    0.026142
    59  H    0.030945
    60  H    0.139734
    61  H    0.053062
    62  H   -0.029526
    63  H   -0.053067
    64  H    0.022441
    65  H    0.043715
    66  H    0.049893
    67  H    0.077919
    68  H    0.043017
    69  H    0.050501
    70  H    0.002602
    71  H    0.022624
    72  H    0.197636
    73  H    0.005095
    74  H    0.029189
    75  H    0.043300
    76  H   -0.009831
    77  H    0.171952
    78  H    0.037375
    79  H   -0.004837
 Sum of Mulliken charges =  -0.00000

 Dipole moment (field-independent basis, Debye):
    X=              2.2364    Y=              6.5281    Z=             -1.0799  Tot=              6.9846
 Quadrupole moment (field-independent basis, Debye-Ang):
   XX=           -253.6586   YY=           -235.1212   ZZ=           -265.8934
   XY=              2.2354   XZ=            -24.2325   YZ=            -15.5392

 Normal termination of Gaussian 16 at Fri Jul 26 02:03:51 2019.
