 Gaussian 16, Revision A.03,
 Gaussian 16:  ES64L-G16RevA.03 25-Dec-2016

 --------------------------
 # td=(NStates=1) B3LYP/SVP
 --------------------------

 --
 TD
 --
 Symbolic Z-matrix:
 Charge =  0 Multiplicity = 1

                         Standard orientation:
 ---------------------------------------------------------------------
 Center     Atomic      Atomic             Coordinates (Angstroms)
 Number     Number       Type             X           Y           Z
 ---------------------------------------------------------------------
      1          8           0        5.213517    0.014307   -3.282531
      2          8           0       -2.947309   -3.121103    3.097012
      3          8           0       -3.371886   -0.912629    3.118837
      4          8           0       -2.322888    7.266463    1.378230
      5          8           0       -0.834042    6.998188   -0.423644
      6          8           0       -1.665058   -4.070208    0.071265
      7          7           0        2.386556    1.021812    0.764280
      8          7           0        4.380080   -0.470214   -1.080393
      9          7           0       -1.887554    0.702989   -0.360184
     10          7           0       -2.450915   -1.934934   -0.485700
     11          6           0        4.886714   -1.054524    0.154018
     12          6           0        4.429784   -0.312579    1.298800
     13          6           0        2.948454   -0.008331    1.383700
     14          6           0        1.981111   -0.641838    2.161613
     15          6           0        0.692047   -0.055781    1.871238
     16          6           0        1.006342    1.020128    0.868969
     17          6           0        6.302273   -1.243350   -0.164536
     18          6           0       -0.588424   -0.303119    2.621991
     19          6           0        6.594402   -0.817575   -1.463297
     20          6           0        0.171549    1.912329    0.209453
     21          6           0       -1.123706    1.789626   -0.324472
     22          6           0        5.340911   -0.417646   -2.118011
     23          6           0       -1.941018    2.888140   -0.847692
     24          6           0        2.298528   -1.707794    3.118489
     25          6           0        7.296323   -1.671906    0.854077
     26          6           0       -3.176409    2.310019   -1.361163
     27          6           0       -1.060165   -1.710459    2.744009
     28          6           0       -3.005368    0.914979   -1.065114
     29          6           0       -1.649104    4.343471   -0.921561
     30          6           0        7.850864   -0.460423   -2.101570
     31          6           0       -2.139790    5.062280    0.418582
     32          6           0       -4.374674    2.962955   -1.945384
     33          6           0       -3.901727   -0.205736   -1.377976
     34          6           0       -2.610581   -1.811706    3.015400
     35          6           0       -3.630536   -1.567606   -1.001545
     36          6           0        9.159681   -0.374126   -1.696336
     37          6           0       -1.639000    6.539130    0.364075
     38          6           0       -4.396106   -2.729938   -1.463919
     39          6           0       -3.652104   -3.869207   -1.069544
     40          6           0       -2.503731   -3.372138   -0.416628
     41          6           0       -5.664049   -2.659942   -2.235451
     42          6           0       -4.036157   -5.248874   -1.221811
     43          6           0       -6.391732   -3.674975   -2.760392
     44          1           0        4.478142   -2.116426    0.256184
     45          1           0        4.788482    0.833347    1.583968
     46          1           0        4.842755   -0.689695    2.115664
     47          1           0        2.726425    1.659167   -0.015146
     48          1           0        3.621504   -0.525711   -1.384421
     49          1           0       -0.270436    0.305944    3.667079
     50          1           0       -1.483126    0.346307    2.295244
     51          1           0        0.651349    2.873538   -0.053430
     52          1           0        3.500370   -1.939975    3.063144
     53          1           0        1.961510   -1.540428    4.323263
     54          1           0        1.886524   -2.718993    2.842749
     55          1           0        7.159448   -2.423161    1.580739
     56          1           0        7.728777   -0.714123    1.277404
     57          1           0        8.438143   -1.970876    0.315234
     58          1           0       -0.697893   -2.405226    1.859671
     59          1           0       -0.508333   -2.157161    3.775312
     60          1           0       -1.571342   -0.309476   -0.231895
     61          1           0       -2.101380    4.572327   -1.929489
     62          1           0       -0.629602    4.532015   -1.257088
     63          1           0        7.637466   -0.312167   -3.159988
     64          1           0       -1.647096    4.632988    1.332102
     65          1           0       -3.310384    5.126687    0.565795
     66          1           0       -4.363484    4.069112   -2.206955
     67          1           0       -5.411133    3.085829   -1.177041
     68          1           0       -4.803233    2.395839   -2.951234
     69          1           0       -4.761560   -0.045419   -2.232784
     70          1           0        9.501316   -0.287106   -0.766752
     71          1           0        9.964408   -0.124244   -2.348743
     72          1           0       -3.917602   -3.058755    3.249986
     73          1           0       -6.112380   -1.656799   -2.460349
     74          1           0       -5.244838   -5.452361   -1.179767
     75          1           0       -3.662587   -5.590403   -2.382262
     76          1           0       -3.375577   -5.983577   -0.408325
     77          1           0       -2.037778    8.299946    1.294996
     78          1           0       -7.226854   -3.521555   -3.388522
     79          1           0       -6.173456   -4.768033   -2.571787
 ---------------------------------------------------------------------

 SCF Done:  E(RB3LYP) =  -1947.76978566     A.U. after   23 cycles

 Excitation energies and oscillator strengths:

 Excited State   1:      Singlet-A      1.8878 eV  656.75 nm  f=0.3996  <S**2>=0.000
     154 ->156         0.17719
     155 ->156         0.68663
     155 <-156        -0.13730
 This state for optimization and/or second-order correction.
 Total Energy, E(TD-HF/TD-DFT) =  -1947.70040888
 Copying the excited state density for this state as the 1-particle RhoCI density.

 The electronic state is 1-A.
 Alpha  occ. eigenvalues --  -19.18973 -19.17134 -19.14627 -19.12455 -19.10961
 Alpha  occ. eigenvalues --  -19.09576 -14.40037 -14.36172 -14.34162 -14.28074
 Alpha  occ. eigenvalues --  -10.33421 -10.31133 -10.29114 -10.26163 -10.25003
 Alpha  occ. eigenvalues --  -10.24394 -10.24329 -10.24082 -10.23879 -10.23648
 Alpha  occ. eigenvalues --  -10.23559 -10.23134 -10.22906 -10.22615 -10.22294
 Alpha  occ. eigenvalues --  -10.22271 -10.22169 -10.21699 -10.21608 -10.21338
 Alpha  occ. eigenvalues --  -10.21225 -10.21156 -10.21048 -10.20932 -10.20925
 Alpha  occ. eigenvalues --  -10.20707 -10.20364 -10.19973 -10.19944 -10.19771
 Alpha  occ. eigenvalues --  -10.19236 -10.19023 -10.18538  -1.09326  -1.07462
 Alpha  occ. eigenvalues --   -1.02114  -1.01985  -1.00772  -1.00346  -1.00055
 Alpha  occ. eigenvalues --   -0.99588  -0.95963  -0.90989  -0.84191  -0.82717
 Alpha  occ. eigenvalues --   -0.81829  -0.81322  -0.80304  -0.79149  -0.77632
 Alpha  occ. eigenvalues --   -0.76465  -0.75953  -0.75651  -0.74158  -0.72935
 Alpha  occ. eigenvalues --   -0.71451  -0.70430  -0.69626  -0.68433  -0.67771
 Alpha  occ. eigenvalues --   -0.67070  -0.65938  -0.63809  -0.62944  -0.60474
 Alpha  occ. eigenvalues --   -0.59503  -0.58357  -0.58132  -0.57605  -0.56931
 Alpha  occ. eigenvalues --   -0.55981  -0.55384  -0.55305  -0.54686  -0.53674
 Alpha  occ. eigenvalues --   -0.52872  -0.51930  -0.50633  -0.49747  -0.49217
 Alpha  occ. eigenvalues --   -0.49108  -0.48711  -0.48190  -0.47983  -0.47687
 Alpha  occ. eigenvalues --   -0.47505  -0.46461  -0.46274  -0.46031  -0.45769
 Alpha  occ. eigenvalues --   -0.45032  -0.44963  -0.44487  -0.44424  -0.43733
 Alpha  occ. eigenvalues --   -0.43531  -0.43267  -0.42858  -0.42724  -0.42539
 Alpha  occ. eigenvalues --   -0.42040  -0.41675  -0.41566  -0.41066  -0.40839
 Alpha  occ. eigenvalues --   -0.40673  -0.40480  -0.39966  -0.39893  -0.39649
 Alpha  occ. eigenvalues --   -0.39370  -0.39155  -0.38979  -0.38133  -0.37897
 Alpha  occ. eigenvalues --   -0.37799  -0.37445  -0.37029  -0.36871  -0.36705
 Alpha  occ. eigenvalues --   -0.36055  -0.35205  -0.34883  -0.34280  -0.33843
 Alpha  occ. eigenvalues --   -0.33565  -0.33030  -0.32628  -0.31958  -0.31302
 Alpha  occ. eigenvalues --   -0.31039  -0.30394  -0.29392  -0.28532  -0.27921
 Alpha  occ. eigenvalues --   -0.27518  -0.27275  -0.26249  -0.25076  -0.24778
 Alpha  occ. eigenvalues --   -0.24070  -0.23834  -0.23227  -0.21254  -0.18080
 Alpha virt. eigenvalues --   -0.10849  -0.07417  -0.06891  -0.01292  -0.00414
 Alpha virt. eigenvalues --   -0.00183   0.00577   0.01294   0.01936   0.02357
 Alpha virt. eigenvalues --    0.02822   0.03090   0.03282   0.03908   0.04406

 Mulliken charges:
               1
     1  O   -0.248297
     2  O   -0.180108
     3  O   -0.195009
     4  O   -0.290640
     5  O   -0.213060
     6  O   -0.179232
     7  N   -0.036902
     8  N   -0.106726
     9  N   -0.009855
    10  N   -0.328467
    11  C    0.190942
    12  C    0.179640
    13  C   -0.090852
    14  C   -0.088726
    15  C   -0.053700
    16  C    0.038016
    17  C   -0.157044
    18  C    0.006782
    19  C   -0.053031
    20  C   -0.102162
    21  C    0.063674
    22  C    0.152920
    23  C   -0.149493
    24  C   -0.033426
    25  C    0.005383
    26  C   -0.041649
    27  C   -0.099005
    28  C    0.057701
    29  C    0.088721
    30  C    0.009899
    31  C   -0.012621
    32  C   -0.059945
    33  C   -0.145254
    34  C    0.151997
    35  C    0.096116
    36  C    0.007993
    37  C    0.175515
    38  C    0.034948
    39  C   -0.114095
    40  C    0.131493
    41  C   -0.022409
    42  C   -0.095579
    43  C   -0.042276
    44  H    0.038832
    45  H    0.022548
    46  H   -0.056866
    47  H    0.145120
    48  H    0.010623
    49  H    0.040812
    50  H    0.042921
    51  H   -0.015735
    52  H    0.010738
    53  H    0.051387
    54  H    0.047946
    55  H    0.033410
    56  H    0.049330
    57  H    0.048252
    58  H    0.107281
    59  H    0.049668
    60  H    0.167717
    61  H    0.024223
    62  H    0.012515
    63  H    0.016515
    64  H    0.064188
    65  H    0.076693
    66  H    0.028257
    67  H    0.048421
    68  H    0.055751
    69  H    0.028378
    70  H   -0.026501
    71  H    0.019321
    72  H    0.173000
    73  H   -0.000038
    74  H    0.065447
    75  H    0.057048
    76  H    0.066598
    77  H    0.224753
    78  H    0.009354
    79  H    0.019917
 Sum of Mulliken charges =  -0.00000

 Dipole moment (field-independent basis, Debye):
    X=              1.9911    Y=              3.1212    Z=              3.6570  Tot=              5.2038
 Quadrupole moment (field-independent basis, Debye-Ang):
   XX=           -218.9147   YY=           -245.6329   ZZ=           -263.2345
   XY=            -11.9530   XZ=             34.7008   YZ=              2.3600

 Normal termination of Gaussian 16 at Sun Sep 22 23:30:10 2019.
