 Gaussian 16, Revision A.03,
 Gaussian 16:  ES64L-G16RevA.03 25-Dec-2016

 --------------------------
 # td=(NStates=1) B3LYP/SVP
 --------------------------

 --
 TD
 --
 Symbolic Z-matrix:
 Charge =  0 Multiplicity = 1

                         Standard orientation:
 ---------------------------------------------------------------------
 Center     Atomic      Atomic             Coordinates (Angstroms)
 Number     Number       Type             X           Y           Z
 ---------------------------------------------------------------------
      1          8           0        5.411431   -0.001241   -3.316927
      2          8           0       -3.002872   -2.988719    3.326594
      3          8           0       -3.303746   -0.755377    3.009441
      4          8           0       -1.784091    7.074402    1.598657
      5          8           0       -0.954104    7.113730   -0.490092
      6          8           0       -1.496852   -4.085139    0.011540
      7          7           0        2.289551    1.052046    0.684981
      8          7           0        4.370221   -0.418345   -1.222160
      9          7           0       -1.879303    0.616009   -0.557987
     10          7           0       -2.420805   -1.977928   -0.542259
     11          6           0        4.845284   -1.010444    0.023645
     12          6           0        4.365314   -0.159141    1.293231
     13          6           0        2.944276    0.082638    1.465652
     14          6           0        1.941987   -0.608992    2.197891
     15          6           0        0.692039   -0.021584    1.695093
     16          6           0        0.960476    1.036402    0.775942
     17          6           0        6.341656   -1.136873   -0.110581
     18          6           0       -0.630196   -0.220242    2.393459
     19          6           0        6.665014   -0.717390   -1.379081
     20          6           0        0.064785    2.104156    0.207396
     21          6           0       -1.182730    1.827267   -0.378885
     22          6           0        5.502836   -0.282420   -2.122985
     23          6           0       -2.073201    2.829812   -0.991877
     24          6           0        2.225848   -1.734451    3.144630
     25          6           0        7.243485   -1.714294    0.941497
     26          6           0       -3.287842    2.296852   -1.225206
     27          6           0       -1.150078   -1.780661    2.517303
     28          6           0       -3.147361    0.854648   -1.061983
     29          6           0       -1.670050    4.403467   -0.906916
     30          6           0        8.048294   -0.714702   -2.054184
     31          6           0       -1.935760    5.050853    0.384555
     32          6           0       -4.489618    2.869077   -2.073382
     33          6           0       -3.988359   -0.270105   -1.304751
     34          6           0       -2.590702   -1.806566    2.958136
     35          6           0       -3.608574   -1.595626   -1.048284
     36          6           0        9.239754   -0.749006   -1.406205
     37          6           0       -1.539073    6.479022    0.454333
     38          6           0       -4.419253   -2.735579   -1.586818
     39          6           0       -3.676492   -3.882307   -1.128035
     40          6           0       -2.415981   -3.420263   -0.503282
     41          6           0       -5.761097   -2.557108   -2.073002
     42          6           0       -4.123967   -5.255212   -1.008384
     43          6           0       -6.524199   -3.556305   -2.466101
     44          1           0        4.481856   -2.069276    0.393588
     45          1           0        4.886080    0.851461    0.985370
     46          1           0        4.860374   -0.544667    2.252766
     47          1           0        2.759302    1.757201    0.080360
     48          1           0        3.410657   -0.344023   -1.519353
     49          1           0       -0.559631    0.150150    3.434277
     50          1           0       -1.655819    0.465870    2.092860
     51          1           0        0.390151    3.090141    0.043751
     52          1           0        3.270788   -1.820106    3.419483
     53          1           0        1.520306   -1.475055    3.978719
     54          1           0        2.066698   -2.778024    2.614815
     55          1           0        6.749897   -2.396783    1.574919
     56          1           0        7.917695   -0.877590    1.359373
     57          1           0        8.000676   -2.557667    0.545700
     58          1           0       -0.937410   -2.366200    1.546681
     59          1           0       -0.477258   -2.326817    3.282939
     60          1           0       -1.415270   -0.257693   -0.381824
     61          1           0       -2.321693    4.862503   -1.620362
     62          1           0       -0.605990    4.550918   -1.325685
     63          1           0        7.938638   -0.732540   -3.156276
     64          1           0       -1.268332    4.469008    1.236419
     65          1           0       -3.002517    4.840298    0.699370
     66          1           0       -4.501601    3.981447   -2.455754
     67          1           0       -5.580349    2.763365   -1.396037
     68          1           0       -4.648503    2.447847   -3.097240
     69          1           0       -4.911082   -0.042692   -1.748759
     70          1           0        9.282092   -1.061871   -0.404391
     71          1           0       10.197398   -0.606501   -2.032083
     72          1           0       -3.927801   -2.682643    3.425966
     73          1           0       -6.291636   -1.627394   -2.185270
     74          1           0       -5.293329   -5.230019   -0.848971
     75          1           0       -4.055634   -5.539482   -2.030499
     76          1           0       -3.632660   -6.007764   -0.284729
     77          1           0       -1.739326    7.931620    1.344205
     78          1           0       -7.331003   -3.423395   -2.890035
     79          1           0       -6.250635   -4.586898   -2.322947
 ---------------------------------------------------------------------

 SCF Done:  E(RB3LYP) =  -1947.85887356     A.U. after   17 cycles

 Excitation energies and oscillator strengths:

 Excited State   1:      Singlet-A      1.9173 eV  646.65 nm  f=0.2978  <S**2>=0.000
     153 ->156        -0.10264
     154 ->156         0.24944
     155 ->156         0.65304
 This state for optimization and/or second-order correction.
 Total Energy, E(TD-HF/TD-DFT) =  -1947.78841310
 Copying the excited state density for this state as the 1-particle RhoCI density.

 The electronic state is 1-A.
 Alpha  occ. eigenvalues --  -19.19832 -19.18848 -19.13074 -19.11098 -19.10941
 Alpha  occ. eigenvalues --  -19.10571 -14.38477 -14.36635 -14.35455 -14.28578
 Alpha  occ. eigenvalues --  -10.33510 -10.31089 -10.29022 -10.26804 -10.25928
 Alpha  occ. eigenvalues --  -10.25777 -10.24811 -10.23589 -10.23444 -10.23067
 Alpha  occ. eigenvalues --  -10.22972 -10.22910 -10.22828 -10.22792 -10.22518
 Alpha  occ. eigenvalues --  -10.22490 -10.22419 -10.22316 -10.21692 -10.20861
 Alpha  occ. eigenvalues --  -10.20745 -10.20677 -10.20627 -10.20552 -10.19897
 Alpha  occ. eigenvalues --  -10.19847 -10.19626 -10.19560 -10.19529 -10.19497
 Alpha  occ. eigenvalues --  -10.19231 -10.19088 -10.17307  -1.13584  -1.11080
 Alpha  occ. eigenvalues --   -1.01760  -1.00118  -0.98993  -0.98549  -0.97781
 Alpha  occ. eigenvalues --   -0.97278  -0.93050  -0.90603  -0.82783  -0.81793
 Alpha  occ. eigenvalues --   -0.81092  -0.80950  -0.80085  -0.79122  -0.78641
 Alpha  occ. eigenvalues --   -0.77079  -0.76128  -0.74768  -0.74133  -0.72365
 Alpha  occ. eigenvalues --   -0.71754  -0.70763  -0.69858  -0.68952  -0.68866
 Alpha  occ. eigenvalues --   -0.66005  -0.65742  -0.63698  -0.61437  -0.60714
 Alpha  occ. eigenvalues --   -0.59976  -0.58944  -0.58251  -0.57610  -0.57442
 Alpha  occ. eigenvalues --   -0.55957  -0.55408  -0.54857  -0.53538  -0.53153
 Alpha  occ. eigenvalues --   -0.52135  -0.51682  -0.51279  -0.51009  -0.50586
 Alpha  occ. eigenvalues --   -0.49572  -0.49281  -0.49079  -0.48077  -0.47698
 Alpha  occ. eigenvalues --   -0.47402  -0.46950  -0.46393  -0.46152  -0.45468
 Alpha  occ. eigenvalues --   -0.45270  -0.44915  -0.44842  -0.44272  -0.44122
 Alpha  occ. eigenvalues --   -0.43385  -0.43362  -0.43232  -0.42605  -0.42167
 Alpha  occ. eigenvalues --   -0.42115  -0.41765  -0.41520  -0.41108  -0.40865
 Alpha  occ. eigenvalues --   -0.40524  -0.40418  -0.40334  -0.40004  -0.39849
 Alpha  occ. eigenvalues --   -0.39473  -0.39096  -0.38970  -0.38659  -0.38405
 Alpha  occ. eigenvalues --   -0.38058  -0.37390  -0.37338  -0.36467  -0.36389
 Alpha  occ. eigenvalues --   -0.35826  -0.35310  -0.34915  -0.34614  -0.34518
 Alpha  occ. eigenvalues --   -0.33956  -0.33568  -0.32446  -0.31242  -0.30726
 Alpha  occ. eigenvalues --   -0.30459  -0.30383  -0.28773  -0.28565  -0.27354
 Alpha  occ. eigenvalues --   -0.26902  -0.26581  -0.26515  -0.25809  -0.24564
 Alpha  occ. eigenvalues --   -0.23867  -0.23568  -0.23158  -0.21453  -0.19380
 Alpha virt. eigenvalues --   -0.11525  -0.07142  -0.06317  -0.02627  -0.00524
 Alpha virt. eigenvalues --   -0.00198   0.00746   0.00817   0.02512   0.03028
 Alpha virt. eigenvalues --    0.03928   0.04117   0.04472   0.04876   0.05329

 Mulliken charges:
               1
     1  O   -0.222925
     2  O   -0.115770
     3  O   -0.313337
     4  O   -0.078239
     5  O   -0.296514
     6  O   -0.223420
     7  N   -0.073009
     8  N   -0.241360
     9  N   -0.077895
    10  N   -0.302011
    11  C    0.091714
    12  C    0.071403
    13  C   -0.028814
    14  C   -0.128418
    15  C   -0.062820
    16  C    0.036237
    17  C   -0.139226
    18  C   -0.075577
    19  C   -0.073848
    20  C   -0.012184
    21  C    0.064410
    22  C    0.181837
    23  C   -0.107613
    24  C    0.079771
    25  C    0.046117
    26  C   -0.046575
    27  C   -0.060567
    28  C    0.114558
    29  C    0.088285
    30  C   -0.000133
    31  C   -0.035058
    32  C   -0.060454
    33  C   -0.062234
    34  C    0.166566
    35  C    0.101088
    36  C   -0.018443
    37  C    0.142006
    38  C    0.071633
    39  C   -0.187206
    40  C    0.180744
    41  C   -0.044859
    42  C    0.059306
    43  C    0.081257
    44  H    0.030270
    45  H   -0.002633
    46  H    0.022722
    47  H    0.123517
    48  H    0.130413
    49  H    0.011204
    50  H    0.072934
    51  H   -0.025617
    52  H   -0.007821
    53  H    0.049420
    54  H    0.055310
    55  H    0.005625
    56  H    0.074275
    57  H    0.048599
    58  H    0.097448
    59  H    0.028890
    60  H    0.144784
    61  H   -0.002546
    62  H    0.042504
    63  H    0.023796
    64  H    0.066452
    65  H    0.058073
    66  H    0.038531
    67  H    0.052623
    68  H    0.050838
    69  H   -0.054990
    70  H   -0.005810
    71  H    0.047059
    72  H    0.163974
    73  H   -0.014466
    74  H    0.038080
    75  H    0.027163
    76  H    0.059422
    77  H    0.137747
    78  H   -0.068664
    79  H   -0.007552
 Sum of Mulliken charges =  -0.00000

 Dipole moment (field-independent basis, Debye):
    X=             -0.8327    Y=              1.5763    Z=              2.7703  Tot=              3.2943
 Quadrupole moment (field-independent basis, Debye-Ang):
   XX=           -212.9518   YY=           -249.4385   ZZ=           -265.2102
   XY=            -13.9528   XZ=             35.2591   YZ=              3.7546

 Normal termination of Gaussian 16 at Wed Sep 18 11:30:13 2019.
