 Gaussian 16, Revision A.03,
 Gaussian 16:  ES64L-G16RevA.03 25-Dec-2016

 --------------------------
 # td=(NStates=1) B3LYP/SVP
 --------------------------

 --
 TD
 --
 Symbolic Z-matrix:
 Charge =  0 Multiplicity = 1

                         Standard orientation:
 ---------------------------------------------------------------------
 Center     Atomic      Atomic             Coordinates (Angstroms)
 Number     Number       Type             X           Y           Z
 ---------------------------------------------------------------------
      1          8           0        5.567889    0.056421   -3.431070
      2          8           0       -2.978141   -3.175846    3.029331
      3          8           0       -3.401244   -0.956265    3.072604
      4          8           0       -1.597709    7.100381    1.749653
      5          8           0       -0.747211    7.131326   -0.270924
      6          8           0       -1.894327   -4.013338    0.076550
      7          7           0        2.356913    0.934857    0.666441
      8          7           0        4.474802   -0.596622   -1.413657
      9          7           0       -1.761648    0.715279   -0.576775
     10          7           0       -2.577886   -1.909413   -0.609838
     11          6           0        4.834419   -1.171358   -0.084152
     12          6           0        4.480288   -0.330260    1.190201
     13          6           0        2.977523   -0.103811    1.301862
     14          6           0        1.948285   -0.711951    2.097370
     15          6           0        0.641621   -0.171874    1.732233
     16          6           0        1.006668    0.965315    0.817182
     17          6           0        6.243195   -1.320482   -0.217210
     18          6           0       -0.657040   -0.332203    2.501356
     19          6           0        6.730387   -0.923625   -1.358563
     20          6           0        0.161134    2.060562    0.282344
     21          6           0       -1.119042    1.932386   -0.280199
     22          6           0        5.569786   -0.386503   -2.251271
     23          6           0       -1.912910    2.942094   -0.822182
     24          6           0        2.183960   -1.807553    3.078183
     25          6           0        6.976456   -2.030195    0.861408
     26          6           0       -3.109261    2.394312   -1.342655
     27          6           0       -1.111315   -1.805458    2.479392
     28          6           0       -3.039276    0.921167   -1.122121
     29          6           0       -1.570258    4.414962   -0.876585
     30          6           0        8.156052   -0.638303   -1.889729
     31          6           0       -1.755540    5.032987    0.524216
     32          6           0       -4.293652    3.140810   -2.009156
     33          6           0       -3.928675   -0.081438   -1.525843
     34          6           0       -2.593923   -1.887067    2.880859
     35          6           0       -3.691888   -1.472182   -1.219114
     36          6           0        9.230335   -0.832996   -1.155031
     37          6           0       -1.303519    6.550607    0.627495
     38          6           0       -4.638305   -2.484642   -1.473568
     39          6           0       -3.927628   -3.705780   -0.999034
     40          6           0       -2.720473   -3.276661   -0.406567
     41          6           0       -5.817807   -2.352858   -2.235672
     42          6           0       -4.499823   -5.154394   -0.925112
     43          6           0       -6.783909   -3.241722   -2.546080
     44          1           0        4.176024   -2.114779   -0.044306
     45          1           0        4.953013    0.591496    1.135959
     46          1           0        4.893966   -0.893548    1.996238
     47          1           0        2.903338    1.588550    0.163967
     48          1           0        3.538057   -0.280896   -1.793398
     49          1           0       -0.321167    0.033656    3.632357
     50          1           0       -1.368304    0.296401    1.955005
     51          1           0        0.568993    3.097968    0.088619
     52          1           0        3.351769   -1.763626    3.380303
     53          1           0        1.709419   -1.780807    3.983689
     54          1           0        2.012040   -3.007227    2.717292
     55          1           0        6.202751   -2.495557    1.383853
     56          1           0        7.487982   -1.039303    1.395950
     57          1           0        7.827466   -2.651582    0.411743
     58          1           0       -1.101380   -2.279968    1.451498
     59          1           0       -0.590788   -2.588076    2.999421
     60          1           0       -1.573954   -0.308868   -0.438179
     61          1           0       -2.293006    4.834135   -1.512567
     62          1           0       -0.742207    4.615969   -1.223557
     63          1           0        8.164637   -0.401459   -2.800639
     64          1           0       -1.052331    4.569212    1.260789
     65          1           0       -2.759944    5.110484    0.951187
     66          1           0       -4.101522    4.188997   -1.915451
     67          1           0       -5.015746    3.179208   -1.145799
     68          1           0       -4.630536    2.843466   -3.061985
     69          1           0       -4.927929    0.322745   -1.970374
     70          1           0        9.455430   -1.050435   -0.098017
     71          1           0       10.120049   -0.738295   -1.577461
     72          1           0       -3.844305   -3.137365    3.642742
     73          1           0       -6.079405   -1.261378   -2.678924
     74          1           0       -5.415219   -5.106777   -0.062204
     75          1           0       -4.955314   -5.323031   -1.854180
     76          1           0       -3.614297   -5.781322   -0.649919
     77          1           0       -1.564408    8.079367    1.749814
     78          1           0       -7.781514   -2.943117   -3.083526
     79          1           0       -6.666181   -4.345676   -2.467837
 ---------------------------------------------------------------------

 SCF Done:  E(RB3LYP) =  -1947.83125693     A.U. after   20 cycles

 Excitation energies and oscillator strengths:

 Excited State   1:      Singlet-A      1.7485 eV  709.09 nm  f=0.1900  <S**2>=0.000
     154 ->156         0.45793
     155 ->156         0.53734
 This state for optimization and/or second-order correction.
 Total Energy, E(TD-HF/TD-DFT) =  -1947.76700047
 Copying the excited state density for this state as the 1-particle RhoCI density.

 The electronic state is 1-A.
 Alpha  occ. eigenvalues --  -19.19764 -19.16878 -19.12156 -19.10775 -19.10200
 Alpha  occ. eigenvalues --  -19.10067 -14.39719 -14.36040 -14.35702 -14.28171
 Alpha  occ. eigenvalues --  -10.32201 -10.30405 -10.28639 -10.25718 -10.25312
 Alpha  occ. eigenvalues --  -10.24763 -10.24736 -10.24518 -10.24174 -10.23383
 Alpha  occ. eigenvalues --  -10.22998 -10.22677 -10.21903 -10.21706 -10.21691
 Alpha  occ. eigenvalues --  -10.21209 -10.21060 -10.20978 -10.20904 -10.20812
 Alpha  occ. eigenvalues --  -10.20736 -10.20558 -10.20268 -10.20193 -10.20076
 Alpha  occ. eigenvalues --  -10.20012 -10.19956 -10.19888 -10.19840 -10.19574
 Alpha  occ. eigenvalues --  -10.19174 -10.18937 -10.18644  -1.12458  -1.06369
 Alpha  occ. eigenvalues --   -1.02050  -1.01192  -1.00008  -0.99677  -0.96649
 Alpha  occ. eigenvalues --   -0.96619  -0.93495  -0.92078  -0.83014  -0.82838
 Alpha  occ. eigenvalues --   -0.81241  -0.80894  -0.79640  -0.79436  -0.77800
 Alpha  occ. eigenvalues --   -0.77323  -0.75989  -0.75688  -0.73882  -0.72612
 Alpha  occ. eigenvalues --   -0.71474  -0.70899  -0.69846  -0.69454  -0.68943
 Alpha  occ. eigenvalues --   -0.66967  -0.66381  -0.64604  -0.62707  -0.61672
 Alpha  occ. eigenvalues --   -0.60790  -0.58509  -0.58104  -0.57807  -0.56880
 Alpha  occ. eigenvalues --   -0.56469  -0.55714  -0.54809  -0.54235  -0.52928
 Alpha  occ. eigenvalues --   -0.51950  -0.51519  -0.51068  -0.50409  -0.49600
 Alpha  occ. eigenvalues --   -0.48805  -0.48552  -0.48373  -0.48243  -0.47330
 Alpha  occ. eigenvalues --   -0.46839  -0.46782  -0.46679  -0.45879  -0.45476
 Alpha  occ. eigenvalues --   -0.45160  -0.45005  -0.44653  -0.43993  -0.43539
 Alpha  occ. eigenvalues --   -0.43386  -0.43157  -0.42777  -0.42706  -0.42366
 Alpha  occ. eigenvalues --   -0.42025  -0.41775  -0.41569  -0.41367  -0.41320
 Alpha  occ. eigenvalues --   -0.40818  -0.40731  -0.40262  -0.39914  -0.39786
 Alpha  occ. eigenvalues --   -0.39410  -0.39003  -0.38481  -0.38387  -0.38292
 Alpha  occ. eigenvalues --   -0.38030  -0.37953  -0.37767  -0.37552  -0.36906
 Alpha  occ. eigenvalues --   -0.36401  -0.36106  -0.35602  -0.35219  -0.34921
 Alpha  occ. eigenvalues --   -0.33757  -0.33196  -0.33054  -0.32833  -0.31469
 Alpha  occ. eigenvalues --   -0.30811  -0.29948  -0.28385  -0.27739  -0.27524
 Alpha  occ. eigenvalues --   -0.26144  -0.25933  -0.25422  -0.25319  -0.24479
 Alpha  occ. eigenvalues --   -0.24403  -0.23841  -0.23767  -0.20811  -0.19061
 Alpha virt. eigenvalues --   -0.11838  -0.07498  -0.04993  -0.00748   0.00508
 Alpha virt. eigenvalues --    0.00930   0.01126   0.01215   0.01696   0.03220
 Alpha virt. eigenvalues --    0.03303   0.03895   0.04124   0.04619   0.05062

 Mulliken charges:
               1
     1  O   -0.270727
     2  O   -0.229235
     3  O   -0.269879
     4  O   -0.133494
     5  O   -0.231275
     6  O   -0.198702
     7  N   -0.013757
     8  N   -0.261140
     9  N   -0.139078
    10  N   -0.293823
    11  C    0.082391
    12  C    0.262681
    13  C   -0.087280
    14  C   -0.116647
    15  C   -0.117877
    16  C    0.036875
    17  C   -0.222841
    18  C    0.125202
    19  C   -0.063186
    20  C   -0.081992
    21  C    0.109729
    22  C    0.175290
    23  C   -0.128859
    24  C    0.024729
    25  C    0.073895
    26  C   -0.163773
    27  C   -0.010211
    28  C    0.084803
    29  C    0.340735
    30  C    0.152245
    31  C   -0.051667
    32  C    0.128852
    33  C   -0.122236
    34  C    0.142342
    35  C    0.113075
    36  C    0.010131
    37  C    0.076275
    38  C    0.048225
    39  C   -0.198146
    40  C    0.150154
    41  C   -0.055155
    42  C    0.064036
    43  C   -0.094376
    44  H    0.047225
    45  H   -0.030877
    46  H   -0.012754
    47  H    0.100468
    48  H    0.139349
    49  H    0.050853
    50  H    0.019533
    51  H    0.009171
    52  H    0.004554
    53  H   -0.000545
    54  H    0.052731
    55  H    0.019734
    56  H    0.059816
    57  H    0.064590
    58  H    0.069299
    59  H    0.011192
    60  H    0.154934
    61  H   -0.024440
    62  H   -0.080870
    63  H   -0.084631
    64  H    0.042023
    65  H    0.032636
    66  H   -0.025107
    67  H    0.026910
    68  H    0.070769
    69  H    0.014777
    70  H    0.015330
    71  H   -0.020472
    72  H    0.215191
    73  H    0.022657
    74  H    0.058569
    75  H    0.022861
    76  H    0.049165
    77  H    0.195507
    78  H    0.041079
    79  H    0.022469
 Sum of Mulliken charges =  -0.00000

 Dipole moment (field-independent basis, Debye):
    X=              0.4273    Y=              3.3744    Z=              4.4649  Tot=              5.6129
 Quadrupole moment (field-independent basis, Debye-Ang):
   XX=           -222.2218   YY=           -240.3730   ZZ=           -262.8940
   XY=            -15.6099   XZ=             34.9224   YZ=              5.6345

 Normal termination of Gaussian 16 at Tue Oct  1 01:36:26 2019.
