 Gaussian 16, Revision A.03,
 Gaussian 16:  ES64L-G16RevA.03 25-Dec-2016

 --------------------------
 # td=(NStates=1) B3LYP/SVP
 --------------------------

 --
 TD
 --
 Symbolic Z-matrix:
 Charge =  0 Multiplicity = 1

                         Standard orientation:
 ---------------------------------------------------------------------
 Center     Atomic      Atomic             Coordinates (Angstroms)
 Number     Number       Type             X           Y           Z
 ---------------------------------------------------------------------
      1          8           0        5.465065   -0.167104   -3.269350
      2          8           0       -2.949217   -2.777898    3.389927
      3          8           0       -3.147855   -0.571796    2.963490
      4          8           0       -1.433868    7.157101    1.430787
      5          8           0       -0.663406    7.045609   -0.762924
      6          8           0       -1.865851   -4.077843   -0.064802
      7          7           0        2.275879    0.925866    0.558196
      8          7           0        4.414509   -0.672321   -1.213393
      9          7           0       -1.920517    0.655371   -0.318454
     10          7           0       -2.522027   -1.922487   -0.607196
     11          6           0        4.779494   -1.196759   -0.023915
     12          6           0        4.357902   -0.289660    1.260730
     13          6           0        2.898113    0.023624    1.334717
     14          6           0        1.922418   -0.607826    2.175970
     15          6           0        0.710467    0.027425    1.868806
     16          6           0        0.894511    0.977522    0.764182
     17          6           0        6.270551   -1.345566   -0.124206
     18          6           0       -0.585151   -0.139053    2.563538
     19          6           0        6.687025   -1.035788   -1.395834
     20          6           0        0.232461    1.945623    0.099051
     21          6           0       -1.168160    1.878509   -0.267755
     22          6           0        5.525416   -0.593738   -2.128266
     23          6           0       -1.993380    2.849750   -0.849315
     24          6           0        2.174969   -1.535777    3.223799
     25          6           0        7.100519   -1.809767    0.990369
     26          6           0       -3.241220    2.287489   -1.201534
     27          6           0       -1.047090   -1.600816    2.516675
     28          6           0       -3.124713    0.927031   -0.921597
     29          6           0       -1.556283    4.320936   -1.068475
     30          6           0        8.015464   -0.778346   -2.041685
     31          6           0       -1.604372    5.104142    0.356326
     32          6           0       -4.394572    2.943561   -1.863396
     33          6           0       -4.047820   -0.193521   -1.311762
     34          6           0       -2.457575   -1.547146    2.979443
     35          6           0       -3.714303   -1.451342   -1.049306
     36          6           0        9.257255   -0.985582   -1.531392
     37          6           0       -1.219893    6.563093    0.233234
     38          6           0       -4.716770   -2.622481   -1.340232
     39          6           0       -3.978826   -3.808511   -1.091510
     40          6           0       -2.629118   -3.357528   -0.597175
     41          6           0       -6.048355   -2.484879   -1.924429
     42          6           0       -4.256889   -5.292891   -1.146808
     43          6           0       -6.854578   -3.430760   -2.399214
     44          1           0        4.334721   -2.254278    0.046049
     45          1           0        5.006083    0.559354    1.054279
     46          1           0        4.602507   -1.034757    2.188011
     47          1           0        2.569888    1.632929   -0.167944
     48          1           0        3.404005   -0.371338   -1.559302
     49          1           0       -0.362822    0.129824    3.494865
     50          1           0       -1.481005    0.473289    2.423262
     51          1           0        0.771876    2.988414    0.193654
     52          1           0        3.241516   -1.619293    3.560900
     53          1           0        1.438430   -1.232952    4.229894
     54          1           0        2.000885   -2.638507    2.865542
     55          1           0        6.369684   -2.097424    1.729317
     56          1           0        7.855852   -1.164599    1.485136
     57          1           0        7.974545   -2.757160    0.627531
     58          1           0       -0.949760   -2.038385    1.518864
     59          1           0       -0.492437   -2.481750    3.139494
     60          1           0       -1.652852   -0.192743   -0.159806
     61          1           0       -2.186182    4.908083   -1.596121
     62          1           0       -0.579268    4.674611   -1.447820
     63          1           0        7.817123   -0.525511   -3.064175
     64          1           0       -1.032002    4.462165    1.134289
     65          1           0       -2.680544    5.313711    0.660136
     66          1           0       -4.225075    4.093771   -1.909691
     67          1           0       -5.467982    2.565756   -1.487747
     68          1           0       -4.368040    2.578535   -3.031195
     69          1           0       -4.834559    0.185594   -1.963247
     70          1           0        9.382275   -0.929532   -0.469927
     71          1           0       10.173181   -1.061623   -2.175181
     72          1           0       -3.886482   -2.434818    3.410800
     73          1           0       -6.348072   -1.330993   -2.045267
     74          1           0       -5.127992   -5.683616   -0.655310
     75          1           0       -4.468495   -5.526513   -2.222963
     76          1           0       -3.432082   -5.799169   -0.650323
     77          1           0       -1.047590    8.087572    1.160201
     78          1           0       -7.792240   -3.060443   -2.850288
     79          1           0       -6.625920   -4.633568   -2.431228
 ---------------------------------------------------------------------

 SCF Done:  E(RB3LYP) =  -1947.83080793     A.U. after   19 cycles

 Excitation energies and oscillator strengths:

 Excited State   1:      Singlet-A      1.8708 eV  662.74 nm  f=0.3465  <S**2>=0.000
     154 ->156         0.26155
     155 ->156         0.66097
     155 <-156        -0.13162
 This state for optimization and/or second-order correction.
 Total Energy, E(TD-HF/TD-DFT) =  -1947.76205767
 Copying the excited state density for this state as the 1-particle RhoCI density.

 The electronic state is 1-A.
 Alpha  occ. eigenvalues --  -19.21024 -19.16811 -19.14679 -19.12638 -19.10545
 Alpha  occ. eigenvalues --  -19.09454 -14.40100 -14.35832 -14.35782 -14.27773
 Alpha  occ. eigenvalues --  -10.33724 -10.30847 -10.28610 -10.25554 -10.25344
 Alpha  occ. eigenvalues --  -10.25078 -10.25060 -10.24450 -10.24067 -10.23694
 Alpha  occ. eigenvalues --  -10.23297 -10.22871 -10.22844 -10.22705 -10.22439
 Alpha  occ. eigenvalues --  -10.22420 -10.21969 -10.21902 -10.20973 -10.20927
 Alpha  occ. eigenvalues --  -10.20877 -10.20647 -10.20594 -10.20354 -10.20347
 Alpha  occ. eigenvalues --  -10.20160 -10.19685 -10.19661 -10.19577 -10.18960
 Alpha  occ. eigenvalues --  -10.18496 -10.17958 -10.17864  -1.10637  -1.09010
 Alpha  occ. eigenvalues --   -1.02730  -1.02625  -1.01474  -1.00182  -0.99968
 Alpha  occ. eigenvalues --   -0.98120  -0.95690  -0.89125  -0.83377  -0.82629
 Alpha  occ. eigenvalues --   -0.82579  -0.82218  -0.79439  -0.78491  -0.77943
 Alpha  occ. eigenvalues --   -0.77711  -0.76665  -0.75507  -0.73970  -0.72674
 Alpha  occ. eigenvalues --   -0.71986  -0.71807  -0.69393  -0.69111  -0.67929
 Alpha  occ. eigenvalues --   -0.67347  -0.66466  -0.63246  -0.61470  -0.60072
 Alpha  occ. eigenvalues --   -0.59072  -0.58406  -0.57579  -0.57405  -0.56830
 Alpha  occ. eigenvalues --   -0.56197  -0.55741  -0.55361  -0.54378  -0.52986
 Alpha  occ. eigenvalues --   -0.52596  -0.51221  -0.50630  -0.50605  -0.50092
 Alpha  occ. eigenvalues --   -0.49616  -0.49076  -0.48881  -0.48502  -0.47887
 Alpha  occ. eigenvalues --   -0.47529  -0.47172  -0.46767  -0.45893  -0.45473
 Alpha  occ. eigenvalues --   -0.45346  -0.44631  -0.44334  -0.43755  -0.43631
 Alpha  occ. eigenvalues --   -0.43445  -0.43325  -0.43066  -0.42936  -0.42682
 Alpha  occ. eigenvalues --   -0.42308  -0.42110  -0.41789  -0.41563  -0.41310
 Alpha  occ. eigenvalues --   -0.41031  -0.40937  -0.40287  -0.40035  -0.39779
 Alpha  occ. eigenvalues --   -0.39561  -0.39470  -0.39066  -0.38848  -0.38724
 Alpha  occ. eigenvalues --   -0.38464  -0.38228  -0.38120  -0.37469  -0.36990
 Alpha  occ. eigenvalues --   -0.36643  -0.36066  -0.35980  -0.35453  -0.34895
 Alpha  occ. eigenvalues --   -0.34016  -0.33715  -0.33120  -0.32827  -0.31686
 Alpha  occ. eigenvalues --   -0.30803  -0.30697  -0.29641  -0.28791  -0.28179
 Alpha  occ. eigenvalues --   -0.26554  -0.26332  -0.25981  -0.25602  -0.25384
 Alpha  occ. eigenvalues --   -0.24269  -0.23454  -0.23076  -0.21111  -0.18649
 Alpha virt. eigenvalues --   -0.11506  -0.07244  -0.06003  -0.02196  -0.00928
 Alpha virt. eigenvalues --   -0.00497   0.00637   0.00846   0.01855   0.02065
 Alpha virt. eigenvalues --    0.02146   0.02843   0.03511   0.03535   0.04160

 Mulliken charges:
               1
     1  O   -0.222143
     2  O   -0.207655
     3  O   -0.229506
     4  O   -0.200219
     5  O   -0.255273
     6  O   -0.173276
     7  N   -0.073042
     8  N   -0.243685
     9  N   -0.008629
    10  N   -0.321123
    11  C    0.069718
    12  C    0.153281
    13  C   -0.049251
    14  C   -0.061311
    15  C   -0.079045
    16  C    0.100149
    17  C   -0.167920
    18  C    0.134152
    19  C   -0.041808
    20  C   -0.163152
    21  C    0.076663
    22  C    0.153436
    23  C   -0.053988
    24  C   -0.020109
    25  C    0.003954
    26  C   -0.106157
    27  C   -0.054097
    28  C    0.047635
    29  C    0.146013
    30  C    0.020935
    31  C   -0.102672
    32  C   -0.008089
    33  C   -0.145325
    34  C    0.153048
    35  C    0.191517
    36  C   -0.026108
    37  C    0.167001
    38  C    0.006528
    39  C   -0.215228
    40  C    0.142068
    41  C   -0.029986
    42  C    0.099281
    43  C   -0.069260
    44  H    0.029257
    45  H   -0.008750
    46  H    0.029553
    47  H    0.134728
    48  H    0.163709
    49  H   -0.043274
    50  H    0.038315
    51  H    0.048317
    52  H    0.015974
    53  H    0.058856
    54  H    0.054438
    55  H    0.011410
    56  H    0.051580
    57  H    0.062943
    58  H    0.078994
    59  H    0.046622
    60  H    0.048411
    61  H   -0.042512
    62  H    0.030398
    63  H    0.006874
    64  H    0.074452
    65  H    0.045458
    66  H    0.041087
    67  H    0.061102
    68  H    0.052422
    69  H   -0.018314
    70  H    0.013344
    71  H    0.046110
    72  H    0.173184
    73  H    0.013969
    74  H    0.010246
    75  H    0.031333
    76  H    0.026098
    77  H    0.204501
    78  H    0.023105
    79  H    0.048742
 Sum of Mulliken charges =  -0.00000

 Dipole moment (field-independent basis, Debye):
    X=              2.4299    Y=              4.3204    Z=              4.0091  Tot=              6.3752
 Quadrupole moment (field-independent basis, Debye-Ang):
   XX=           -226.1955   YY=           -248.2838   ZZ=           -266.0237
   XY=            -12.9527   XZ=             32.5735   YZ=              4.7931

 Normal termination of Gaussian 16 at Thu Oct  3 17:39:28 2019.
