 Gaussian 16, Revision A.03,
 Gaussian 16:  ES64L-G16RevA.03 25-Dec-2016

 --------------------------
 # td=(NStates=1) B3LYP/SVP
 --------------------------

 --
 TD
 --
 Symbolic Z-matrix:
 Charge =  0 Multiplicity = 1

                         Standard orientation:
 ---------------------------------------------------------------------
 Center     Atomic      Atomic             Coordinates (Angstroms)
 Number     Number       Type             X           Y           Z
 ---------------------------------------------------------------------
      1          8           0       -3.380342   -0.993982   -3.002075
      2          8           0        3.385750    2.657467    3.140413
      3          8           0        3.409785    1.151066    4.913766
      4          8           0        7.759055   -1.261027   -1.032882
      5          8           0        6.576785   -2.877553   -2.133745
      6          8           0       -2.756938    1.399049    1.589182
      7          7           0       -0.177374   -2.521855    0.642215
      8          7           0       -2.688230   -1.101747   -0.791772
      9          7           0        1.147529    0.071838   -0.786216
     10          7           0       -1.157159    1.402155   -0.174662
     11          6           0       -3.267279   -1.445095    0.486266
     12          6           0       -2.507440   -2.518940    1.380400
     13          6           0       -1.057807   -2.257982    1.645358
     14          6           0       -0.421958   -1.518033    2.707565
     15          6           0        0.849783   -1.308528    2.310436
     16          6           0        0.991645   -1.980079    0.999088
     17          6           0       -4.616654   -1.982974    0.136154
     18          6           0        1.908774   -0.678125    3.111375
     19          6           0       -4.821299   -1.898180   -1.200504
     20          6           0        2.074075   -1.869987    0.077745
     21          6           0        2.093191   -0.859478   -0.843745
     22          6           0       -3.599371   -1.270208   -1.855896
     23          6           0        2.957385   -0.444682   -1.907266
     24          6           0       -1.101603   -1.063449    3.874183
     25          6           0       -5.585716   -2.464264    1.237374
     26          6           0        2.507875    0.756946   -2.483601
     27          6           0        2.003768    0.762988    2.850437
     28          6           0        1.255994    1.097435   -1.738939
     29          6           0        4.260322   -1.307833   -2.336292
     30          6           0       -5.910393   -2.174577   -2.123946
     31          6           0        5.515870   -0.863061   -1.394357
     32          6           0        3.173818    1.537022   -3.554537
     33          6           0        0.427342    2.235332   -1.899398
     34          6           0        2.957269    1.515148    3.826775
     35          6           0       -0.656354    2.432760   -0.980029
     36          6           0       -6.945315   -2.981613   -1.933407
     37          6           0        6.637657   -1.809225   -1.622446
     38          6           0       -1.527325    3.590595   -0.877842
     39          6           0       -2.426091    3.319324    0.183268
     40          6           0       -2.177253    1.928070    0.614377
     41          6           0       -1.335324    4.793636   -1.744788
     42          6           0       -3.249162    4.249717    0.875384
     43          6           0       -2.294390    5.781968   -1.838100
     44          1           0       -3.257568   -0.456435    0.997779
     45          1           0       -2.606886   -3.490229    0.858355
     46          1           0       -3.156534   -2.759131    2.192884
     47          1           0       -0.438296   -2.860518   -0.381226
     48          1           0       -2.102909   -0.233210   -0.576168
     49          1           0        1.729623   -0.883825    4.177291
     50          1           0        2.847623   -1.119507    2.936924
     51          1           0        2.638097   -2.732045   -0.233831
     52          1           0       -1.870626   -1.689137    4.402764
     53          1           0       -0.282060   -0.989798    4.802943
     54          1           0       -1.609587    0.038456    3.796450
     55          1           0       -5.221353   -2.000796    2.203450
     56          1           0       -5.702235   -3.650549    1.385723
     57          1           0       -6.602176   -1.847113    1.005754
     58          1           0        2.283453    1.000717    1.795345
     59          1           0        1.001322    1.075843    3.049378
     60          1           0        0.230989    0.395753   -0.130014
     61          1           0        4.294518   -0.994597   -3.411851
     62          1           0        4.048001   -2.416473   -2.354389
     63          1           0       -5.757640   -1.640090   -3.073595
     64          1           0        5.164405   -0.815414   -0.302340
     65          1           0        5.739940    0.254575   -1.744216
     66          1           0        3.997096    1.011811   -3.935120
     67          1           0        3.677713    2.581468   -3.152240
     68          1           0        2.494514    1.894001   -4.260382
     69          1           0        0.680878    3.030021   -2.537863
     70          1           0       -7.049946   -3.591209   -1.051926
     71          1           0       -7.830890   -3.106034   -2.730871
     72          1           0        4.053305    3.040999    3.850554
     73          1           0       -0.471460    4.990660   -2.368390
     74          1           0       -4.402566    4.330054    0.403607
     75          1           0       -3.219794    4.050329    2.162652
     76          1           0       -2.744216    5.469971    0.713396
     77          1           0        8.442153   -2.033459   -0.913362
     78          1           0       -2.260685    6.716269   -2.327425
     79          1           0       -3.246525    6.047967   -1.160832
 ---------------------------------------------------------------------

 SCF Done:  E(RB3LYP) =  -1947.84820358     A.U. after   19 cycles

 Excitation energies and oscillator strengths:

 Excited State   1:      Singlet-A      0.9016 eV 1375.19 nm  f=0.0246  <S**2>=0.000
     155 ->156         0.70442
 This state for optimization and/or second-order correction.
 Total Energy, E(TD-HF/TD-DFT) =  -1947.81507122
 Copying the excited state density for this state as the 1-particle RhoCI density.

 The electronic state is 1-A.
 Alpha  occ. eigenvalues --  -19.19101 -19.18579 -19.14765 -19.13802 -19.12400
 Alpha  occ. eigenvalues --  -19.08610 -14.38754 -14.36962 -14.31750 -14.31249
 Alpha  occ. eigenvalues --  -10.33312 -10.32514 -10.28593 -10.27055 -10.26348
 Alpha  occ. eigenvalues --  -10.25897 -10.24812 -10.23808 -10.23641 -10.23008
 Alpha  occ. eigenvalues --  -10.22907 -10.22798 -10.22768 -10.22310 -10.21898
 Alpha  occ. eigenvalues --  -10.21834 -10.21675 -10.21553 -10.21495 -10.21441
 Alpha  occ. eigenvalues --  -10.21181 -10.20746 -10.20644 -10.19991 -10.19771
 Alpha  occ. eigenvalues --  -10.19656 -10.19062 -10.18446 -10.18150 -10.18042
 Alpha  occ. eigenvalues --  -10.17843 -10.17549 -10.17106  -1.10171  -1.07456
 Alpha  occ. eigenvalues --   -1.02081  -1.01984  -1.01196  -0.99490  -0.99479
 Alpha  occ. eigenvalues --   -0.98085  -0.93096  -0.91101  -0.82827  -0.82311
 Alpha  occ. eigenvalues --   -0.81869  -0.80894  -0.79387  -0.78813  -0.77917
 Alpha  occ. eigenvalues --   -0.77162  -0.76248  -0.75597  -0.73851  -0.72854
 Alpha  occ. eigenvalues --   -0.70713  -0.69745  -0.68446  -0.68164  -0.67038
 Alpha  occ. eigenvalues --   -0.66350  -0.64895  -0.63006  -0.61160  -0.60310
 Alpha  occ. eigenvalues --   -0.59114  -0.59060  -0.57865  -0.57058  -0.56361
 Alpha  occ. eigenvalues --   -0.56153  -0.54777  -0.54509  -0.53732  -0.53386
 Alpha  occ. eigenvalues --   -0.52033  -0.51142  -0.50286  -0.49858  -0.49232
 Alpha  occ. eigenvalues --   -0.48834  -0.48541  -0.48508  -0.48317  -0.47821
 Alpha  occ. eigenvalues --   -0.47536  -0.47178  -0.45845  -0.45680  -0.45482
 Alpha  occ. eigenvalues --   -0.45098  -0.44771  -0.44568  -0.44124  -0.44097
 Alpha  occ. eigenvalues --   -0.43518  -0.42626  -0.42479  -0.42394  -0.41838
 Alpha  occ. eigenvalues --   -0.41663  -0.41625  -0.41266  -0.41192  -0.40753
 Alpha  occ. eigenvalues --   -0.40427  -0.40282  -0.39793  -0.39614  -0.39269
 Alpha  occ. eigenvalues --   -0.38979  -0.38955  -0.38721  -0.37986  -0.37879
 Alpha  occ. eigenvalues --   -0.37544  -0.37405  -0.37042  -0.36792  -0.36519
 Alpha  occ. eigenvalues --   -0.36036  -0.35509  -0.35288  -0.34724  -0.33945
 Alpha  occ. eigenvalues --   -0.33601  -0.33057  -0.33009  -0.32363  -0.31926
 Alpha  occ. eigenvalues --   -0.31443  -0.30313  -0.30148  -0.29551  -0.28961
 Alpha  occ. eigenvalues --   -0.28621  -0.26573  -0.26074  -0.24547  -0.24222
 Alpha  occ. eigenvalues --   -0.23494  -0.23367  -0.22636  -0.22340  -0.18671
 Alpha virt. eigenvalues --   -0.13331  -0.08391  -0.03675  -0.02838  -0.01707
 Alpha virt. eigenvalues --   -0.00822   0.01142   0.02013   0.02859   0.03137
 Alpha virt. eigenvalues --    0.03266   0.03739   0.04020   0.04255   0.04636

 Mulliken charges:
               1
     1  O   -0.203601
     2  O   -0.247463
     3  O   -0.234005
     4  O   -0.246982
     5  O   -0.183307
     6  O   -0.238046
     7  N   -0.042744
     8  N   -0.262463
     9  N   -0.161127
    10  N   -0.389130
    11  C    0.049662
    12  C    0.182069
    13  C   -0.070895
    14  C   -0.030735
    15  C   -0.113358
    16  C   -0.007202
    17  C   -0.172401
    18  C    0.144769
    19  C   -0.071911
    20  C   -0.091273
    21  C    0.102983
    22  C    0.150099
    23  C   -0.115377
    24  C   -0.044499
    25  C   -0.005895
    26  C   -0.125892
    27  C    0.013038
    28  C    0.109318
    29  C    0.045682
    30  C    0.017333
    31  C   -0.056211
    32  C    0.117754
    33  C   -0.020670
    34  C    0.169340
    35  C    0.087945
    36  C   -0.060430
    37  C    0.173094
    38  C    0.075817
    39  C   -0.091153
    40  C    0.206985
    41  C    0.005079
    42  C   -0.134846
    43  C   -0.073187
    44  H    0.055399
    45  H   -0.034915
    46  H   -0.030040
    47  H    0.177386
    48  H    0.162109
    49  H    0.007186
    50  H   -0.032416
    51  H   -0.008893
    52  H    0.019420
    53  H    0.011139
    54  H    0.062143
    55  H    0.034368
    56  H    0.065858
    57  H    0.057097
    58  H    0.039355
    59  H    0.030073
    60  H    0.251349
    61  H    0.029091
    62  H    0.046735
    63  H    0.008522
    64  H    0.077014
    65  H    0.065852
    66  H    0.001330
    67  H    0.038205
    68  H    0.019344
    69  H   -0.036785
    70  H    0.007365
    71  H    0.038490
    72  H    0.200730
    73  H    0.008567
    74  H    0.078416
    75  H    0.078480
    76  H    0.054749
    77  H    0.209814
    78  H    0.009873
    79  H    0.041427
 Sum of Mulliken charges =  -0.00000

 Dipole moment (field-independent basis, Debye):
    X=              4.2947    Y=              3.1116    Z=             -0.8113  Tot=              5.3651
 Quadrupole moment (field-independent basis, Debye-Ang):
   XX=           -237.8100   YY=           -230.4176   ZZ=           -273.6487
   XY=              2.4826   XZ=            -19.9677   YZ=            -13.8839

 Normal termination of Gaussian 16 at Wed Jul 31 07:56:11 2019.
