 Gaussian 16, Revision A.03,
 Gaussian 16:  ES64L-G16RevA.03 25-Dec-2016

 --------------------------
 # td=(NStates=1) B3LYP/SVP
 --------------------------

 --
 TD
 --
 Symbolic Z-matrix:
 Charge =  0 Multiplicity = 1

                         Standard orientation:
 ---------------------------------------------------------------------
 Center     Atomic      Atomic             Coordinates (Angstroms)
 Number     Number       Type             X           Y           Z
 ---------------------------------------------------------------------
      1          8           0       -3.078345   -1.370382   -2.920329
      2          8           0        2.766512    3.228257    2.915370
      3          8           0        3.199873    1.819983    4.675104
      4          8           0        7.875056   -1.569797   -0.568479
      5          8           0        6.689316   -3.082423   -1.928975
      6          8           0       -2.664316    1.665247    1.401962
      7          7           0       -0.361640   -2.465068    1.016922
      8          7           0       -2.693704   -1.128501   -0.593350
      9          7           0        1.168894   -0.029204   -0.746756
     10          7           0       -0.984122    1.466818   -0.230953
     11          6           0       -3.471804   -1.256408    0.648022
     12          6           0       -2.692676   -2.303428    1.613827
     13          6           0       -1.260165   -2.094542    1.850043
     14          6           0       -0.649883   -1.108350    2.751312
     15          6           0        0.647673   -0.977185    2.497180
     16          6           0        0.886626   -1.864136    1.288563
     17          6           0       -4.788097   -1.902076    0.190711
     18          6           0        1.745323   -0.213473    3.178183
     19          6           0       -4.741130   -2.114426   -1.121813
     20          6           0        2.049140   -1.909693    0.418179
     21          6           0        2.084205   -1.043415   -0.625991
     22          6           0       -3.413504   -1.429476   -1.749261
     23          6           0        3.131269   -0.705364   -1.664182
     24          6           0       -1.415959   -0.469924    3.930473
     25          6           0       -5.773537   -2.055128    1.263573
     26          6           0        2.699099    0.343700   -2.359129
     27          6           0        1.707885    1.198434    2.757537
     28          6           0        1.345555    0.781628   -1.809258
     29          6           0        4.290112   -1.630166   -1.779414
     30          6           0       -5.722028   -2.583909   -2.066955
     31          6           0        5.522451   -1.073418   -1.080468
     32          6           0        3.266771    1.002823   -3.485251
     33          6           0        0.600353    1.849562   -2.097728
     34          6           0        2.641530    2.027514    3.613655
     35          6           0       -0.549355    2.223574   -1.275825
     36          6           0       -6.688946   -3.471915   -1.728314
     37          6           0        6.728594   -2.037550   -1.237822
     38          6           0       -1.309997    3.383456   -1.427298
     39          6           0       -2.255778    3.390657   -0.376391
     40          6           0       -1.996778    2.164024    0.435150
     41          6           0       -1.134218    4.452589   -2.499210
     42          6           0       -3.338782    4.376256   -0.022557
     43          6           0       -1.685334    5.701571   -2.557395
     44          1           0       -3.499045   -0.320308    1.118545
     45          1           0       -2.814235   -3.287287    1.167265
     46          1           0       -3.131437   -2.301896    2.605984
     47          1           0       -0.497723   -3.032015    0.149292
     48          1           0       -1.891908   -0.445570   -0.513034
     49          1           0        1.690424   -0.350143    4.388523
     50          1           0        2.654797   -0.761063    2.616326
     51          1           0        2.981125   -2.631309    0.537755
     52          1           0       -2.006200   -1.429273    4.401631
     53          1           0       -0.639378    0.018170    4.741224
     54          1           0       -2.211584    0.328922    3.591242
     55          1           0       -5.890748   -1.085424    1.963754
     56          1           0       -5.682895   -3.171643    1.724940
     57          1           0       -6.871561   -2.029533    0.838328
     58          1           0        1.898805    1.132386    1.761115
     59          1           0        0.750701    1.580355    2.927071
     60          1           0        0.354104    0.090606   -0.198725
     61          1           0        4.543030   -1.791225   -2.854048
     62          1           0        4.361756   -2.620304   -1.312360
     63          1           0       -5.425982   -2.226967   -3.055098
     64          1           0        5.351494   -0.959976    0.075933
     65          1           0        5.854112   -0.194405   -1.271498
     66          1           0        4.199020    0.576697   -3.962783
     67          1           0        3.502872    2.222657   -3.377726
     68          1           0        2.465329    1.174880   -4.282142
     69          1           0        0.909403    2.204993   -2.954720
     70          1           0       -6.639727   -3.790091   -0.726406
     71          1           0       -7.618754   -3.678305   -2.242722
     72          1           0        3.257637    3.840461    3.613310
     73          1           0       -0.491279    4.290228   -3.220534
     74          1           0       -4.022233    4.794928   -0.936091
     75          1           0       -3.908102    3.836529    0.745470
     76          1           0       -3.042070    5.336626    0.507380
     77          1           0        8.601536   -2.177597   -0.699797
     78          1           0       -1.398848    6.355599   -3.439585
     79          1           0       -2.654864    6.154061   -1.978977
 ---------------------------------------------------------------------

 SCF Done:  E(RB3LYP) =  -1947.83118406     A.U. after   20 cycles

 Excitation energies and oscillator strengths:

 Excited State   1:      Singlet-A      0.5799 eV 2138.13 nm  f=0.0008  <S**2>=0.000
     155 ->156         0.70451
 This state for optimization and/or second-order correction.
 Total Energy, E(TD-HF/TD-DFT) =  -1947.80987415
 Copying the excited state density for this state as the 1-particle RhoCI density.

 The electronic state is 1-A.
 Alpha  occ. eigenvalues --  -19.19540 -19.17638 -19.14823 -19.13537 -19.13413
 Alpha  occ. eigenvalues --  -19.09424 -14.38392 -14.37277 -14.33060 -14.31119
 Alpha  occ. eigenvalues --  -10.34420 -10.31934 -10.29320 -10.27634 -10.26252
 Alpha  occ. eigenvalues --  -10.26115 -10.25165 -10.23105 -10.22818 -10.22746
 Alpha  occ. eigenvalues --  -10.22555 -10.22461 -10.22370 -10.22174 -10.22007
 Alpha  occ. eigenvalues --  -10.21922 -10.21585 -10.21537 -10.21516 -10.21309
 Alpha  occ. eigenvalues --  -10.20730 -10.20289 -10.20202 -10.20151 -10.19948
 Alpha  occ. eigenvalues --  -10.19726 -10.19076 -10.18513 -10.18486 -10.18314
 Alpha  occ. eigenvalues --  -10.17689 -10.17538 -10.16547  -1.08577  -1.07568
 Alpha  occ. eigenvalues --   -1.01466  -1.00776  -1.00567  -1.00544  -0.99350
 Alpha  occ. eigenvalues --   -0.98223  -0.93915  -0.91093  -0.84838  -0.83660
 Alpha  occ. eigenvalues --   -0.81740  -0.80803  -0.80329  -0.80069  -0.78488
 Alpha  occ. eigenvalues --   -0.76962  -0.76438  -0.75922  -0.74424  -0.73297
 Alpha  occ. eigenvalues --   -0.71625  -0.69567  -0.69111  -0.68261  -0.66976
 Alpha  occ. eigenvalues --   -0.66055  -0.65540  -0.63782  -0.61583  -0.60787
 Alpha  occ. eigenvalues --   -0.60094  -0.59723  -0.59445  -0.57850  -0.57036
 Alpha  occ. eigenvalues --   -0.56245  -0.55612  -0.55508  -0.53951  -0.52381
 Alpha  occ. eigenvalues --   -0.52117  -0.51899  -0.50981  -0.50358  -0.49782
 Alpha  occ. eigenvalues --   -0.49611  -0.48747  -0.48477  -0.47901  -0.47705
 Alpha  occ. eigenvalues --   -0.47565  -0.47186  -0.46517  -0.46193  -0.45696
 Alpha  occ. eigenvalues --   -0.45318  -0.44865  -0.44595  -0.44180  -0.44137
 Alpha  occ. eigenvalues --   -0.43788  -0.43328  -0.42552  -0.42482  -0.41872
 Alpha  occ. eigenvalues --   -0.41809  -0.41717  -0.41536  -0.40988  -0.40773
 Alpha  occ. eigenvalues --   -0.40662  -0.40341  -0.40192  -0.39978  -0.39647
 Alpha  occ. eigenvalues --   -0.39153  -0.38943  -0.38696  -0.38029  -0.37966
 Alpha  occ. eigenvalues --   -0.37488  -0.37401  -0.37089  -0.36769  -0.36369
 Alpha  occ. eigenvalues --   -0.35988  -0.35643  -0.35498  -0.35462  -0.35214
 Alpha  occ. eigenvalues --   -0.33541  -0.33432  -0.32603  -0.32051  -0.31901
 Alpha  occ. eigenvalues --   -0.31544  -0.30116  -0.29832  -0.29389  -0.29104
 Alpha  occ. eigenvalues --   -0.28641  -0.27426  -0.26664  -0.24872  -0.24413
 Alpha  occ. eigenvalues --   -0.24013  -0.23736  -0.22841  -0.22194  -0.18069
 Alpha virt. eigenvalues --   -0.13599  -0.07511  -0.03941  -0.02701  -0.02584
 Alpha virt. eigenvalues --   -0.00058   0.01029   0.01785   0.02714   0.02883
 Alpha virt. eigenvalues --    0.03817   0.04195   0.04498   0.04504   0.04949

 Mulliken charges:
               1
     1  O   -0.233681
     2  O   -0.255597
     3  O   -0.216106
     4  O   -0.211778
     5  O   -0.253523
     6  O   -0.246897
     7  N    0.010222
     8  N   -0.264107
     9  N   -0.041590
    10  N   -0.335061
    11  C    0.106347
    12  C    0.212991
    13  C   -0.147309
    14  C   -0.113252
    15  C   -0.068393
    16  C   -0.067304
    17  C   -0.138911
    18  C    0.012577
    19  C   -0.103483
    20  C   -0.161748
    21  C    0.104828
    22  C    0.187229
    23  C   -0.037628
    24  C   -0.048715
    25  C   -0.007929
    26  C   -0.045621
    27  C    0.111602
    28  C    0.069825
    29  C    0.098336
    30  C    0.000332
    31  C    0.017493
    32  C   -0.021394
    33  C    0.002596
    34  C    0.158938
    35  C    0.162175
    36  C    0.001249
    37  C    0.176513
    38  C    0.046603
    39  C   -0.176564
    40  C    0.217840
    41  C    0.076965
    42  C    0.015202
    43  C   -0.081660
    44  H    0.017145
    45  H   -0.032561
    46  H   -0.011452
    47  H    0.134026
    48  H    0.158652
    49  H    0.051987
    50  H    0.015490
    51  H    0.031663
    52  H    0.037945
    53  H    0.029857
    54  H    0.064266
    55  H    0.055078
    56  H    0.065140
    57  H    0.027738
    58  H   -0.005208
    59  H    0.029816
    60  H    0.158714
    61  H    0.029316
    62  H    0.028674
    63  H    0.005148
    64  H    0.051269
    65  H   -0.028015
    66  H    0.040990
    67  H    0.042683
    68  H    0.043179
    69  H   -0.116585
    70  H   -0.003573
    71  H    0.022704
    72  H    0.199867
    73  H   -0.064776
    74  H    0.057372
    75  H    0.030148
    76  H    0.046443
    77  H    0.182426
    78  H    0.037463
    79  H    0.055358
 Sum of Mulliken charges =  -0.00000

 Dipole moment (field-independent basis, Debye):
    X=              3.2368    Y=              3.4734    Z=             -1.6472  Tot=              5.0254
 Quadrupole moment (field-independent basis, Debye-Ang):
   XX=           -232.7372   YY=           -236.9291   ZZ=           -271.2793
   XY=             -0.8815   XZ=            -20.7438   YZ=            -17.1307

 Normal termination of Gaussian 16 at Sun Jul 28 06:34:00 2019.
