 Gaussian 16, Revision A.03,
 Gaussian 16:  ES64L-G16RevA.03 25-Dec-2016

 --------------------------
 # td=(NStates=1) B3LYP/SVP
 --------------------------

 --
 TD
 --
 Symbolic Z-matrix:
 Charge =  0 Multiplicity = 1

                         Standard orientation:
 ---------------------------------------------------------------------
 Center     Atomic      Atomic             Coordinates (Angstroms)
 Number     Number       Type             X           Y           Z
 ---------------------------------------------------------------------
      1          8           0       -3.274602   -1.156696   -2.931191
      2          8           0        2.687570    3.096108    3.377005
      3          8           0        3.456152    1.373365    4.390380
      4          8           0        7.763430   -1.579886   -0.634141
      5          8           0        6.710628   -2.815175   -2.314996
      6          8           0       -2.787978    1.574337    1.386394
      7          7           0       -0.173735   -2.453924    0.863302
      8          7           0       -2.572936   -1.214625   -0.686388
      9          7           0        1.229252    0.144403   -0.609341
     10          7           0       -1.026167    1.428244   -0.173782
     11          6           0       -3.323121   -1.415333    0.616319
     12          6           0       -2.477996   -2.547294    1.517612
     13          6           0       -1.088318   -2.142275    1.735147
     14          6           0       -0.652255   -1.399902    2.791920
     15          6           0        0.714077   -1.186820    2.531951
     16          6           0        0.997044   -1.847985    1.230109
     17          6           0       -4.604750   -1.986355    0.113911
     18          6           0        1.739267   -0.426327    3.229374
     19          6           0       -4.726411   -2.029601   -1.186153
     20          6           0        2.132563   -1.825014    0.286311
     21          6           0        2.140972   -0.871100   -0.619640
     22          6           0       -3.434556   -1.430949   -1.720484
     23          6           0        3.139825   -0.522111   -1.672945
     24          6           0       -1.470450   -0.645061    3.854522
     25          6           0       -5.638303   -2.456830    1.180426
     26          6           0        2.670064    0.656077   -2.282637
     27          6           0        1.852958    1.070214    2.728183
     28          6           0        1.416150    1.066637   -1.702399
     29          6           0        4.313117   -1.304087   -2.155107
     30          6           0       -5.700459   -2.498009   -2.170598
     31          6           0        5.473353   -1.025439   -1.060705
     32          6           0        3.205642    1.332090   -3.548280
     33          6           0        0.501809    2.032114   -2.004383
     34          6           0        2.725494    1.849386    3.574266
     35          6           0       -0.649313    2.306432   -1.145878
     36          6           0       -6.730650   -3.286779   -1.866133
     37          6           0        6.725190   -1.935987   -1.399540
     38          6           0       -1.406504    3.533891   -1.098670
     39          6           0       -2.395069    3.380257   -0.102812
     40          6           0       -2.157161    2.033666    0.458056
     41          6           0       -1.301000    4.606906   -2.113505
     42          6           0       -3.660921    4.224201    0.264107
     43          6           0       -2.035523    5.738909   -2.255236
     44          1           0       -3.175120   -0.526945    1.085894
     45          1           0       -2.474793   -3.513957    0.794447
     46          1           0       -3.145819   -2.501799    2.420243
     47          1           0       -0.352983   -2.966332   -0.009505
     48          1           0       -1.900760   -0.554509   -0.528418
     49          1           0        1.384274   -0.469388    4.332133
     50          1           0        2.720510   -0.849032    3.063001
     51          1           0        2.907907   -2.669858    0.504872
     52          1           0       -2.212389   -1.138204    4.745724
     53          1           0       -0.488923   -0.179062    4.487515
     54          1           0       -1.973448    0.241777    3.631427
     55          1           0       -5.321073   -1.977108    2.160319
     56          1           0       -5.655842   -3.689936    0.950232
     57          1           0       -6.679293   -2.073224    0.912245
     58          1           0        2.349135    0.950973    1.612557
     59          1           0        0.875184    1.808435    2.290273
     60          1           0        0.299309    0.198080   -0.165692
     61          1           0        4.567594   -1.243608   -3.248866
     62          1           0        4.122805   -2.213032   -2.082856
     63          1           0       -5.216579   -2.316515   -3.167779
     64          1           0        5.215067   -1.321580    0.011701
     65          1           0        5.675072    0.006899   -1.154465
     66          1           0        4.054898    0.754371   -4.022138
     67          1           0        3.922518    2.289604   -3.222079
     68          1           0        2.376765    1.277776   -4.291956
     69          1           0        0.677475    2.544601   -2.802837
     70          1           0       -6.885597   -3.401056   -0.742831
     71          1           0       -7.275156   -3.746934   -2.636710
     72          1           0        3.537886    3.351436    3.936027
     73          1           0       -0.459916    4.503764   -2.851337
     74          1           0       -4.485643    4.648484   -0.638328
     75          1           0       -4.175988    3.902020    1.037010
     76          1           0       -3.167511    5.138078    0.849531
     77          1           0        8.617291   -2.108405   -0.655569
     78          1           0       -1.621005    6.510307   -2.791757
     79          1           0       -3.040941    5.783638   -1.798838
 ---------------------------------------------------------------------

 SCF Done:  E(RB3LYP) =  -1947.75184711     A.U. after   19 cycles

 Excitation energies and oscillator strengths:

 Excited State   1:      Singlet-A      0.8362 eV 1482.75 nm  f=0.0003  <S**2>=0.000
     155 ->156         0.70392
 This state for optimization and/or second-order correction.
 Total Energy, E(TD-HF/TD-DFT) =  -1947.72111805
 Copying the excited state density for this state as the 1-particle RhoCI density.

 The electronic state is 1-A.
 Alpha  occ. eigenvalues --  -19.20722 -19.18425 -19.13831 -19.13438 -19.10450
 Alpha  occ. eigenvalues --  -19.07483 -14.37373 -14.36177 -14.32317 -14.31832
 Alpha  occ. eigenvalues --  -10.34380 -10.29824 -10.29047 -10.26357 -10.26323
 Alpha  occ. eigenvalues --  -10.26187 -10.25085 -10.23141 -10.23139 -10.22898
 Alpha  occ. eigenvalues --  -10.22638 -10.22591 -10.22483 -10.22243 -10.21849
 Alpha  occ. eigenvalues --  -10.21826 -10.21391 -10.21356 -10.21282 -10.20631
 Alpha  occ. eigenvalues --  -10.20520 -10.20493 -10.20340 -10.20287 -10.19824
 Alpha  occ. eigenvalues --  -10.19543 -10.19283 -10.19182 -10.18318 -10.18074
 Alpha  occ. eigenvalues --  -10.17520 -10.17474 -10.16995  -1.12568  -1.09684
 Alpha  occ. eigenvalues --   -1.04541  -1.00006  -0.99682  -0.99145  -0.98614
 Alpha  occ. eigenvalues --   -0.97899  -0.93772  -0.91288  -0.83150  -0.82981
 Alpha  occ. eigenvalues --   -0.81067  -0.80729  -0.80265  -0.78452  -0.77912
 Alpha  occ. eigenvalues --   -0.76337  -0.75718  -0.75528  -0.74117  -0.72402
 Alpha  occ. eigenvalues --   -0.71293  -0.70083  -0.69617  -0.68711  -0.67509
 Alpha  occ. eigenvalues --   -0.67029  -0.66233  -0.63332  -0.62995  -0.61049
 Alpha  occ. eigenvalues --   -0.60476  -0.59551  -0.58336  -0.58133  -0.56785
 Alpha  occ. eigenvalues --   -0.55910  -0.55616  -0.54960  -0.53633  -0.53173
 Alpha  occ. eigenvalues --   -0.52090  -0.51133  -0.50680  -0.49873  -0.49518
 Alpha  occ. eigenvalues --   -0.49041  -0.48526  -0.48357  -0.48087  -0.47906
 Alpha  occ. eigenvalues --   -0.47643  -0.47291  -0.46966  -0.46581  -0.46040
 Alpha  occ. eigenvalues --   -0.45207  -0.44937  -0.44713  -0.44300  -0.44137
 Alpha  occ. eigenvalues --   -0.43632  -0.43160  -0.42819  -0.42372  -0.42039
 Alpha  occ. eigenvalues --   -0.41873  -0.41569  -0.41501  -0.40770  -0.40517
 Alpha  occ. eigenvalues --   -0.40370  -0.40150  -0.39856  -0.39748  -0.39315
 Alpha  occ. eigenvalues --   -0.38694  -0.38447  -0.38375  -0.37906  -0.37561
 Alpha  occ. eigenvalues --   -0.37145  -0.36864  -0.36607  -0.36583  -0.36457
 Alpha  occ. eigenvalues --   -0.36184  -0.35595  -0.34912  -0.34731  -0.33898
 Alpha  occ. eigenvalues --   -0.33089  -0.33078  -0.32495  -0.31645  -0.31442
 Alpha  occ. eigenvalues --   -0.31080  -0.30714  -0.30433  -0.29331  -0.28920
 Alpha  occ. eigenvalues --   -0.27185  -0.26661  -0.26278  -0.24478  -0.23818
 Alpha  occ. eigenvalues --   -0.23400  -0.22856  -0.22721  -0.22427  -0.18575
 Alpha virt. eigenvalues --   -0.13168  -0.07989  -0.03268  -0.02467  -0.01933
 Alpha virt. eigenvalues --    0.00745   0.01926   0.02016   0.02677   0.03091
 Alpha virt. eigenvalues --    0.03261   0.03703   0.04078   0.04323   0.04598

 Mulliken charges:
               1
     1  O   -0.283057
     2  O   -0.136458
     3  O   -0.248395
     4  O   -0.196498
     5  O   -0.273240
     6  O   -0.183267
     7  N    0.029310
     8  N   -0.181405
     9  N   -0.145859
    10  N   -0.350554
    11  C    0.062129
    12  C    0.137715
    13  C   -0.124333
    14  C   -0.048849
    15  C   -0.093435
    16  C   -0.092522
    17  C   -0.182902
    18  C    0.124614
    19  C   -0.030641
    20  C   -0.218692
    21  C    0.233213
    22  C    0.156347
    23  C   -0.104792
    24  C   -0.020126
    25  C    0.002415
    26  C   -0.138060
    27  C   -0.157153
    28  C    0.136048
    29  C    0.257042
    30  C    0.003233
    31  C   -0.060702
    32  C    0.038959
    33  C    0.007965
    34  C    0.112946
    35  C    0.130667
    36  C   -0.002199
    37  C    0.189872
    38  C    0.044708
    39  C   -0.171025
    40  C    0.188183
    41  C   -0.061858
    42  C    0.088383
    43  C    0.025529
    44  H    0.003421
    45  H   -0.002200
    46  H    0.004916
    47  H    0.122774
    48  H    0.094332
    49  H    0.038470
    50  H   -0.000940
    51  H    0.043501
    52  H    0.031578
    53  H    0.002247
    54  H    0.027745
    55  H    0.043061
    56  H    0.071931
    57  H    0.050779
    58  H    0.070450
    59  H    0.070936
    60  H    0.192694
    61  H    0.037727
    62  H   -0.080157
    63  H    0.018810
    64  H    0.069505
    65  H    0.034123
    66  H    0.010221
    67  H    0.057421
    68  H    0.062845
    69  H   -0.114283
    70  H    0.014571
    71  H    0.010643
    72  H    0.198210
    73  H    0.007210
    74  H    0.082607
    75  H   -0.028707
    76  H    0.038841
    77  H    0.214554
    78  H    0.011214
    79  H    0.025693
 Sum of Mulliken charges =  -0.00000

 Dipole moment (field-independent basis, Debye):
    X=              4.5116    Y=              3.2927    Z=             -0.8947  Tot=              5.6566
 Quadrupole moment (field-independent basis, Debye-Ang):
   XX=           -224.1836   YY=           -234.0737   ZZ=           -276.3969
   XY=             -1.2367   XZ=            -17.0552   YZ=            -11.8466

 Normal termination of Gaussian 16 at Thu Jul 25 12:16:27 2019.
