 Gaussian 16, Revision A.03,
 Gaussian 16:  ES64L-G16RevA.03 25-Dec-2016

 --------------------------
 # td=(NStates=1) B3LYP/SVP
 --------------------------

 --
 TD
 --
 Symbolic Z-matrix:
 Charge =  0 Multiplicity = 1

                         Standard orientation:
 ---------------------------------------------------------------------
 Center     Atomic      Atomic             Coordinates (Angstroms)
 Number     Number       Type             X           Y           Z
 ---------------------------------------------------------------------
      1          8           0        5.212148   -0.037237   -3.317799
      2          8           0       -3.205860   -2.859508    3.332097
      3          8           0       -3.460202   -0.715350    2.924375
      4          8           0       -1.593071    7.123558    1.499566
      5          8           0       -0.251682    6.941503   -0.309648
      6          8           0       -1.864780   -3.873537    0.241900
      7          7           0        2.326271    0.848950    0.557094
      8          7           0        4.376215   -0.617282   -1.303921
      9          7           0       -1.902924    0.666138   -0.342673
     10          7           0       -2.603632   -1.798630   -0.448542
     11          6           0        4.718936   -1.244457   -0.039754
     12          6           0        4.336855   -0.438205    1.221389
     13          6           0        2.872825   -0.042118    1.427242
     14          6           0        1.860722   -0.617715    2.132619
     15          6           0        0.625023   -0.076975    1.831292
     16          6           0        0.902033    0.886928    0.830927
     17          6           0        6.302574   -1.383304   -0.266524
     18          6           0       -0.624959   -0.313883    2.660692
     19          6           0        6.706861   -0.878420   -1.370444
     20          6           0        0.189007    1.989788    0.170460
     21          6           0       -1.218774    1.841603   -0.242229
     22          6           0        5.397656   -0.421978   -2.185841
     23          6           0       -1.914296    2.938697   -0.883537
     24          6           0        2.189028   -1.653867    3.261026
     25          6           0        7.096330   -2.067131    0.807882
     26          6           0       -3.007149    2.345682   -1.407204
     27          6           0       -1.182351   -1.717164    2.712770
     28          6           0       -3.074050    0.974180   -0.999557
     29          6           0       -1.417792    4.376087   -0.921691
     30          6           0        7.956497   -0.748070   -2.030114
     31          6           0       -1.799026    5.073676    0.377411
     32          6           0       -4.156440    3.054476   -2.155575
     33          6           0       -3.946053   -0.071934   -1.411826
     34          6           0       -2.673945   -1.655718    3.001888
     35          6           0       -3.697185   -1.421182   -1.205306
     36          6           0        9.213284   -0.945500   -1.368043
     37          6           0       -1.095166    6.384172    0.443725
     38          6           0       -4.525758   -2.547409   -1.607325
     39          6           0       -3.831659   -3.681015   -1.053283
     40          6           0       -2.726820   -3.192234   -0.442785
     41          6           0       -5.759047   -2.434942   -2.287091
     42          6           0       -4.177550   -5.145050   -1.241574
     43          6           0       -6.706661   -3.364004   -2.566701
     44          1           0        4.358887   -2.127858    0.330834
     45          1           0        4.867317    0.576425    1.169256
     46          1           0        4.766395   -1.070317    2.179917
     47          1           0        2.722354    1.500805   -0.199373
     48          1           0        3.343098   -0.475390   -1.633936
     49          1           0       -0.578303    0.185459    3.697721
     50          1           0       -1.344429    0.533455    2.186286
     51          1           0        0.880380    2.797222   -0.080635
     52          1           0        3.228072   -1.780263    3.572179
     53          1           0        1.763819   -1.230085    4.216117
     54          1           0        1.694281   -2.703867    3.072901
     55          1           0        6.420309   -2.698825    1.399192
     56          1           0        7.548095   -1.325661    1.533545
     57          1           0        7.868879   -2.549910    0.378238
     58          1           0       -0.939578   -2.245979    1.652630
     59          1           0       -0.508499   -2.266826    3.596099
     60          1           0       -1.617879   -0.317480   -0.296041
     61          1           0       -2.019705    4.812900   -1.667433
     62          1           0       -0.393213    4.371566   -1.143127
     63          1           0        7.929881   -0.301348   -3.088743
     64          1           0       -1.469489    4.561257    1.293460
     65          1           0       -2.889225    5.332736    0.495409
     66          1           0       -3.880610    4.247119   -2.549404
     67          1           0       -4.962668    3.022654   -1.436165
     68          1           0       -4.490448    2.490488   -3.085532
     69          1           0       -4.732136    0.141530   -1.934722
     70          1           0        9.300460   -1.273390   -0.233712
     71          1           0       10.308106   -0.902270   -1.807349
     72          1           0       -4.065799   -2.749035    3.475151
     73          1           0       -6.090566   -1.487831   -2.697324
     74          1           0       -5.066387   -5.609006   -0.659344
     75          1           0       -4.470108   -5.352638   -2.311399
     76          1           0       -3.284641   -5.733058   -0.949962
     77          1           0       -0.897181    7.894557    1.686199
     78          1           0       -7.540799   -2.987142   -3.353281
     79          1           0       -6.820308   -4.427756   -2.162811
 ---------------------------------------------------------------------

 SCF Done:  E(RB3LYP) =  -1947.85697173     A.U. after   21 cycles

 Excitation energies and oscillator strengths:

 Excited State   1:      Singlet-A      1.7791 eV  696.91 nm  f=0.3291  <S**2>=0.000
     154 ->156         0.29625
     155 ->156         0.64400
     155 <-156        -0.13465
 This state for optimization and/or second-order correction.
 Total Energy, E(TD-HF/TD-DFT) =  -1947.79159268
 Copying the excited state density for this state as the 1-particle RhoCI density.

 The electronic state is 1-A.
 Alpha  occ. eigenvalues --  -19.18574 -19.15008 -19.13609 -19.10944 -19.10814
 Alpha  occ. eigenvalues --  -19.08681 -14.39336 -14.36814 -14.36507 -14.28343
 Alpha  occ. eigenvalues --  -10.33157 -10.30716 -10.29308 -10.25195 -10.25039
 Alpha  occ. eigenvalues --  -10.24737 -10.24477 -10.24068 -10.23767 -10.23655
 Alpha  occ. eigenvalues --  -10.23381 -10.22750 -10.22499 -10.22413 -10.22259
 Alpha  occ. eigenvalues --  -10.22095 -10.21559 -10.21347 -10.21167 -10.21130
 Alpha  occ. eigenvalues --  -10.21068 -10.20919 -10.20668 -10.20602 -10.20396
 Alpha  occ. eigenvalues --  -10.20258 -10.20233 -10.20224 -10.20207 -10.19580
 Alpha  occ. eigenvalues --  -10.19332 -10.19226 -10.18426  -1.08655  -1.07779
 Alpha  occ. eigenvalues --   -1.03472  -0.99334  -0.98313  -0.98308  -0.97989
 Alpha  occ. eigenvalues --   -0.97497  -0.93828  -0.90348  -0.84073  -0.82895
 Alpha  occ. eigenvalues --   -0.81628  -0.81050  -0.80234  -0.79753  -0.78983
 Alpha  occ. eigenvalues --   -0.77129  -0.76081  -0.75278  -0.74377  -0.72604
 Alpha  occ. eigenvalues --   -0.71096  -0.70826  -0.69719  -0.69151  -0.68494
 Alpha  occ. eigenvalues --   -0.66834  -0.65977  -0.63692  -0.61590  -0.60832
 Alpha  occ. eigenvalues --   -0.59707  -0.59202  -0.58612  -0.57854  -0.57319
 Alpha  occ. eigenvalues --   -0.56946  -0.56271  -0.54944  -0.54391  -0.53235
 Alpha  occ. eigenvalues --   -0.51884  -0.51777  -0.51433  -0.50596  -0.50447
 Alpha  occ. eigenvalues --   -0.49030  -0.48219  -0.48185  -0.47705  -0.47408
 Alpha  occ. eigenvalues --   -0.46987  -0.46268  -0.45966  -0.45628  -0.45409
 Alpha  occ. eigenvalues --   -0.45190  -0.44746  -0.44081  -0.44045  -0.43702
 Alpha  occ. eigenvalues --   -0.43239  -0.42889  -0.42830  -0.42411  -0.42185
 Alpha  occ. eigenvalues --   -0.42114  -0.41754  -0.41471  -0.41168  -0.41107
 Alpha  occ. eigenvalues --   -0.40909  -0.40300  -0.39824  -0.39544  -0.39434
 Alpha  occ. eigenvalues --   -0.39210  -0.38754  -0.38278  -0.38037  -0.37939
 Alpha  occ. eigenvalues --   -0.37692  -0.37618  -0.37467  -0.37124  -0.36743
 Alpha  occ. eigenvalues --   -0.36663  -0.36517  -0.35937  -0.34839  -0.34364
 Alpha  occ. eigenvalues --   -0.34102  -0.33036  -0.32965  -0.32097  -0.31216
 Alpha  occ. eigenvalues --   -0.30755  -0.30071  -0.28683  -0.28351  -0.27533
 Alpha  occ. eigenvalues --   -0.26964  -0.26734  -0.26378  -0.26246  -0.25785
 Alpha  occ. eigenvalues --   -0.24122  -0.23816  -0.23078  -0.21639  -0.18913
 Alpha virt. eigenvalues --   -0.12022  -0.07749  -0.06076  -0.02183  -0.01075
 Alpha virt. eigenvalues --    0.00675   0.00798   0.01118   0.02195   0.02519
 Alpha virt. eigenvalues --    0.02586   0.03222   0.04264   0.04970   0.05425

 Mulliken charges:
               1
     1  O   -0.208466
     2  O   -0.123575
     3  O   -0.249220
     4  O   -0.255622
     5  O   -0.266870
     6  O   -0.286166
     7  N   -0.161999
     8  N   -0.216465
     9  N   -0.039597
    10  N   -0.305773
    11  C    0.198406
    12  C    0.071792
    13  C   -0.021324
    14  C   -0.122156
    15  C   -0.040629
    16  C    0.020474
    17  C   -0.208783
    18  C   -0.004677
    19  C   -0.030252
    20  C   -0.091461
    21  C    0.082989
    22  C    0.146607
    23  C   -0.134053
    24  C    0.039233
    25  C    0.133256
    26  C   -0.125409
    27  C   -0.069951
    28  C    0.115845
    29  C    0.250571
    30  C   -0.018221
    31  C   -0.000815
    32  C    0.013037
    33  C   -0.011232
    34  C    0.156526
    35  C    0.089684
    36  C   -0.120452
    37  C    0.145388
    38  C    0.111429
    39  C   -0.116642
    40  C    0.139187
    41  C   -0.047135
    42  C    0.044662
    43  C   -0.100090
    44  H   -0.023193
    45  H   -0.002806
    46  H    0.029837
    47  H    0.152646
    48  H    0.156478
    49  H    0.024213
    50  H    0.033127
    51  H    0.005195
    52  H    0.000846
    53  H    0.023639
    54  H    0.059787
    55  H    0.009982
    56  H    0.039442
    57  H    0.007139
    58  H    0.127243
    59  H    0.056293
    60  H    0.153232
    61  H   -0.018823
    62  H    0.010990
    63  H    0.043625
    64  H    0.052086
    65  H    0.062876
    66  H    0.052097
    67  H    0.041560
    68  H    0.040796
    69  H   -0.134920
    70  H    0.039695
    71  H    0.057554
    72  H    0.119754
    73  H   -0.007220
    74  H    0.036285
    75  H    0.027135
    76  H    0.033005
    77  H    0.222801
    78  H    0.042854
    79  H    0.042698
 Sum of Mulliken charges =  -0.00000

 Dipole moment (field-independent basis, Debye):
    X=              0.9591    Y=              2.6808    Z=              2.4695  Tot=              3.7689
 Quadrupole moment (field-independent basis, Debye-Ang):
   XX=           -220.9569   YY=           -255.8161   ZZ=           -259.3371
   XY=             -9.9141   XZ=             36.1628   YZ=              6.0139

 Normal termination of Gaussian 16 at Sat Sep 21 12:59:40 2019.
