 Gaussian 16, Revision A.03,
 Gaussian 16:  ES64L-G16RevA.03 25-Dec-2016

 --------------------------
 # td=(NStates=1) B3LYP/SVP
 --------------------------

 --
 TD
 --
 Symbolic Z-matrix:
 Charge =  0 Multiplicity = 1

                         Standard orientation:
 ---------------------------------------------------------------------
 Center     Atomic      Atomic             Coordinates (Angstroms)
 Number     Number       Type             X           Y           Z
 ---------------------------------------------------------------------
      1          8           0        5.287782   -0.014867   -3.257862
      2          8           0       -2.957809   -2.931219    3.426324
      3          8           0       -3.445435   -0.699561    3.069031
      4          8           0       -2.036864    7.203163    1.287253
      5          8           0       -0.727815    7.012918   -0.551638
      6          8           0       -1.421476   -3.930234    0.144956
      7          7           0        2.249435    1.017440    0.599449
      8          7           0        4.403569   -0.542472   -1.140294
      9          7           0       -1.908611    0.664526   -0.319243
     10          7           0       -2.462061   -1.928537   -0.635698
     11          6           0        4.843282   -1.059760    0.107189
     12          6           0        4.355533   -0.158453    1.249631
     13          6           0        2.883689   -0.018161    1.360315
     14          6           0        1.829894   -0.573327    2.132879
     15          6           0        0.623445    0.132142    1.855585
     16          6           0        0.881471    1.079069    0.848028
     17          6           0        6.349687   -1.230697   -0.132101
     18          6           0       -0.677320   -0.097815    2.564412
     19          6           0        6.670055   -0.740802   -1.326345
     20          6           0        0.082846    1.995138    0.089603
     21          6           0       -1.206224    1.839657   -0.339614
     22          6           0        5.396712   -0.381818   -2.121994
     23          6           0       -2.055005    2.837295   -0.998158
     24          6           0        2.069506   -1.563127    3.277323
     25          6           0        7.238158   -1.676817    0.964793
     26          6           0       -3.254129    2.278137   -1.319221
     27          6           0       -1.148832   -1.555112    2.568351
     28          6           0       -3.109035    0.835414   -1.016278
     29          6           0       -1.772459    4.309353   -1.075749
     30          6           0        7.930065   -0.592689   -2.011759
     31          6           0       -2.048508    5.067172    0.229447
     32          6           0       -4.533403    2.903906   -1.846253
     33          6           0       -3.977235   -0.273652   -1.237090
     34          6           0       -2.634007   -1.611281    3.016513
     35          6           0       -3.549406   -1.614721   -1.092904
     36          6           0        9.113541   -0.615079   -1.427181
     37          6           0       -1.472730    6.456010    0.185485
     38          6           0       -4.358650   -2.901422   -1.496886
     39          6           0       -3.499273   -3.972941   -1.186335
     40          6           0       -2.330642   -3.395234   -0.566439
     41          6           0       -5.673080   -2.861936   -2.137665
     42          6           0       -3.559711   -5.499682   -1.250985
     43          6           0       -6.382979   -3.948805   -2.539824
     44          1           0        4.302231   -1.946363    0.293837
     45          1           0        4.668366    0.876164    1.350479
     46          1           0        4.753667   -0.689191    2.251445
     47          1           0        2.689659    1.550681   -0.038551
     48          1           0        3.498118   -0.688719   -1.638427
     49          1           0       -0.795144    0.339664    3.649943
     50          1           0       -1.528015    0.355935    1.975032
     51          1           0        0.605536    2.971210   -0.157451
     52          1           0        3.147151   -1.580444    3.578238
     53          1           0        1.571827   -1.286605    4.243645
     54          1           0        1.886290   -2.651557    3.108316
     55          1           0        6.818263   -2.214659    1.530204
     56          1           0        7.477771   -0.935016    1.686452
     57          1           0        8.184672   -2.166671    0.519988
     58          1           0       -0.950743   -2.115784    1.614418
     59          1           0       -0.499371   -1.964031    3.239436
     60          1           0       -1.581008   -0.297247   -0.190787
     61          1           0       -2.258630    4.551244   -1.984740
     62          1           0       -0.653697    4.529370   -1.284519
     63          1           0        7.701665    0.044771   -3.116989
     64          1           0       -1.554387    4.496502    0.871750
     65          1           0       -3.110428    5.445771    0.374520
     66          1           0       -4.422800    4.086587   -1.713624
     67          1           0       -5.457686    2.775241   -1.176785
     68          1           0       -4.975385    2.552356   -2.940719
     69          1           0       -4.861887    0.065725   -1.648266
     70          1           0        9.357197   -0.835952   -0.347338
     71          1           0       10.027425   -0.299500   -1.871716
     72          1           0       -3.938585   -2.886313    3.559876
     73          1           0       -6.204247   -1.873279   -2.161872
     74          1           0       -4.396363   -5.732026   -0.589162
     75          1           0       -3.737702   -5.932568   -2.325584
     76          1           0       -2.490299   -5.840109   -0.860830
     77          1           0       -1.724225    8.158899    1.078893
     78          1           0       -7.285298   -3.735555   -3.028200
     79          1           0       -5.978846   -5.066601   -2.285559
 ---------------------------------------------------------------------

 SCF Done:  E(RB3LYP) =  -1947.86588589     A.U. after   16 cycles

 Excitation energies and oscillator strengths:

 Excited State   1:      Singlet-A      1.9454 eV  637.30 nm  f=0.3641  <S**2>=0.000
     155 ->156         0.70223
 This state for optimization and/or second-order correction.
 Total Energy, E(TD-HF/TD-DFT) =  -1947.79439197
 Copying the excited state density for this state as the 1-particle RhoCI density.

 The electronic state is 1-A.
 Alpha  occ. eigenvalues --  -19.17153 -19.16249 -19.14844 -19.12623 -19.11855
 Alpha  occ. eigenvalues --  -19.11343 -14.37187 -14.36091 -14.34976 -14.29087
 Alpha  occ. eigenvalues --  -10.32902 -10.31370 -10.28675 -10.27805 -10.24933
 Alpha  occ. eigenvalues --  -10.24629 -10.24190 -10.23304 -10.23182 -10.23057
 Alpha  occ. eigenvalues --  -10.22794 -10.22433 -10.21825 -10.21822 -10.21804
 Alpha  occ. eigenvalues --  -10.21793 -10.21563 -10.21520 -10.21327 -10.21302
 Alpha  occ. eigenvalues --  -10.21084 -10.20882 -10.20671 -10.20578 -10.19852
 Alpha  occ. eigenvalues --  -10.19601 -10.19534 -10.19404 -10.18949 -10.18832
 Alpha  occ. eigenvalues --  -10.18721 -10.18604 -10.17911  -1.09165  -1.06210
 Alpha  occ. eigenvalues --   -1.03831  -1.00111  -0.99594  -0.98404  -0.98047
 Alpha  occ. eigenvalues --   -0.97150  -0.94667  -0.93731  -0.83765  -0.82526
 Alpha  occ. eigenvalues --   -0.81529  -0.80856  -0.80615  -0.79663  -0.78738
 Alpha  occ. eigenvalues --   -0.77319  -0.76443  -0.75894  -0.74709  -0.72503
 Alpha  occ. eigenvalues --   -0.72130  -0.70819  -0.69228  -0.68995  -0.68540
 Alpha  occ. eigenvalues --   -0.66333  -0.65698  -0.64191  -0.61043  -0.60519
 Alpha  occ. eigenvalues --   -0.58932  -0.58375  -0.57881  -0.57560  -0.56587
 Alpha  occ. eigenvalues --   -0.56143  -0.55941  -0.54826  -0.53962  -0.53035
 Alpha  occ. eigenvalues --   -0.51933  -0.51718  -0.51334  -0.51012  -0.49888
 Alpha  occ. eigenvalues --   -0.49158  -0.48498  -0.48358  -0.47836  -0.47309
 Alpha  occ. eigenvalues --   -0.46876  -0.46487  -0.46302  -0.45894  -0.45395
 Alpha  occ. eigenvalues --   -0.44938  -0.44692  -0.44431  -0.43979  -0.43744
 Alpha  occ. eigenvalues --   -0.43371  -0.43306  -0.43042  -0.42792  -0.42228
 Alpha  occ. eigenvalues --   -0.41880  -0.41854  -0.41402  -0.41206  -0.40683
 Alpha  occ. eigenvalues --   -0.40535  -0.40377  -0.40288  -0.39994  -0.39956
 Alpha  occ. eigenvalues --   -0.39916  -0.39812  -0.39605  -0.39309  -0.38497
 Alpha  occ. eigenvalues --   -0.38124  -0.37800  -0.37527  -0.37101  -0.37053
 Alpha  occ. eigenvalues --   -0.36189  -0.36043  -0.35665  -0.35418  -0.35052
 Alpha  occ. eigenvalues --   -0.34170  -0.33091  -0.32505  -0.32331  -0.31600
 Alpha  occ. eigenvalues --   -0.31311  -0.30891  -0.29443  -0.29218  -0.27613
 Alpha  occ. eigenvalues --   -0.27477  -0.26809  -0.26622  -0.26215  -0.24856
 Alpha  occ. eigenvalues --   -0.24538  -0.24365  -0.23820  -0.22783  -0.18896
 Alpha virt. eigenvalues --   -0.11008  -0.07302  -0.05497  -0.00964  -0.00673
 Alpha virt. eigenvalues --    0.00523   0.00801   0.01323   0.02870   0.03265
 Alpha virt. eigenvalues --    0.03598   0.04236   0.04935   0.05259   0.05516

 Mulliken charges:
               1
     1  O   -0.193465
     2  O   -0.235667
     3  O   -0.231033
     4  O   -0.291379
     5  O   -0.179452
     6  O   -0.245100
     7  N   -0.075340
     8  N   -0.238804
     9  N   -0.083400
    10  N   -0.226210
    11  C    0.180567
    12  C    0.135166
    13  C   -0.071314
    14  C   -0.098708
    15  C   -0.078080
    16  C    0.077263
    17  C   -0.177315
    18  C   -0.003731
    19  C   -0.093135
    20  C   -0.099307
    21  C    0.106956
    22  C    0.149152
    23  C   -0.103220
    24  C    0.049660
    25  C    0.261214
    26  C   -0.055140
    27  C    0.008671
    28  C    0.033742
    29  C    0.032326
    30  C   -0.015013
    31  C    0.130808
    32  C   -0.020893
    33  C   -0.044623
    34  C    0.178909
    35  C    0.084803
    36  C   -0.058122
    37  C    0.123187
    38  C    0.027825
    39  C   -0.192554
    40  C    0.190858
    41  C   -0.053897
    42  C    0.031523
    43  C   -0.015647
    44  H   -0.007902
    45  H    0.005207
    46  H    0.008208
    47  H    0.065619
    48  H    0.138112
    49  H    0.027450
    50  H    0.024829
    51  H    0.002163
    52  H   -0.011301
    53  H    0.029369
    54  H    0.039232
    55  H   -0.115472
    56  H    0.010994
    57  H    0.049213
    58  H    0.084942
    59  H   -0.019027
    60  H    0.150019
    61  H    0.011409
    62  H    0.028672
    63  H    0.066610
    64  H    0.002017
    65  H    0.063213
    66  H    0.031058
    67  H    0.043646
    68  H    0.066137
    69  H   -0.073073
    70  H    0.025994
    71  H    0.013940
    72  H    0.178088
    73  H    0.012572
    74  H    0.043658
    75  H    0.049777
    76  H    0.064141
    77  H    0.198827
    78  H    0.014324
    79  H    0.055255
 Sum of Mulliken charges =  -0.00000

 Dipole moment (field-independent basis, Debye):
    X=             -0.7737    Y=              1.3968    Z=              1.5216  Tot=              2.2057
 Quadrupole moment (field-independent basis, Debye-Ang):
   XX=           -215.4061   YY=           -247.4114   ZZ=           -265.5175
   XY=             -4.9962   XZ=             38.2875   YZ=              1.2908

 Normal termination of Gaussian 16 at Mon Sep 23 19:24:00 2019.
