 Gaussian 16, Revision A.03,
 Gaussian 16:  ES64L-G16RevA.03 25-Dec-2016

 --------------------------
 # td=(NStates=1) B3LYP/SVP
 --------------------------

 --
 TD
 --
 Symbolic Z-matrix:
 Charge =  0 Multiplicity = 1

                         Standard orientation:
 ---------------------------------------------------------------------
 Center     Atomic      Atomic             Coordinates (Angstroms)
 Number     Number       Type             X           Y           Z
 ---------------------------------------------------------------------
      1          8           0        5.280588   -0.118951   -3.211435
      2          8           0       -3.019935   -2.883347    3.112799
      3          8           0       -3.414067   -0.738841    3.153844
      4          8           0       -1.684013    7.157854    1.520782
      5          8           0       -0.808250    7.181107   -0.549565
      6          8           0       -1.757611   -4.053787   -0.143290
      7          7           0        2.398182    0.943618    0.607380
      8          7           0        4.373537   -0.813468   -1.160583
      9          7           0       -1.821406    0.731229   -0.417615
     10          7           0       -2.606518   -1.927104   -0.545456
     11          6           0        4.790252   -1.269747    0.065109
     12          6           0        4.462768   -0.397856    1.207092
     13          6           0        2.974744   -0.023137    1.429419
     14          6           0        2.004208   -0.632895    2.192511
     15          6           0        0.786404   -0.034221    1.759424
     16          6           0        0.972100    0.919219    0.761538
     17          6           0        6.258814   -1.331504   -0.191422
     18          6           0       -0.470615   -0.208390    2.611001
     19          6           0        6.669094   -0.765980   -1.349919
     20          6           0        0.168529    1.926402    0.213423
     21          6           0       -1.057816    1.909066   -0.236155
     22          6           0        5.365380   -0.449777   -2.064445
     23          6           0       -1.865400    2.934153   -0.853194
     24          6           0        2.232838   -1.768534    3.103580
     25          6           0        7.297649   -1.920665    0.876278
     26          6           0       -3.117098    2.382224   -1.319612
     27          6           0       -1.080647   -1.622939    2.670174
     28          6           0       -3.082967    0.953480   -0.952206
     29          6           0       -1.403197    4.336850   -1.079225
     30          6           0        7.850958   -0.568570   -2.079363
     31          6           0       -1.737083    5.072102    0.316168
     32          6           0       -4.212148    2.981086   -1.923209
     33          6           0       -3.976291   -0.100092   -1.294308
     34          6           0       -2.671116   -1.665589    2.892898
     35          6           0       -3.759447   -1.516434   -1.044972
     36          6           0        9.057816   -0.675853   -1.600040
     37          6           0       -1.352387    6.552499    0.356737
     38          6           0       -4.691415   -2.624737   -1.351268
     39          6           0       -3.922383   -3.769982   -1.075484
     40          6           0       -2.713532   -3.246123   -0.490147
     41          6           0       -5.922058   -2.490713   -2.102481
     42          6           0       -4.196141   -5.195193   -1.110791
     43          6           0       -6.798433   -3.474111   -2.534238
     44          1           0        4.448679   -2.406264    0.314855
     45          1           0        4.979013    0.638761    1.030337
     46          1           0        4.882870   -0.908139    2.220341
     47          1           0        2.773051    1.618366   -0.101444
     48          1           0        3.344875   -0.851249   -1.485427
     49          1           0       -0.281593    0.085010    3.624801
     50          1           0       -1.283101    0.373787    2.315936
     51          1           0        0.684864    2.887069    0.089723
     52          1           0        3.389471   -2.083362    2.943110
     53          1           0        2.058733   -1.603814    4.428801
     54          1           0        1.507964   -2.634422    2.930545
     55          1           0        6.717151   -2.638055    1.505079
     56          1           0        7.823958   -1.204869    1.372047
     57          1           0        7.999781   -2.543184    0.376178
     58          1           0       -0.950671   -1.948733    1.647142
     59          1           0       -0.500399   -2.185729    3.373004
     60          1           0       -1.504795   -0.328209   -0.232124
     61          1           0       -1.873828    4.787343   -1.946039
     62          1           0       -0.149600    4.237829   -0.975442
     63          1           0        7.606598   -0.572681   -3.237956
     64          1           0       -1.326133    4.604678    1.298298
     65          1           0       -2.852246    5.053548    0.353501
     66          1           0       -4.044184    4.056985   -2.166206
     67          1           0       -5.187398    2.976944   -1.244749
     68          1           0       -4.616722    2.761904   -2.900075
     69          1           0       -4.904099    0.156643   -1.899761
     70          1           0        9.297473   -0.821777   -0.472673
     71          1           0        9.948470   -0.730635   -2.286839
     72          1           0       -3.967263   -2.557320    3.098120
     73          1           0       -6.085193   -1.433552   -2.201141
     74          1           0       -5.151631   -5.540311   -0.584927
     75          1           0       -4.076326   -5.611199   -2.139980
     76          1           0       -3.373715   -5.802993   -0.731261
     77          1           0       -1.442467    8.039018    1.583905
     78          1           0       -7.819685   -3.543208   -2.783995
     79          1           0       -6.420453   -4.504606   -2.384091
 ---------------------------------------------------------------------

 SCF Done:  E(RB3LYP) =  -1947.86258623     A.U. after   19 cycles

 Excitation energies and oscillator strengths:

 Excited State   1:      Singlet-A      2.0640 eV  600.69 nm  f=0.2955  <S**2>=0.000
     153 ->156        -0.28113
     154 ->156         0.26379
     155 ->156         0.58784
 This state for optimization and/or second-order correction.
 Total Energy, E(TD-HF/TD-DFT) =  -1947.78673445
 Copying the excited state density for this state as the 1-particle RhoCI density.

 The electronic state is 1-A.
 Alpha  occ. eigenvalues --  -19.18459 -19.18387 -19.13065 -19.12187 -19.10779
 Alpha  occ. eigenvalues --  -19.09102 -14.39091 -14.36838 -14.35841 -14.29447
 Alpha  occ. eigenvalues --  -10.33138 -10.31457 -10.28504 -10.25710 -10.25536
 Alpha  occ. eigenvalues --  -10.25201 -10.24435 -10.24418 -10.24159 -10.23643
 Alpha  occ. eigenvalues --  -10.23598 -10.23562 -10.23331 -10.23061 -10.22552
 Alpha  occ. eigenvalues --  -10.22098 -10.21995 -10.21903 -10.20963 -10.20805
 Alpha  occ. eigenvalues --  -10.20490 -10.20357 -10.20089 -10.19978 -10.19958
 Alpha  occ. eigenvalues --  -10.19830 -10.19787 -10.19700 -10.19546 -10.19440
 Alpha  occ. eigenvalues --  -10.18683 -10.18558 -10.17869  -1.12844  -1.10289
 Alpha  occ. eigenvalues --   -1.03963  -1.00524  -0.99934  -0.99015  -0.97963
 Alpha  occ. eigenvalues --   -0.96853  -0.96264  -0.92269  -0.83406  -0.82753
 Alpha  occ. eigenvalues --   -0.82229  -0.81615  -0.80564  -0.80011  -0.78256
 Alpha  occ. eigenvalues --   -0.77203  -0.76418  -0.75657  -0.74840  -0.73273
 Alpha  occ. eigenvalues --   -0.71885  -0.71244  -0.69970  -0.69101  -0.68667
 Alpha  occ. eigenvalues --   -0.66707  -0.66037  -0.64395  -0.62004  -0.61693
 Alpha  occ. eigenvalues --   -0.61344  -0.59747  -0.57785  -0.57413  -0.56797
 Alpha  occ. eigenvalues --   -0.56277  -0.55917  -0.54902  -0.54470  -0.53289
 Alpha  occ. eigenvalues --   -0.52703  -0.52083  -0.51172  -0.50585  -0.50440
 Alpha  occ. eigenvalues --   -0.50047  -0.49662  -0.48649  -0.48006  -0.47917
 Alpha  occ. eigenvalues --   -0.47613  -0.47301  -0.46573  -0.46402  -0.45891
 Alpha  occ. eigenvalues --   -0.45761  -0.45330  -0.44914  -0.44525  -0.44199
 Alpha  occ. eigenvalues --   -0.43974  -0.43779  -0.43602  -0.43390  -0.42617
 Alpha  occ. eigenvalues --   -0.42291  -0.42237  -0.41623  -0.41353  -0.41155
 Alpha  occ. eigenvalues --   -0.40939  -0.40578  -0.40407  -0.39955  -0.39885
 Alpha  occ. eigenvalues --   -0.39595  -0.39245  -0.39053  -0.38475  -0.38372
 Alpha  occ. eigenvalues --   -0.37964  -0.37795  -0.37164  -0.36976  -0.36894
 Alpha  occ. eigenvalues --   -0.36440  -0.35500  -0.34969  -0.34819  -0.34475
 Alpha  occ. eigenvalues --   -0.33615  -0.33315  -0.32899  -0.32827  -0.32476
 Alpha  occ. eigenvalues --   -0.31550  -0.31512  -0.28845  -0.28454  -0.27905
 Alpha  occ. eigenvalues --   -0.27738  -0.26973  -0.25976  -0.25125  -0.24967
 Alpha  occ. eigenvalues --   -0.24456  -0.24175  -0.23436  -0.22197  -0.19886
 Alpha virt. eigenvalues --   -0.11713  -0.07658  -0.05480  -0.01940  -0.00863
 Alpha virt. eigenvalues --   -0.00211   0.00741   0.01180   0.01981   0.02214
 Alpha virt. eigenvalues --    0.02718   0.03535   0.04162   0.05012   0.05116

 Mulliken charges:
               1
     1  O   -0.196459
     2  O   -0.115574
     3  O   -0.261041
     4  O   -0.157902
     5  O   -0.238582
     6  O   -0.287771
     7  N   -0.150948
     8  N   -0.199804
     9  N   -0.191216
    10  N   -0.190904
    11  C    0.089292
    12  C    0.113267
    13  C   -0.034223
    14  C   -0.046945
    15  C   -0.108208
    16  C    0.089285
    17  C   -0.226576
    18  C    0.140323
    19  C   -0.040717
    20  C   -0.133730
    21  C    0.195114
    22  C    0.134935
    23  C   -0.095328
    24  C   -0.056180
    25  C    0.119607
    26  C   -0.048941
    27  C   -0.040643
    28  C    0.138454
    29  C    0.070214
    30  C   -0.015869
    31  C   -0.059868
    32  C    0.020329
    33  C   -0.123702
    34  C    0.144229
    35  C    0.051802
    36  C   -0.065679
    37  C    0.142593
    38  C    0.005013
    39  C   -0.157052
    40  C    0.117911
    41  C    0.013075
    42  C    0.099265
    43  C   -0.019459
    44  H    0.037772
    45  H    0.005016
    46  H    0.037138
    47  H    0.137467
    48  H    0.151463
    49  H   -0.001708
    50  H   -0.025762
    51  H   -0.016950
    52  H    0.028438
    53  H    0.037963
    54  H    0.067770
    55  H    0.008108
    56  H    0.022916
    57  H    0.018542
    58  H    0.050235
    59  H    0.033256
    60  H    0.199624
    61  H    0.037016
    62  H    0.046152
    63  H    0.050921
    64  H    0.073244
    65  H    0.050102
    66  H   -0.004095
    67  H    0.048297
    68  H    0.024564
    69  H    0.001240
    70  H    0.031779
    71  H    0.033097
    72  H    0.157799
    73  H   -0.031216
    74  H    0.047103
    75  H    0.019685
    76  H    0.007511
    77  H    0.157885
    78  H    0.022356
    79  H    0.013882
 Sum of Mulliken charges =  -0.00000

 Dipole moment (field-independent basis, Debye):
    X=              0.3632    Y=              2.7840    Z=              2.4455  Tot=              3.7233
 Quadrupole moment (field-independent basis, Debye-Ang):
   XX=           -221.4125   YY=           -250.3047   ZZ=           -265.9587
   XY=            -12.1820   XZ=             30.8091   YZ=              6.5878

 Normal termination of Gaussian 16 at Tue Oct  1 02:18:31 2019.
