 Gaussian 16, Revision A.03,
 Gaussian 16:  ES64L-G16RevA.03 25-Dec-2016

 --------------------------
 # td=(NStates=1) B3LYP/SVP
 --------------------------

 --
 TD
 --
 Symbolic Z-matrix:
 Charge =  0 Multiplicity = 1

                         Standard orientation:
 ---------------------------------------------------------------------
 Center     Atomic      Atomic             Coordinates (Angstroms)
 Number     Number       Type             X           Y           Z
 ---------------------------------------------------------------------
      1          8           0        5.508595    0.041242   -3.181593
      2          8           0       -3.178779   -2.879499    3.215544
      3          8           0       -3.518484   -0.703520    3.039690
      4          8           0       -1.207491    7.071326    1.756099
      5          8           0       -0.441588    6.977638   -0.440988
      6          8           0       -2.029468   -3.999782    0.030177
      7          7           0        2.386161    0.624344    0.563921
      8          7           0        4.434287   -0.518053   -1.217678
      9          7           0       -1.850000    0.818364   -0.466437
     10          7           0       -2.660770   -1.808081   -0.517062
     11          6           0        4.815134   -1.321686   -0.034289
     12          6           0        4.443086   -0.617763    1.235597
     13          6           0        2.884536   -0.307068    1.387172
     14          6           0        1.907016   -0.758083    2.135672
     15          6           0        0.664915   -0.154490    1.750486
     16          6           0        1.020301    0.798994    0.746028
     17          6           0        6.319934   -1.458588   -0.197080
     18          6           0       -0.690384   -0.233258    2.530245
     19          6           0        6.783534   -0.829870   -1.357665
     20          6           0        0.290099    1.813958    0.177872
     21          6           0       -1.048183    1.869441   -0.416154
     22          6           0        5.543719   -0.490668   -2.089422
     23          6           0       -1.873594    2.958469   -0.973888
     24          6           0        1.985126   -1.857161    3.286305
     25          6           0        7.120814   -2.270730    0.783962
     26          6           0       -3.057222    2.423260   -1.314806
     27          6           0       -1.271239   -1.638497    2.629650
     28          6           0       -3.100160    1.031772   -0.986307
     29          6           0       -1.449185    4.386156   -0.861573
     30          6           0        8.131986   -0.767248   -1.994977
     31          6           0       -1.659983    5.090628    0.515714
     32          6           0       -4.093957    3.171041   -2.038035
     33          6           0       -4.007203   -0.006055   -1.297524
     34          6           0       -2.807590   -1.645788    2.859943
     35          6           0       -3.764280   -1.363020   -1.150409
     36          6           0        9.272910   -0.742773   -1.317706
     37          6           0       -1.021037    6.479324    0.506141
     38          6           0       -4.632273   -2.494342   -1.644664
     39          6           0       -4.030702   -3.697708   -1.210681
     40          6           0       -2.876949   -3.191635   -0.455838
     41          6           0       -5.964406   -2.174444   -2.146327
     42          6           0       -4.441195   -5.081326   -1.230320
     43          6           0       -6.801619   -3.093606   -2.610789
     44          1           0        4.314845   -2.229835   -0.034553
     45          1           0        5.013375    0.281832    1.508917
     46          1           0        4.715981   -1.192756    2.133499
     47          1           0        3.033223    0.883879   -0.311539
     48          1           0        3.413065   -0.432578   -1.476077
     49          1           0       -0.595017    0.050899    3.635672
     50          1           0       -1.418536    0.580260    2.026348
     51          1           0        0.621913    2.764243   -0.240514
     52          1           0        3.079491   -1.906615    3.402324
     53          1           0        1.369766   -1.347924    4.202196
     54          1           0        1.689668   -3.033040    3.125549
     55          1           0        6.299828   -2.919724    1.207880
     56          1           0        7.417558   -1.453765    1.576323
     57          1           0        7.966730   -2.578709    0.215932
     58          1           0       -1.166769   -2.168319    1.677186
     59          1           0       -0.877543   -2.412004    3.331548
     60          1           0       -1.720320   -0.125108   -0.157482
     61          1           0       -1.830553    4.964223   -1.797486
     62          1           0       -0.275377    4.585465   -0.954798
     63          1           0        7.990397   -0.790754   -3.040678
     64          1           0       -1.264621    4.492264    1.378027
     65          1           0       -2.644074    5.443197    0.832579
     66          1           0       -3.884322    4.127387   -2.178516
     67          1           0       -5.265990    3.224523   -1.567890
     68          1           0       -4.286422    2.738160   -3.127909
     69          1           0       -4.803075    0.295968   -1.748224
     70          1           0        9.406863   -0.776599   -0.285137
     71          1           0       10.223463   -0.738289   -1.957670
     72          1           0       -4.231580   -2.690983    3.408046
     73          1           0       -6.215344   -1.055470   -2.033083
     74          1           0       -5.525121   -5.295440   -0.896241
     75          1           0       -4.397796   -5.281333   -2.277593
     76          1           0       -3.930562   -5.928696   -0.753039
     77          1           0       -0.675991    8.041914    1.687814
     78          1           0       -7.865736   -2.776231   -2.932643
     79          1           0       -6.463162   -4.178742   -2.767419
 ---------------------------------------------------------------------

 SCF Done:  E(RB3LYP) =  -1947.85439400     A.U. after   19 cycles

 Excitation energies and oscillator strengths:

 Excited State   1:      Singlet-A      2.0041 eV  618.67 nm  f=0.3577  <S**2>=0.000
     153 ->156        -0.12174
     154 ->156         0.25936
     155 ->156         0.64715
     155 <-156        -0.13157
 This state for optimization and/or second-order correction.
 Total Energy, E(TD-HF/TD-DFT) =  -1947.78074618
 Copying the excited state density for this state as the 1-particle RhoCI density.

 The electronic state is 1-A.
 Alpha  occ. eigenvalues --  -19.19605 -19.16862 -19.14185 -19.11017 -19.10234
 Alpha  occ. eigenvalues --  -19.08772 -14.38586 -14.36445 -14.36043 -14.28695
 Alpha  occ. eigenvalues --  -10.33051 -10.29823 -10.29056 -10.25263 -10.25261
 Alpha  occ. eigenvalues --  -10.24449 -10.24273 -10.23685 -10.23364 -10.23131
 Alpha  occ. eigenvalues --  -10.22793 -10.22611 -10.22561 -10.22428 -10.22220
 Alpha  occ. eigenvalues --  -10.22075 -10.21878 -10.21190 -10.21058 -10.21052
 Alpha  occ. eigenvalues --  -10.21002 -10.20705 -10.20438 -10.20403 -10.20309
 Alpha  occ. eigenvalues --  -10.20255 -10.20235 -10.19974 -10.19929 -10.19078
 Alpha  occ. eigenvalues --  -10.18797 -10.18426 -10.17956  -1.08196  -1.08049
 Alpha  occ. eigenvalues --   -1.02896  -1.00325  -0.99981  -0.99533  -0.98541
 Alpha  occ. eigenvalues --   -0.98119  -0.94090  -0.90748  -0.82905  -0.82855
 Alpha  occ. eigenvalues --   -0.81948  -0.80323  -0.80154  -0.79963  -0.78312
 Alpha  occ. eigenvalues --   -0.77860  -0.76410  -0.75832  -0.75350  -0.72798
 Alpha  occ. eigenvalues --   -0.72472  -0.70625  -0.69404  -0.68751  -0.67800
 Alpha  occ. eigenvalues --   -0.66593  -0.65924  -0.64234  -0.62300  -0.61328
 Alpha  occ. eigenvalues --   -0.59195  -0.58187  -0.57744  -0.57185  -0.56661
 Alpha  occ. eigenvalues --   -0.55608  -0.54674  -0.54392  -0.54323  -0.53414
 Alpha  occ. eigenvalues --   -0.52563  -0.52048  -0.51475  -0.50018  -0.49901
 Alpha  occ. eigenvalues --   -0.49291  -0.48616  -0.48416  -0.48225  -0.47433
 Alpha  occ. eigenvalues --   -0.47077  -0.46886  -0.46659  -0.46330  -0.45760
 Alpha  occ. eigenvalues --   -0.45463  -0.45204  -0.45031  -0.43987  -0.43602
 Alpha  occ. eigenvalues --   -0.43435  -0.43333  -0.43172  -0.43078  -0.42525
 Alpha  occ. eigenvalues --   -0.42419  -0.41698  -0.41343  -0.40862  -0.40420
 Alpha  occ. eigenvalues --   -0.40204  -0.40058  -0.39835  -0.39473  -0.39374
 Alpha  occ. eigenvalues --   -0.39095  -0.39043  -0.38706  -0.38517  -0.38305
 Alpha  occ. eigenvalues --   -0.38238  -0.37933  -0.37740  -0.37581  -0.37444
 Alpha  occ. eigenvalues --   -0.36833  -0.35873  -0.35420  -0.34627  -0.34066
 Alpha  occ. eigenvalues --   -0.33542  -0.33054  -0.32954  -0.32426  -0.31995
 Alpha  occ. eigenvalues --   -0.31068  -0.30568  -0.29221  -0.28636  -0.27350
 Alpha  occ. eigenvalues --   -0.27172  -0.26570  -0.26067  -0.25939  -0.25091
 Alpha  occ. eigenvalues --   -0.24815  -0.24432  -0.23012  -0.21781  -0.18750
 Alpha virt. eigenvalues --   -0.11198  -0.06662  -0.06234  -0.00626  -0.00255
 Alpha virt. eigenvalues --    0.00033   0.00718   0.01543   0.02123   0.02583
 Alpha virt. eigenvalues --    0.03042   0.03857   0.04068   0.04460   0.04799

 Mulliken charges:
               1
     1  O   -0.220123
     2  O   -0.225158
     3  O   -0.228791
     4  O   -0.282811
     5  O   -0.223979
     6  O   -0.262930
     7  N   -0.108325
     8  N   -0.273267
     9  N   -0.005549
    10  N   -0.275342
    11  C    0.183755
    12  C    0.175128
    13  C   -0.106412
    14  C   -0.135079
    15  C   -0.047016
    16  C    0.132358
    17  C   -0.249964
    18  C    0.026046
    19  C   -0.052196
    20  C   -0.039644
    21  C   -0.075986
    22  C    0.157047
    23  C   -0.015431
    24  C    0.008123
    25  C    0.101474
    26  C   -0.081511
    27  C   -0.013139
    28  C    0.072073
    29  C   -0.013184
    30  C    0.035712
    31  C    0.012299
    32  C    0.060547
    33  C    0.007480
    34  C    0.127996
    35  C    0.087792
    36  C   -0.013794
    37  C    0.157237
    38  C    0.024685
    39  C   -0.116222
    40  C    0.139931
    41  C   -0.036831
    42  C    0.065492
    43  C   -0.056818
    44  H   -0.000949
    45  H    0.008051
    46  H   -0.021802
    47  H    0.156259
    48  H    0.150150
    49  H    0.027318
    50  H    0.051565
    51  H   -0.025414
    52  H   -0.003586
    53  H    0.052549
    54  H    0.068939
    55  H    0.042953
    56  H    0.057556
    57  H    0.041986
    58  H    0.048742
    59  H    0.038243
    60  H    0.124576
    61  H    0.043136
    62  H    0.044881
    63  H    0.005208
    64  H    0.055928
    65  H    0.037318
    66  H   -0.035690
    67  H    0.035839
    68  H    0.040759
    69  H   -0.135294
    70  H    0.006666
    71  H    0.042666
    72  H    0.208718
    73  H    0.023399
    74  H    0.032312
    75  H    0.023961
    76  H    0.026516
    77  H    0.237775
    78  H    0.035788
    79  H    0.037305
 Sum of Mulliken charges =  -0.00000

 Dipole moment (field-independent basis, Debye):
    X=              2.1116    Y=              1.6140    Z=              2.6254  Tot=              3.7359
 Quadrupole moment (field-independent basis, Debye-Ang):
   XX=           -214.7737   YY=           -244.4890   ZZ=           -263.5283
   XY=            -14.1936   XZ=             30.4812   YZ=              8.0242

 Normal termination of Gaussian 16 at Mon Sep 23 00:20:23 2019.
