 Gaussian 16, Revision A.03,
 Gaussian 16:  ES64L-G16RevA.03 25-Dec-2016

 --------------------------
 # td=(NStates=1) B3LYP/SVP
 --------------------------

 --
 TD
 --
 Symbolic Z-matrix:
 Charge =  0 Multiplicity = 1

                         Standard orientation:
 ---------------------------------------------------------------------
 Center     Atomic      Atomic             Coordinates (Angstroms)
 Number     Number       Type             X           Y           Z
 ---------------------------------------------------------------------
      1          8           0        5.485837    0.000850   -3.254720
      2          8           0       -2.984788   -2.953331    3.122474
      3          8           0       -3.266081   -0.690041    3.087472
      4          8           0       -1.809302    7.212654    1.416949
      5          8           0       -0.741722    7.035975   -0.392450
      6          8           0       -1.780942   -4.003039    0.242902
      7          7           0        2.317291    1.058971    0.668518
      8          7           0        4.423996   -0.606884   -1.194717
      9          7           0       -1.758135    0.743815   -0.484868
     10          7           0       -2.536854   -1.909458   -0.499398
     11          6           0        4.794195   -1.219655   -0.065088
     12          6           0        4.402686   -0.265432    1.242885
     13          6           0        2.876358   -0.002737    1.324676
     14          6           0        1.939207   -0.576452    2.174789
     15          6           0        0.684880   -0.008402    1.745467
     16          6           0        0.942274    0.958611    0.755696
     17          6           0        6.317363   -1.318283   -0.157320
     18          6           0       -0.614685   -0.224474    2.462024
     19          6           0        6.691801   -0.858753   -1.339393
     20          6           0        0.163340    1.939174    0.108632
     21          6           0       -1.130809    1.730874   -0.443746
     22          6           0        5.453909   -0.378632   -2.067398
     23          6           0       -1.970599    2.922202   -1.018183
     24          6           0        2.178864   -1.560397    3.183491
     25          6           0        7.091401   -1.968444    0.966572
     26          6           0       -3.125308    2.329757   -1.347588
     27          6           0       -1.163244   -1.660466    2.437882
     28          6           0       -3.033248    0.791853   -1.063301
     29          6           0       -1.494108    4.402068   -0.926367
     30          6           0        7.979169   -0.743132   -2.007131
     31          6           0       -1.877640    5.004819    0.397102
     32          6           0       -4.319517    2.945652   -1.978189
     33          6           0       -3.874362   -0.137015   -1.376095
     34          6           0       -2.600763   -1.624647    2.960477
     35          6           0       -3.661327   -1.498819   -1.043813
     36          6           0        9.137590   -0.848989   -1.381253
     37          6           0       -1.374825    6.454248    0.470163
     38          6           0       -4.527425   -2.697263   -1.480714
     39          6           0       -3.848494   -3.792526   -1.100266
     40          6           0       -2.607130   -3.336790   -0.443833
     41          6           0       -5.934479   -2.527813   -1.974187
     42          6           0       -4.135262   -5.225555   -1.088774
     43          6           0       -6.724488   -3.578604   -2.427785
     44          1           0        4.212321   -2.201223    0.145579
     45          1           0        4.803277    0.723477    1.197669
     46          1           0        4.757163   -0.702809    2.098250
     47          1           0        2.748976    1.503212   -0.189719
     48          1           0        3.321954   -0.435614   -1.477739
     49          1           0       -0.427649    0.148779    3.564398
     50          1           0       -1.253707    0.540630    2.117634
     51          1           0        0.582780    3.059512   -0.228472
     52          1           0        3.366075   -1.420286    3.502778
     53          1           0        1.596895   -1.401158    3.915345
     54          1           0        1.771077   -2.566824    2.700100
     55          1           0        6.423547   -2.676073    1.504283
     56          1           0        7.341710   -1.039899    1.618617
     57          1           0        8.174640   -2.286851    0.518866
     58          1           0       -0.972618   -2.273822    1.419190
     59          1           0       -0.600395   -2.292091    3.069462
     60          1           0       -1.289270   -0.221954   -0.575005
     61          1           0       -2.119102    4.846961   -1.803020
     62          1           0       -0.374298    4.591247   -1.031911
     63          1           0        7.983330   -0.440780   -2.972947
     64          1           0       -1.325849    4.551215    0.969673
     65          1           0       -2.948587    4.906967    0.545302
     66          1           0       -4.182910    3.989060   -2.225589
     67          1           0       -5.215209    2.972644   -1.400629
     68          1           0       -4.600319    2.300590   -2.873360
     69          1           0       -4.804511    0.071691   -1.879975
     70          1           0        9.210446   -1.046424   -0.340493
     71          1           0       10.146764   -0.705780   -1.969373
     72          1           0       -4.055513   -2.854330    2.989763
     73          1           0       -6.351145   -1.423117   -1.851419
     74          1           0       -5.033951   -5.390423   -0.422839
     75          1           0       -4.412839   -5.695653   -2.043032
     76          1           0       -3.173297   -5.796649   -0.754164
     77          1           0       -1.494271    8.182451    1.418816
     78          1           0       -7.561780   -3.299904   -2.925784
     79          1           0       -6.403776   -4.602291   -2.534599
 ---------------------------------------------------------------------

 SCF Done:  E(RB3LYP) =  -1947.78186727     A.U. after   17 cycles

 Excitation energies and oscillator strengths:

 Excited State   1:      Singlet-A      1.7979 eV  689.61 nm  f=0.3950  <S**2>=0.000
     155 ->156         0.71144
     155 <-156        -0.14095
 This state for optimization and/or second-order correction.
 Total Energy, E(TD-HF/TD-DFT) =  -1947.71579610
 Copying the excited state density for this state as the 1-particle RhoCI density.

 The electronic state is 1-A.
 Alpha  occ. eigenvalues --  -19.18551 -19.16165 -19.12438 -19.11586 -19.11310
 Alpha  occ. eigenvalues --  -19.09877 -14.37934 -14.37574 -14.37021 -14.29890
 Alpha  occ. eigenvalues --  -10.31966 -10.30030 -10.28600 -10.27408 -10.25374
 Alpha  occ. eigenvalues --  -10.24956 -10.23887 -10.23281 -10.22906 -10.22536
 Alpha  occ. eigenvalues --  -10.22400 -10.22240 -10.22150 -10.21492 -10.21441
 Alpha  occ. eigenvalues --  -10.21298 -10.21207 -10.21204 -10.20793 -10.20173
 Alpha  occ. eigenvalues --  -10.20117 -10.20098 -10.20053 -10.19723 -10.19597
 Alpha  occ. eigenvalues --  -10.19430 -10.19375 -10.19330 -10.18753 -10.18728
 Alpha  occ. eigenvalues --  -10.18450 -10.18170 -10.18095  -1.11432  -1.08452
 Alpha  occ. eigenvalues --   -1.03299  -1.01651  -1.00296  -0.99257  -0.99013
 Alpha  occ. eigenvalues --   -0.98373  -0.95916  -0.92596  -0.83471  -0.82765
 Alpha  occ. eigenvalues --   -0.82438  -0.81405  -0.80773  -0.79514  -0.78970
 Alpha  occ. eigenvalues --   -0.77082  -0.76059  -0.75478  -0.74834  -0.72337
 Alpha  occ. eigenvalues --   -0.71621  -0.71165  -0.70327  -0.69195  -0.67874
 Alpha  occ. eigenvalues --   -0.66899  -0.65917  -0.64416  -0.62445  -0.61595
 Alpha  occ. eigenvalues --   -0.61057  -0.59545  -0.57829  -0.57553  -0.56268
 Alpha  occ. eigenvalues --   -0.55849  -0.55560  -0.55031  -0.53952  -0.53562
 Alpha  occ. eigenvalues --   -0.52767  -0.52099  -0.51375  -0.51305  -0.50868
 Alpha  occ. eigenvalues --   -0.48976  -0.48523  -0.47808  -0.47593  -0.47407
 Alpha  occ. eigenvalues --   -0.47253  -0.47214  -0.46995  -0.46953  -0.45430
 Alpha  occ. eigenvalues --   -0.45158  -0.44892  -0.44588  -0.44382  -0.44107
 Alpha  occ. eigenvalues --   -0.43796  -0.43579  -0.43483  -0.42928  -0.42578
 Alpha  occ. eigenvalues --   -0.42501  -0.42047  -0.41543  -0.41058  -0.40857
 Alpha  occ. eigenvalues --   -0.40663  -0.40427  -0.40424  -0.40189  -0.39939
 Alpha  occ. eigenvalues --   -0.39652  -0.39311  -0.39203  -0.38746  -0.38468
 Alpha  occ. eigenvalues --   -0.38263  -0.38004  -0.37932  -0.37477  -0.37142
 Alpha  occ. eigenvalues --   -0.35924  -0.35717  -0.35524  -0.34965  -0.34591
 Alpha  occ. eigenvalues --   -0.33794  -0.33428  -0.32068  -0.31876  -0.31666
 Alpha  occ. eigenvalues --   -0.31589  -0.30802  -0.28670  -0.27834  -0.27695
 Alpha  occ. eigenvalues --   -0.27487  -0.26676  -0.26117  -0.25279  -0.25215
 Alpha  occ. eigenvalues --   -0.24780  -0.24157  -0.23886  -0.23298  -0.17873
 Alpha virt. eigenvalues --   -0.11184  -0.06009  -0.04797  -0.01675   0.00368
 Alpha virt. eigenvalues --    0.00841   0.01314   0.01556   0.02045   0.02965
 Alpha virt. eigenvalues --    0.03023   0.03410   0.04140   0.04444   0.04609

 Mulliken charges:
               1
     1  O   -0.253330
     2  O   -0.270090
     3  O   -0.159737
     4  O   -0.163959
     5  O   -0.254857
     6  O   -0.236231
     7  N   -0.083640
     8  N   -0.175503
     9  N    0.126673
    10  N   -0.265343
    11  C    0.008207
    12  C    0.237436
    13  C   -0.133495
    14  C   -0.156866
    15  C   -0.111505
    16  C    0.074692
    17  C   -0.170897
    18  C    0.100442
    19  C   -0.025694
    20  C   -0.149545
    21  C   -0.142808
    22  C    0.155634
    23  C   -0.094776
    24  C    0.164564
    25  C    0.043152
    26  C   -0.137801
    27  C   -0.032468
    28  C    0.185176
    29  C   -0.000703
    30  C    0.054835
    31  C    0.214600
    32  C    0.111813
    33  C   -0.128611
    34  C    0.148052
    35  C    0.020337
    36  C   -0.040882
    37  C    0.074955
    38  C    0.031336
    39  C   -0.170777
    40  C    0.167577
    41  C   -0.074003
    42  C    0.051128
    43  C    0.026647
    44  H    0.038203
    45  H   -0.017733
    46  H   -0.047232
    47  H    0.131787
    48  H    0.177661
    49  H    0.013850
    50  H   -0.014526
    51  H    0.025084
    52  H    0.033085
    53  H   -0.048616
    54  H    0.056661
    55  H    0.043344
    56  H    0.051938
    57  H    0.064974
    58  H    0.105052
    59  H   -0.008385
    60  H    0.176359
    61  H    0.033165
    62  H    0.043333
    63  H   -0.038178
    64  H   -0.072938
    65  H    0.040126
    66  H    0.003501
    67  H    0.009446
    68  H    0.031867
    69  H   -0.035213
    70  H   -0.005235
    71  H    0.042022
    72  H    0.206113
    73  H    0.037292
    74  H    0.036190
    75  H    0.026377
    76  H    0.051734
    77  H    0.219020
    78  H    0.004298
    79  H    0.021834
 Sum of Mulliken charges =  -0.00000

 Dipole moment (field-independent basis, Debye):
    X=             -1.9614    Y=              1.7046    Z=              1.8665  Tot=              3.1994
 Quadrupole moment (field-independent basis, Debye-Ang):
   XX=           -222.1241   YY=           -246.7068   ZZ=           -267.7889
   XY=             -8.0399   XZ=             37.1625   YZ=             13.2049

 Normal termination of Gaussian 16 at Thu Oct  3 14:00:53 2019.
