 Gaussian 16, Revision A.03,
 Gaussian 16:  ES64L-G16RevA.03 25-Dec-2016

 --------------------------
 # td=(NStates=1) B3LYP/SVP
 --------------------------

 --
 TD
 --
 Symbolic Z-matrix:
 Charge =  0 Multiplicity = 1

                         Standard orientation:
 ---------------------------------------------------------------------
 Center     Atomic      Atomic             Coordinates (Angstroms)
 Number     Number       Type             X           Y           Z
 ---------------------------------------------------------------------
      1          8           0       -3.221835   -1.431900   -2.817063
      2          8           0        3.252200    3.281002    2.878186
      3          8           0        3.540886    1.659217    4.531455
      4          8           0        7.751740   -1.418307   -0.776863
      5          8           0        6.795658   -3.046489   -1.965522
      6          8           0       -2.759595    1.623343    1.427722
      7          7           0       -0.107639   -2.487517    1.061476
      8          7           0       -2.647443   -1.228804   -0.543910
      9          7           0        1.118082   -0.013062   -0.759881
     10          7           0       -0.999022    1.451538   -0.180035
     11          6           0       -3.344331   -1.296664    0.667438
     12          6           0       -2.623593   -2.328323    1.658365
     13          6           0       -1.145764   -2.046938    1.857508
     14          6           0       -0.524187   -1.167794    2.827669
     15          6           0        0.812252   -1.097417    2.544870
     16          6           0        1.052160   -1.835297    1.391613
     17          6           0       -4.698262   -1.926972    0.310963
     18          6           0        1.920868   -0.214045    3.120309
     19          6           0       -4.756520   -2.102418   -1.079263
     20          6           0        2.130856   -1.800146    0.426728
     21          6           0        1.977293   -0.933118   -0.689481
     22          6           0       -3.430047   -1.558332   -1.633423
     23          6           0        3.014120   -0.640082   -1.737391
     24          6           0       -1.261833   -0.353319    3.865550
     25          6           0       -5.745510   -2.179809    1.280469
     26          6           0        2.563271    0.368294   -2.471978
     27          6           0        2.036319    1.307408    2.597019
     28          6           0        1.351536    0.891019   -1.828533
     29          6           0        4.211093   -1.543023   -2.042345
     30          6           0       -5.836711   -2.547921   -1.831031
     31          6           0        5.402384   -1.183503   -1.087689
     32          6           0        3.090391    1.008482   -3.694822
     33          6           0        0.468849    1.906039   -2.070950
     34          6           0        2.999517    2.107963    3.492700
     35          6           0       -0.662490    2.271061   -1.328190
     36          6           0       -6.916631   -3.300495   -1.410519
     37          6           0        6.718888   -1.988671   -1.487200
     38          6           0       -1.561387    3.415010   -1.378114
     39          6           0       -2.354177    3.326293   -0.281503
     40          6           0       -2.149597    2.128925    0.398728
     41          6           0       -1.455421    4.478215   -2.355620
     42          6           0       -3.378040    4.334068    0.268387
     43          6           0       -2.244870    5.434752   -2.644354
     44          1           0       -3.495664   -0.364890    1.238871
     45          1           0       -2.735160   -3.504891    1.485698
     46          1           0       -3.102258   -2.237869    2.496704
     47          1           0       -0.138363   -3.069042    0.264039
     48          1           0       -2.194545   -0.397019   -0.707600
     49          1           0        1.968129   -0.012705    4.265587
     50          1           0        2.866829   -0.674700    3.107983
     51          1           0        2.771716   -2.694601    0.351702
     52          1           0       -1.786469   -1.120374    4.432183
     53          1           0       -0.563444    0.046231    4.533933
     54          1           0       -1.882978    0.365551    3.372198
     55          1           0       -5.446907   -1.759871    2.395545
     56          1           0       -5.847755   -3.314588    1.130178
     57          1           0       -6.854348   -1.524814    1.018588
     58          1           0        2.219070    1.365132    1.500525
     59          1           0        0.895900    1.872003    2.974997
     60          1           0        0.198146    0.146885   -0.203419
     61          1           0        4.550159   -1.459113   -3.098330
     62          1           0        3.992703   -2.704278   -1.733958
     63          1           0       -5.764247   -2.501601   -2.874522
     64          1           0        4.986189   -1.303215   -0.092849
     65          1           0        5.722002   -0.132513   -1.288943
     66          1           0        3.906246    0.357681   -4.014395
     67          1           0        3.504798    2.087042   -3.616779
     68          1           0        2.257105    0.924751   -4.270098
     69          1           0        0.689581    2.566587   -2.896529
     70          1           0       -6.996834   -3.315509   -0.287163
     71          1           0       -7.660439   -3.693290   -2.121345
     72          1           0        3.887670    3.566086    3.708186
     73          1           0       -0.493072    4.354874   -3.087529
     74          1           0       -4.395549    4.235443   -0.280675
     75          1           0       -3.586731    4.194852    1.466862
     76          1           0       -2.810940    5.416904    0.243712
     77          1           0        8.338694   -2.260739   -0.833776
     78          1           0       -1.879867    6.073789   -3.486992
     79          1           0       -3.502192    5.482339   -2.294905
 ---------------------------------------------------------------------

 SCF Done:  E(RB3LYP) =  -1947.78188210     A.U. after   21 cycles

 Excitation energies and oscillator strengths:

 Excited State   1:      Singlet-A      0.5403 eV 2294.93 nm  f=0.0038  <S**2>=0.000
     155 ->156         0.70404
 This state for optimization and/or second-order correction.
 Total Energy, E(TD-HF/TD-DFT) =  -1947.76202820
 Copying the excited state density for this state as the 1-particle RhoCI density.

 The electronic state is 1-A.
 Alpha  occ. eigenvalues --  -19.20070 -19.19120 -19.15510 -19.13449 -19.12557
 Alpha  occ. eigenvalues --  -19.08920 -14.37544 -14.36533 -14.32373 -14.31329
 Alpha  occ. eigenvalues --  -10.33456 -10.32664 -10.28279 -10.26927 -10.26863
 Alpha  occ. eigenvalues --  -10.25889 -10.25343 -10.23221 -10.22641 -10.22575
 Alpha  occ. eigenvalues --  -10.22556 -10.22502 -10.22412 -10.22265 -10.22243
 Alpha  occ. eigenvalues --  -10.22225 -10.22114 -10.22012 -10.21930 -10.21893
 Alpha  occ. eigenvalues --  -10.21511 -10.21187 -10.20215 -10.20149 -10.19662
 Alpha  occ. eigenvalues --  -10.18987 -10.18567 -10.18347 -10.17841 -10.17755
 Alpha  occ. eigenvalues --  -10.16394 -10.16117 -10.15740  -1.12223  -1.09300
 Alpha  occ. eigenvalues --   -1.02784  -1.01648  -1.01560  -0.99645  -0.99489
 Alpha  occ. eigenvalues --   -0.96565  -0.93623  -0.91956  -0.84612  -0.83100
 Alpha  occ. eigenvalues --   -0.81677  -0.81127  -0.79202  -0.78997  -0.78241
 Alpha  occ. eigenvalues --   -0.76666  -0.75957  -0.74789  -0.73877  -0.73299
 Alpha  occ. eigenvalues --   -0.71616  -0.69978  -0.69135  -0.68477  -0.67038
 Alpha  occ. eigenvalues --   -0.66074  -0.65191  -0.64009  -0.61614  -0.59737
 Alpha  occ. eigenvalues --   -0.59681  -0.58481  -0.57404  -0.56594  -0.56193
 Alpha  occ. eigenvalues --   -0.55931  -0.54924  -0.54575  -0.52868  -0.52525
 Alpha  occ. eigenvalues --   -0.51858  -0.51465  -0.50840  -0.50347  -0.49972
 Alpha  occ. eigenvalues --   -0.49811  -0.49796  -0.49026  -0.48295  -0.48037
 Alpha  occ. eigenvalues --   -0.47613  -0.47399  -0.46979  -0.46312  -0.45952
 Alpha  occ. eigenvalues --   -0.45317  -0.44995  -0.44859  -0.44619  -0.44314
 Alpha  occ. eigenvalues --   -0.43947  -0.43318  -0.43096  -0.42655  -0.42295
 Alpha  occ. eigenvalues --   -0.41881  -0.41413  -0.41127  -0.41097  -0.40775
 Alpha  occ. eigenvalues --   -0.40460  -0.40079  -0.39834  -0.39436  -0.38951
 Alpha  occ. eigenvalues --   -0.38685  -0.38531  -0.38419  -0.38070  -0.37763
 Alpha  occ. eigenvalues --   -0.37549  -0.37454  -0.37396  -0.36997  -0.36580
 Alpha  occ. eigenvalues --   -0.35971  -0.35709  -0.35097  -0.34531  -0.34352
 Alpha  occ. eigenvalues --   -0.34223  -0.33469  -0.32812  -0.32378  -0.31717
 Alpha  occ. eigenvalues --   -0.31093  -0.30454  -0.30098  -0.29275  -0.29105
 Alpha  occ. eigenvalues --   -0.28242  -0.27573  -0.26140  -0.25624  -0.24504
 Alpha  occ. eigenvalues --   -0.23811  -0.23191  -0.22150  -0.21298  -0.18396
 Alpha virt. eigenvalues --   -0.14053  -0.08053  -0.04496  -0.02358  -0.01742
 Alpha virt. eigenvalues --   -0.00896   0.01849   0.02030   0.02149   0.02526
 Alpha virt. eigenvalues --    0.02875   0.03449   0.04320   0.04465   0.04592

 Mulliken charges:
               1
     1  O   -0.216567
     2  O   -0.207083
     3  O   -0.276732
     4  O   -0.221136
     5  O   -0.170717
     6  O   -0.269258
     7  N   -0.030270
     8  N   -0.119469
     9  N   -0.049265
    10  N   -0.404228
    11  C    0.067662
    12  C    0.254554
    13  C   -0.117339
    14  C   -0.191552
    15  C   -0.006981
    16  C   -0.064404
    17  C   -0.159513
    18  C    0.063544
    19  C    0.004300
    20  C   -0.052536
    21  C    0.030405
    22  C    0.111729
    23  C   -0.073023
    24  C    0.175184
    25  C   -0.059271
    26  C   -0.111203
    27  C   -0.091721
    28  C    0.106179
    29  C    0.010621
    30  C   -0.048275
    31  C   -0.039444
    32  C    0.145196
    33  C   -0.071021
    34  C    0.186154
    35  C    0.101080
    36  C   -0.046553
    37  C    0.154199
    38  C    0.117089
    39  C   -0.149100
    40  C    0.209261
    41  C   -0.050245
    42  C   -0.032044
    43  C   -0.084822
    44  H    0.055734
    45  H   -0.000534
    46  H   -0.094536
    47  H    0.094296
    48  H    0.109164
    49  H    0.019089
    50  H   -0.020224
    51  H    0.015398
    52  H   -0.002465
    53  H   -0.026143
    54  H    0.039370
    55  H    0.053419
    56  H    0.078995
    57  H    0.076440
    58  H    0.052202
    59  H    0.075986
    60  H    0.218448
    61  H    0.026328
    62  H    0.054101
    63  H   -0.029663
    64  H    0.059262
    65  H    0.032908
    66  H    0.001720
    67  H    0.056048
    68  H    0.015778
    69  H   -0.038270
    70  H    0.002628
    71  H    0.028868
    72  H    0.204660
    73  H    0.029877
    74  H    0.067632
    75  H    0.060580
    76  H    0.056783
    77  H    0.188036
    78  H    0.037912
    79  H    0.076792
 Sum of Mulliken charges =  -0.00000

 Dipole moment (field-independent basis, Debye):
    X=              2.9337    Y=              3.3573    Z=             -2.4588  Tot=              5.0916
 Quadrupole moment (field-independent basis, Debye-Ang):
   XX=           -242.2700   YY=           -236.4405   ZZ=           -267.0625
   XY=             -2.3933   XZ=            -18.8916   YZ=            -15.1881

 Normal termination of Gaussian 16 at Tue Jul 30 05:06:26 2019.
