 Gaussian 16, Revision A.03,
 Gaussian 16:  ES64L-G16RevA.03 25-Dec-2016

 --------------------------
 # td=(NStates=1) B3LYP/SVP
 --------------------------

 --
 TD
 --
 Symbolic Z-matrix:
 Charge =  0 Multiplicity = 1

                         Standard orientation:
 ---------------------------------------------------------------------
 Center     Atomic      Atomic             Coordinates (Angstroms)
 Number     Number       Type             X           Y           Z
 ---------------------------------------------------------------------
      1          8           0        5.331869    0.051259   -3.221988
      2          8           0       -2.854992   -2.893989    3.269293
      3          8           0       -3.305734   -0.719897    3.230472
      4          8           0       -1.910117    7.245084    1.356373
      5          8           0       -0.645967    6.899277   -0.424652
      6          8           0       -1.647903   -3.983036    0.112222
      7          7           0        2.384163    0.932626    0.546135
      8          7           0        4.357805   -0.639136   -1.279657
      9          7           0       -1.871173    0.625442   -0.484264
     10          7           0       -2.445501   -1.887965   -0.530759
     11          6           0        4.777343   -1.225788   -0.000754
     12          6           0        4.396916   -0.392379    1.205109
     13          6           0        2.946744   -0.000225    1.382538
     14          6           0        1.957066   -0.511552    2.242216
     15          6           0        0.658919    0.139061    1.788702
     16          6           0        0.909637    1.069887    0.689968
     17          6           0        6.322223   -1.266585   -0.184246
     18          6           0       -0.611207   -0.127646    2.515135
     19          6           0        6.630492   -0.852478   -1.370135
     20          6           0        0.100519    2.085222    0.084691
     21          6           0       -1.166000    1.919854   -0.453240
     22          6           0        5.373193   -0.481619   -2.143804
     23          6           0       -1.999455    2.856923   -0.971269
     24          6           0        2.181348   -1.565446    3.282667
     25          6           0        7.215035   -1.806290    0.877023
     26          6           0       -3.163176    2.262044   -1.385153
     27          6           0       -1.094783   -1.614397    2.583822
     28          6           0       -3.101970    0.871982   -1.094649
     29          6           0       -1.724290    4.385754   -0.889230
     30          6           0        8.029741   -0.685891   -2.085910
     31          6           0       -1.999359    5.163741    0.411133
     32          6           0       -4.281101    2.845936   -2.161528
     33          6           0       -3.885404   -0.227795   -1.392842
     34          6           0       -2.470648   -1.630942    3.132174
     35          6           0       -3.601675   -1.581348   -1.155127
     36          6           0        9.153040   -0.826303   -1.402327
     37          6           0       -1.467964    6.485764    0.443758
     38          6           0       -4.506879   -2.696884   -1.485916
     39          6           0       -3.823337   -3.840741   -0.998915
     40          6           0       -2.577730   -3.333045   -0.344015
     41          6           0       -5.724767   -2.693620   -2.226139
     42          6           0       -4.259230   -5.288220   -1.121429
     43          6           0       -6.586678   -3.690009   -2.361642
     44          1           0        4.465323   -2.202517    0.481944
     45          1           0        4.939939    0.575348    1.180785
     46          1           0        4.707230   -0.778290    2.296763
     47          1           0        3.099653    1.462514   -0.163985
     48          1           0        3.405963   -0.639366   -1.497380
     49          1           0       -0.520964    0.274875    3.643282
     50          1           0       -1.361644    0.507171    1.920130
     51          1           0        0.589188    3.157526    0.133829
     52          1           0        3.294561   -1.352736    3.755429
     53          1           0        1.703941   -1.279298    4.411222
     54          1           0        1.883065   -2.512469    3.041394
     55          1           0        6.841223   -2.253052    1.712663
     56          1           0        7.839802   -0.868566    0.997255
     57          1           0        7.960128   -2.442898    0.294316
     58          1           0       -0.925502   -1.920370    1.543657
     59          1           0       -0.618637   -2.312946    3.366106
     60          1           0       -1.564498   -0.324761   -0.571968
     61          1           0       -2.455476    4.754163   -1.727027
     62          1           0       -0.622941    4.439841   -1.049181
     63          1           0        7.830342   -0.431680   -3.301019
     64          1           0       -1.607143    4.642420    1.275915
     65          1           0       -3.127881    5.357976    0.499294
     66          1           0       -4.538678    4.008722   -1.979595
     67          1           0       -5.340317    2.518691   -1.707008
     68          1           0       -4.282933    2.689214   -3.270038
     69          1           0       -4.828019    0.029490   -1.954505
     70          1           0        9.409371   -0.899616   -0.591706
     71          1           0       10.078568   -0.531188   -1.763952
     72          1           0       -3.771859   -2.850812    3.785443
     73          1           0       -6.015749   -1.654787   -2.721555
     74          1           0       -5.073851   -5.697322   -0.497115
     75          1           0       -4.417792   -5.649053   -2.071941
     76          1           0       -3.555027   -5.982692   -0.634241
     77          1           0       -1.421579    8.077246    1.252295
     78          1           0       -7.509132   -3.474841   -2.706926
     79          1           0       -6.842376   -4.924066   -2.180527
 ---------------------------------------------------------------------

 SCF Done:  E(RB3LYP) =  -1947.73454032     A.U. after   17 cycles

 Excitation energies and oscillator strengths:

 Excited State   1:      Singlet-A      2.0180 eV  614.40 nm  f=0.3754  <S**2>=0.000
     154 ->156         0.13107
     155 ->156         0.68448
     155 <-156        -0.10984
 This state for optimization and/or second-order correction.
 Total Energy, E(TD-HF/TD-DFT) =  -1947.66038092
 Copying the excited state density for this state as the 1-particle RhoCI density.

 The electronic state is 1-A.
 Alpha  occ. eigenvalues --  -19.20643 -19.17013 -19.11489 -19.10487 -19.10360
 Alpha  occ. eigenvalues --  -19.10031 -14.38654 -14.36096 -14.34862 -14.29133
 Alpha  occ. eigenvalues --  -10.32073 -10.29965 -10.28469 -10.26609 -10.25524
 Alpha  occ. eigenvalues --  -10.24257 -10.24040 -10.23800 -10.23320 -10.23275
 Alpha  occ. eigenvalues --  -10.22974 -10.22416 -10.22363 -10.22026 -10.21825
 Alpha  occ. eigenvalues --  -10.21633 -10.21584 -10.21263 -10.21258 -10.20907
 Alpha  occ. eigenvalues --  -10.20753 -10.20689 -10.20623 -10.20572 -10.20557
 Alpha  occ. eigenvalues --  -10.20296 -10.19449 -10.19314 -10.19249 -10.18945
 Alpha  occ. eigenvalues --  -10.18708 -10.18194 -10.16900  -1.14050  -1.07748
 Alpha  occ. eigenvalues --   -1.03517  -1.00847  -0.98591  -0.96920  -0.96651
 Alpha  occ. eigenvalues --   -0.95546  -0.94506  -0.90870  -0.83123  -0.82922
 Alpha  occ. eigenvalues --   -0.81269  -0.80674  -0.79546  -0.79288  -0.79173
 Alpha  occ. eigenvalues --   -0.76981  -0.75841  -0.75484  -0.74754  -0.72857
 Alpha  occ. eigenvalues --   -0.72504  -0.70666  -0.70222  -0.69096  -0.67994
 Alpha  occ. eigenvalues --   -0.66180  -0.65503  -0.63824  -0.63192  -0.62114
 Alpha  occ. eigenvalues --   -0.60795  -0.59521  -0.58332  -0.56816  -0.55834
 Alpha  occ. eigenvalues --   -0.55233  -0.54960  -0.53876  -0.53404  -0.52798
 Alpha  occ. eigenvalues --   -0.52135  -0.51823  -0.51170  -0.50691  -0.50224
 Alpha  occ. eigenvalues --   -0.49603  -0.48910  -0.48773  -0.48082  -0.47453
 Alpha  occ. eigenvalues --   -0.46921  -0.46843  -0.46307  -0.45896  -0.45634
 Alpha  occ. eigenvalues --   -0.45229  -0.44905  -0.44713  -0.44274  -0.44048
 Alpha  occ. eigenvalues --   -0.43457  -0.43223  -0.43046  -0.42752  -0.42220
 Alpha  occ. eigenvalues --   -0.41761  -0.41709  -0.41200  -0.41015  -0.40971
 Alpha  occ. eigenvalues --   -0.40442  -0.40022  -0.39943  -0.39689  -0.39438
 Alpha  occ. eigenvalues --   -0.39226  -0.38538  -0.38374  -0.38080  -0.37810
 Alpha  occ. eigenvalues --   -0.37374  -0.36658  -0.36544  -0.36192  -0.35884
 Alpha  occ. eigenvalues --   -0.35711  -0.35093  -0.34618  -0.34271  -0.33500
 Alpha  occ. eigenvalues --   -0.32724  -0.32696  -0.31734  -0.31140  -0.31115
 Alpha  occ. eigenvalues --   -0.30741  -0.29911  -0.28807  -0.28405  -0.27418
 Alpha  occ. eigenvalues --   -0.27301  -0.26001  -0.25900  -0.25730  -0.24959
 Alpha  occ. eigenvalues --   -0.23909  -0.23634  -0.23069  -0.22202  -0.19204
 Alpha virt. eigenvalues --   -0.11157  -0.07203  -0.03966  -0.00961  -0.00289
 Alpha virt. eigenvalues --    0.00461   0.00735   0.01031   0.02561   0.02718
 Alpha virt. eigenvalues --    0.03284   0.03473   0.03689   0.04451   0.04844

 Mulliken charges:
               1
     1  O   -0.208670
     2  O   -0.201347
     3  O   -0.265580
     4  O   -0.088265
     5  O   -0.301561
     6  O   -0.196279
     7  N   -0.207134
     8  N   -0.140847
     9  N   -0.139550
    10  N   -0.318354
    11  C    0.133096
    12  C    0.116442
    13  C   -0.073362
    14  C   -0.102339
    15  C   -0.115487
    16  C    0.111095
    17  C   -0.202917
    18  C    0.025805
    19  C   -0.105313
    20  C   -0.153254
    21  C    0.145039
    22  C    0.134228
    23  C   -0.075101
    24  C    0.017747
    25  C    0.116901
    26  C   -0.062472
    27  C   -0.016056
    28  C    0.092823
    29  C    0.081257
    30  C    0.022121
    31  C    0.051546
    32  C   -0.026345
    33  C   -0.113030
    34  C    0.138831
    35  C    0.107724
    36  C    0.140909
    37  C    0.074739
    38  C    0.056872
    39  C   -0.167194
    40  C    0.174766
    41  C   -0.027197
    42  C    0.117185
    43  C   -0.054998
    44  H    0.019403
    45  H   -0.018024
    46  H    0.023390
    47  H    0.167261
    48  H    0.113671
    49  H    0.025386
    50  H    0.041087
    51  H    0.044004
    52  H    0.025813
    53  H    0.022356
    54  H    0.041097
    55  H   -0.000408
    56  H    0.050424
    57  H    0.048955
    58  H    0.093556
    59  H    0.035958
    60  H    0.139480
    61  H    0.034007
    62  H    0.029102
    63  H    0.075155
    64  H    0.041010
    65  H    0.045314
    66  H    0.026435
    67  H    0.038260
    68  H    0.057759
    69  H   -0.032871
    70  H   -0.164759
    71  H   -0.009199
    72  H    0.207500
    73  H    0.031872
    74  H    0.015293
    75  H    0.009897
    76  H    0.000159
    77  H    0.185478
    78  H   -0.015357
    79  H    0.055064
 Sum of Mulliken charges =  -0.00000

 Dipole moment (field-independent basis, Debye):
    X=             -0.7046    Y=              1.5874    Z=              3.3888  Tot=              3.8080
 Quadrupole moment (field-independent basis, Debye-Ang):
   XX=           -214.5101   YY=           -238.7958   ZZ=           -258.6756
   XY=             -5.9971   XZ=             35.2502   YZ=              5.9094

 Normal termination of Gaussian 16 at Wed Oct  2 02:54:18 2019.
