 Gaussian 16, Revision A.03,
 Gaussian 16:  ES64L-G16RevA.03 25-Dec-2016

 --------------------------
 # td=(NStates=1) B3LYP/SVP
 --------------------------

 --
 TD
 --
 Symbolic Z-matrix:
 Charge =  0 Multiplicity = 1

                         Standard orientation:
 ---------------------------------------------------------------------
 Center     Atomic      Atomic             Coordinates (Angstroms)
 Number     Number       Type             X           Y           Z
 ---------------------------------------------------------------------
      1          8           0       -3.244801   -0.971598   -2.981533
      2          8           0        3.232029    2.721293    3.241891
      3          8           0        3.578022    0.942463    4.557301
      4          8           0        7.780862   -1.478631   -0.901999
      5          8           0        6.636899   -2.846023   -2.227011
      6          8           0       -2.684217    1.554723    1.640842
      7          7           0       -0.195620   -2.439910    0.670905
      8          7           0       -2.742085   -1.108527   -0.689909
      9          7           0        1.186649    0.251884   -0.660433
     10          7           0       -1.020025    1.505286   -0.117610
     11          6           0       -3.349911   -1.370411    0.533284
     12          6           0       -2.602973   -2.489686    1.429997
     13          6           0       -1.253393   -2.269949    1.612156
     14          6           0       -0.512923   -1.562817    2.673491
     15          6           0        0.757218   -1.449827    2.348360
     16          6           0        0.957431   -1.953833    1.065708
     17          6           0       -4.738600   -1.973964    0.102757
     18          6           0        1.863918   -0.721090    3.214986
     19          6           0       -4.802048   -1.928821   -1.212345
     20          6           0        2.096890   -1.812341    0.108687
     21          6           0        2.168275   -0.699535   -0.733740
     22          6           0       -3.587475   -1.213255   -1.812333
     23          6           0        2.979233   -0.423558   -1.882265
     24          6           0       -1.165123   -1.067988    3.826766
     25          6           0       -5.713812   -2.652642    1.158176
     26          6           0        2.481051    0.713138   -2.391830
     27          6           0        1.998161    0.691307    2.732443
     28          6           0        1.310035    1.139159   -1.717522
     29          6           0        4.231204   -1.230707   -2.198868
     30          6           0       -5.764132   -2.278607   -2.241469
     31          6           0        5.467620   -0.955775   -1.344865
     32          6           0        3.056408    1.439187   -3.540663
     33          6           0        0.531485    2.304129   -1.790675
     34          6           0        2.956236    1.472722    3.587559
     35          6           0       -0.610554    2.477488   -0.955782
     36          6           0       -6.799267   -3.181225   -2.135702
     37          6           0        6.641572   -1.903522   -1.552548
     38          6           0       -1.468673    3.695242   -0.920089
     39          6           0       -2.398248    3.397601    0.040828
     40          6           0       -2.096197    2.092925    0.670895
     41          6           0       -1.316920    4.846770   -1.734588
     42          6           0       -3.508606    4.266299    0.698396
     43          6           0       -1.989237    5.994282   -1.605754
     44          1           0       -3.642721   -0.433729    1.218507
     45          1           0       -2.902795   -3.458929    0.999746
     46          1           0       -3.326526   -2.347331    2.347097
     47          1           0       -0.569083   -2.573781   -0.292259
     48          1           0       -2.182901   -0.040151   -0.678521
     49          1           0        1.403516   -0.673723    4.279570
     50          1           0        2.766860   -1.182442    3.152968
     51          1           0        2.853547   -2.583880   -0.089414
     52          1           0       -1.965665   -1.844833    4.083352
     53          1           0       -0.527473   -0.897770    4.772785
     54          1           0       -1.671788   -0.170061    3.793985
     55          1           0       -5.695682   -1.949587    1.953019
     56          1           0       -5.074539   -3.688990    1.267612
     57          1           0       -6.836341   -2.785251    0.545733
     58          1           0        2.182197    0.955268    1.613635
     59          1           0        0.980156    1.244064    2.776901
     60          1           0        0.182140    0.418784   -0.162530
     61          1           0        4.508536   -1.405600   -3.268237
     62          1           0        4.038415   -2.409746   -1.781846
     63          1           0       -5.586715   -2.017270   -3.351265
     64          1           0        5.188581   -1.045138   -0.285609
     65          1           0        5.837501    0.050904   -1.687641
     66          1           0        3.523607    0.594186   -3.996960
     67          1           0        3.768682    2.210499   -3.255620
     68          1           0        2.366219    1.842342   -4.236096
     69          1           0        0.790979    3.000980   -2.584110
     70          1           0       -7.053074   -3.672348   -1.198148
     71          1           0       -7.617679   -3.137520   -2.878831
     72          1           0        3.751618    3.258586    3.934990
     73          1           0       -0.630470    4.845741   -2.578464
     74          1           0       -4.337560    4.346765   -0.001468
     75          1           0       -3.805902    3.822672    1.722562
     76          1           0       -3.038845    5.217092    0.958487
     77          1           0        8.587677   -2.061836   -1.298724
     78          1           0       -1.740088    6.891548   -2.404200
     79          1           0       -2.429039    6.497389   -0.648311
 ---------------------------------------------------------------------

 SCF Done:  E(RB3LYP) =  -1947.84043423     A.U. after   19 cycles

 Excitation energies and oscillator strengths:

 Excited State   1:      Singlet-A      0.7202 eV 1721.64 nm  f=0.0017  <S**2>=0.000
     155 ->156         0.70361
 This state for optimization and/or second-order correction.
 Total Energy, E(TD-HF/TD-DFT) =  -1947.81396912
 Copying the excited state density for this state as the 1-particle RhoCI density.

 The electronic state is 1-A.
 Alpha  occ. eigenvalues --  -19.18770 -19.18228 -19.14323 -19.13487 -19.10424
 Alpha  occ. eigenvalues --  -19.09574 -14.36912 -14.36492 -14.33338 -14.32578
 Alpha  occ. eigenvalues --  -10.32865 -10.31173 -10.29714 -10.27251 -10.26133
 Alpha  occ. eigenvalues --  -10.25899 -10.25301 -10.23853 -10.23288 -10.22775
 Alpha  occ. eigenvalues --  -10.22716 -10.22661 -10.22620 -10.22553 -10.22358
 Alpha  occ. eigenvalues --  -10.22037 -10.21924 -10.21923 -10.21525 -10.20843
 Alpha  occ. eigenvalues --  -10.20528 -10.20519 -10.20442 -10.20149 -10.20049
 Alpha  occ. eigenvalues --  -10.19526 -10.19229 -10.18528 -10.18271 -10.18100
 Alpha  occ. eigenvalues --  -10.16611 -10.16063 -10.15812  -1.11127  -1.08207
 Alpha  occ. eigenvalues --   -1.02241  -1.01516  -0.99942  -0.99802  -0.97194
 Alpha  occ. eigenvalues --   -0.96536  -0.94099  -0.92048  -0.84301  -0.82832
 Alpha  occ. eigenvalues --   -0.82330  -0.80556  -0.79570  -0.79546  -0.78928
 Alpha  occ. eigenvalues --   -0.76888  -0.76357  -0.75537  -0.73968  -0.73246
 Alpha  occ. eigenvalues --   -0.71072  -0.70433  -0.68964  -0.68814  -0.67151
 Alpha  occ. eigenvalues --   -0.66614  -0.65939  -0.63518  -0.61496  -0.59982
 Alpha  occ. eigenvalues --   -0.59508  -0.59384  -0.58572  -0.57180  -0.56664
 Alpha  occ. eigenvalues --   -0.55856  -0.55696  -0.54393  -0.53343  -0.53017
 Alpha  occ. eigenvalues --   -0.51890  -0.51518  -0.50740  -0.50292  -0.49931
 Alpha  occ. eigenvalues --   -0.49105  -0.49017  -0.48778  -0.48326  -0.48097
 Alpha  occ. eigenvalues --   -0.47492  -0.46932  -0.46199  -0.46023  -0.45700
 Alpha  occ. eigenvalues --   -0.45374  -0.44740  -0.44424  -0.44243  -0.43939
 Alpha  occ. eigenvalues --   -0.43687  -0.43413  -0.43065  -0.42810  -0.42632
 Alpha  occ. eigenvalues --   -0.41894  -0.41815  -0.41710  -0.41386  -0.40903
 Alpha  occ. eigenvalues --   -0.40634  -0.40393  -0.39935  -0.39678  -0.39472
 Alpha  occ. eigenvalues --   -0.39024  -0.38782  -0.38162  -0.38139  -0.37814
 Alpha  occ. eigenvalues --   -0.37390  -0.37060  -0.36894  -0.36750  -0.35827
 Alpha  occ. eigenvalues --   -0.35692  -0.35416  -0.35103  -0.34983  -0.34794
 Alpha  occ. eigenvalues --   -0.33623  -0.33484  -0.32774  -0.32675  -0.31317
 Alpha  occ. eigenvalues --   -0.30332  -0.30135  -0.30069  -0.29678  -0.29444
 Alpha  occ. eigenvalues --   -0.27662  -0.26809  -0.26010  -0.25405  -0.24608
 Alpha  occ. eigenvalues --   -0.24276  -0.23534  -0.22542  -0.22471  -0.18350
 Alpha virt. eigenvalues --   -0.13253  -0.08479  -0.04268  -0.02743  -0.00210
 Alpha virt. eigenvalues --    0.00179   0.00792   0.01486   0.02210   0.02705
 Alpha virt. eigenvalues --    0.03048   0.03760   0.03972   0.04308   0.04836

 Mulliken charges:
               1
     1  O   -0.246898
     2  O   -0.191050
     3  O   -0.294907
     4  O   -0.265806
     5  O   -0.161264
     6  O   -0.225932
     7  N   -0.047079
     8  N   -0.262102
     9  N   -0.159116
    10  N   -0.384568
    11  C   -0.014743
    12  C    0.099336
    13  C   -0.022996
    14  C   -0.086152
    15  C   -0.110248
    16  C   -0.014554
    17  C   -0.220444
    18  C    0.239200
    19  C   -0.024240
    20  C   -0.080849
    21  C    0.065584
    22  C    0.162637
    23  C    0.030713
    24  C    0.073514
    25  C    0.013696
    26  C   -0.165502
    27  C   -0.090172
    28  C    0.102116
    29  C   -0.040566
    30  C   -0.044167
    31  C    0.022433
    32  C    0.151944
    33  C   -0.083534
    34  C    0.150028
    35  C    0.123858
    36  C   -0.058479
    37  C    0.114498
    38  C    0.102183
    39  C   -0.219206
    40  C    0.214319
    41  C   -0.005602
    42  C    0.082105
    43  C   -0.109668
    44  H    0.075247
    45  H   -0.014711
    46  H    0.013304
    47  H    0.131368
    48  H    0.212715
    49  H    0.020724
    50  H   -0.026928
    51  H    0.005823
    52  H    0.008143
    53  H   -0.001216
    54  H    0.001086
    55  H    0.038919
    56  H    0.077671
    57  H    0.072006
    58  H    0.048437
    59  H    0.044584
    60  H    0.238281
    61  H    0.042190
    62  H    0.039215
    63  H    0.038263
    64  H    0.050625
    65  H    0.044858
    66  H    0.004888
    67  H    0.032536
    68  H    0.012508
    69  H   -0.022310
    70  H    0.004173
    71  H    0.026341
    72  H    0.215504
    73  H    0.002190
    74  H    0.042862
    75  H    0.046139
    76  H    0.026951
    77  H    0.226514
    78  H    0.042953
    79  H    0.059826
 Sum of Mulliken charges =  -0.00000

 Dipole moment (field-independent basis, Debye):
    X=              3.1636    Y=              4.9025    Z=             -1.9429  Tot=              6.1497
 Quadrupole moment (field-independent basis, Debye-Ang):
   XX=           -235.4042   YY=           -231.6984   ZZ=           -272.8641
   XY=              3.6707   XZ=            -28.2055   YZ=             -6.2604

 Normal termination of Gaussian 16 at Sun Jul 28 01:20:52 2019.
