 Gaussian 16, Revision A.03,
 Gaussian 16:  ES64L-G16RevA.03 25-Dec-2016

 --------------------------
 # td=(NStates=1) B3LYP/SVP
 --------------------------

 --
 TD
 --
 Symbolic Z-matrix:
 Charge =  0 Multiplicity = 1

                         Standard orientation:
 ---------------------------------------------------------------------
 Center     Atomic      Atomic             Coordinates (Angstroms)
 Number     Number       Type             X           Y           Z
 ---------------------------------------------------------------------
      1          8           0       -3.202278   -1.144766   -2.934785
      2          8           0        2.986076    2.863864    3.471381
      3          8           0        3.542939    1.100141    4.650711
      4          8           0        7.726849   -1.616911   -0.754048
      5          8           0        6.607252   -2.777622   -2.346767
      6          8           0       -2.736152    1.496392    1.524208
      7          7           0       -0.209004   -2.555055    0.703163
      8          7           0       -2.605581   -1.200867   -0.676937
      9          7           0        1.173805    0.138719   -0.674084
     10          7           0       -0.941716    1.454480   -0.070209
     11          6           0       -3.286113   -1.499685    0.575059
     12          6           0       -2.650424   -2.585484    1.437424
     13          6           0       -1.203844   -2.219998    1.655712
     14          6           0       -0.548128   -1.475459    2.596780
     15          6           0        0.826696   -1.297165    2.332123
     16          6           0        0.962889   -2.033715    1.065575
     17          6           0       -4.680954   -1.838428    0.168931
     18          6           0        1.809878   -0.574122    3.056047
     19          6           0       -4.727566   -1.845495   -1.192322
     20          6           0        2.078690   -1.880217    0.108336
     21          6           0        2.070433   -0.902967   -0.835664
     22          6           0       -3.436421   -1.390174   -1.768250
     23          6           0        3.013633   -0.464275   -1.747637
     24          6           0       -1.279844   -0.907142    3.853880
     25          6           0       -5.745009   -2.278870    1.118500
     26          6           0        2.487978    0.757060   -2.372390
     27          6           0        1.847680    0.933107    2.836921
     28          6           0        1.356036    0.986637   -1.666303
     29          6           0        4.232212   -1.230453   -2.176170
     30          6           0       -5.852830   -2.228570   -2.149341
     31          6           0        5.580988   -0.810119   -1.411392
     32          6           0        3.176969    1.573779   -3.394540
     33          6           0        0.548026    2.116948   -1.806475
     34          6           0        2.949968    1.649132    3.746642
     35          6           0       -0.539010    2.361210   -1.040981
     36          6           0       -6.921440   -2.984025   -1.867501
     37          6           0        6.679380   -1.879664   -1.489055
     38          6           0       -1.427215    3.475036   -1.057991
     39          6           0       -2.359170    3.361965   -0.021071
     40          6           0       -2.187112    1.992061    0.459626
     41          6           0       -1.227697    4.657804   -1.850831
     42          6           0       -3.404098    4.268216    0.540590
     43          6           0       -2.177768    5.699426   -2.065169
     44          1           0       -3.395825   -0.536651    1.154087
     45          1           0       -2.668300   -3.593335    0.846079
     46          1           0       -3.271818   -2.842094    2.264198
     47          1           0       -0.444843   -3.064744   -0.262428
     48          1           0       -1.983876   -0.461919   -0.717503
     49          1           0        1.681608   -0.752083    4.084394
     50          1           0        2.699513   -0.905751    2.831072
     51          1           0        2.744548   -2.899446    0.248861
     52          1           0       -2.223904   -1.298057    4.244251
     53          1           0       -0.550978   -0.497251    4.607485
     54          1           0       -1.574112    0.259693    3.453989
     55          1           0       -5.696717   -1.637468    2.009902
     56          1           0       -5.540004   -3.408233    1.343140
     57          1           0       -6.647104   -1.961070    0.743228
     58          1           0        2.234103    1.019895    1.805217
     59          1           0        0.894906    1.372214    2.759198
     60          1           0        0.251056    0.249979   -0.142305
     61          1           0        4.360636   -0.757749   -3.208975
     62          1           0        4.322925   -2.305257   -2.228540
     63          1           0       -5.785613   -1.797389   -3.025782
     64          1           0        5.218478   -0.663136   -0.202073
     65          1           0        6.200694    0.143484   -1.571667
     66          1           0        3.874679    1.019113   -3.941475
     67          1           0        3.857541    2.381885   -3.040972
     68          1           0        2.435059    1.743126   -4.210611
     69          1           0        0.944050    2.964110   -2.441426
     70          1           0       -7.005310   -3.441773   -0.924070
     71          1           0       -7.747346   -3.207393   -2.556933
     72          1           0        3.525536    3.204812    4.157761
     73          1           0       -0.214824    4.609075   -2.280227
     74          1           0       -4.282652    4.364393   -0.195389
     75          1           0       -3.475033    3.968663    1.635264
     76          1           0       -2.916714    5.415448    0.468899
     77          1           0        8.283896   -2.297402   -0.984680
     78          1           0       -1.901369    6.592961   -2.810117
     79          1           0       -3.323790    5.751505   -1.605363
 ---------------------------------------------------------------------

 SCF Done:  E(RB3LYP) =  -1947.81865326     A.U. after   20 cycles

 Excitation energies and oscillator strengths:

 Excited State   1:      Singlet-A      0.8269 eV 1499.41 nm  f=0.0006  <S**2>=0.000
     155 ->156         0.70338
 This state for optimization and/or second-order correction.
 Total Energy, E(TD-HF/TD-DFT) =  -1947.78826565
 Copying the excited state density for this state as the 1-particle RhoCI density.

 The electronic state is 1-A.
 Alpha  occ. eigenvalues --  -19.21194 -19.20001 -19.13987 -19.11867 -19.11286
 Alpha  occ. eigenvalues --  -19.08031 -14.37674 -14.36355 -14.31903 -14.30258
 Alpha  occ. eigenvalues --  -10.33997 -10.31634 -10.27594 -10.26003 -10.25153
 Alpha  occ. eigenvalues --  -10.24854 -10.24608 -10.24432 -10.23466 -10.23385
 Alpha  occ. eigenvalues --  -10.23323 -10.22654 -10.22402 -10.21924 -10.21538
 Alpha  occ. eigenvalues --  -10.21506 -10.21355 -10.21211 -10.20728 -10.20640
 Alpha  occ. eigenvalues --  -10.20196 -10.20169 -10.19748 -10.19571 -10.19274
 Alpha  occ. eigenvalues --  -10.18581 -10.18488 -10.17837 -10.17602 -10.17357
 Alpha  occ. eigenvalues --  -10.16940 -10.16910 -10.16030  -1.15212  -1.14537
 Alpha  occ. eigenvalues --   -1.01714  -1.01583  -1.01009  -1.00470  -0.98601
 Alpha  occ. eigenvalues --   -0.96364  -0.92068  -0.91725  -0.83683  -0.83404
 Alpha  occ. eigenvalues --   -0.80787  -0.80421  -0.80185  -0.78598  -0.78203
 Alpha  occ. eigenvalues --   -0.76877  -0.75478  -0.74776  -0.73906  -0.73794
 Alpha  occ. eigenvalues --   -0.71005  -0.70539  -0.70209  -0.69630  -0.68117
 Alpha  occ. eigenvalues --   -0.66379  -0.65655  -0.63108  -0.62421  -0.61749
 Alpha  occ. eigenvalues --   -0.60523  -0.59084  -0.58449  -0.58027  -0.56547
 Alpha  occ. eigenvalues --   -0.56227  -0.55531  -0.54870  -0.53130  -0.52301
 Alpha  occ. eigenvalues --   -0.51861  -0.51581  -0.51220  -0.50762  -0.50690
 Alpha  occ. eigenvalues --   -0.49861  -0.49347  -0.49039  -0.48827  -0.48376
 Alpha  occ. eigenvalues --   -0.47872  -0.47601  -0.46717  -0.46343  -0.45929
 Alpha  occ. eigenvalues --   -0.45661  -0.45027  -0.44695  -0.44352  -0.43896
 Alpha  occ. eigenvalues --   -0.43362  -0.43327  -0.43063  -0.42717  -0.41823
 Alpha  occ. eigenvalues --   -0.41684  -0.41524  -0.41270  -0.41176  -0.40952
 Alpha  occ. eigenvalues --   -0.40792  -0.40217  -0.39855  -0.39579  -0.39478
 Alpha  occ. eigenvalues --   -0.39114  -0.38745  -0.38501  -0.38026  -0.37962
 Alpha  occ. eigenvalues --   -0.37584  -0.37263  -0.37037  -0.36506  -0.36380
 Alpha  occ. eigenvalues --   -0.36070  -0.35099  -0.34831  -0.34246  -0.34029
 Alpha  occ. eigenvalues --   -0.33800  -0.33085  -0.32845  -0.32618  -0.31961
 Alpha  occ. eigenvalues --   -0.31292  -0.29475  -0.29158  -0.28727  -0.28501
 Alpha  occ. eigenvalues --   -0.27760  -0.26645  -0.24976  -0.24511  -0.23511
 Alpha  occ. eigenvalues --   -0.23137  -0.22498  -0.22180  -0.21525  -0.19004
 Alpha virt. eigenvalues --   -0.13208  -0.08581  -0.03186  -0.02078  -0.02001
 Alpha virt. eigenvalues --    0.01598   0.01621   0.02234   0.02907   0.03833
 Alpha virt. eigenvalues --    0.03922   0.04273   0.04384   0.05055   0.05132

 Mulliken charges:
               1
     1  O   -0.231520
     2  O   -0.036202
     3  O   -0.246137
     4  O   -0.079049
     5  O   -0.269184
     6  O   -0.283854
     7  N   -0.100995
     8  N   -0.186315
     9  N   -0.078013
    10  N   -0.388154
    11  C    0.070960
    12  C    0.200450
    13  C   -0.068637
    14  C   -0.097420
    15  C   -0.111910
    16  C   -0.097736
    17  C   -0.228225
    18  C    0.251719
    19  C   -0.079063
    20  C   -0.142813
    21  C    0.203833
    22  C    0.132128
    23  C   -0.080298
    24  C    0.027865
    25  C    0.139539
    26  C   -0.158359
    27  C   -0.034030
    28  C    0.124909
    29  C    0.132983
    30  C    0.066102
    31  C   -0.131221
    32  C    0.157603
    33  C   -0.171458
    34  C    0.088683
    35  C    0.152537
    36  C   -0.012577
    37  C    0.134585
    38  C    0.040439
    39  C   -0.166994
    40  C    0.213021
    41  C   -0.013628
    42  C    0.015411
    43  C   -0.106548
    44  H    0.063614
    45  H   -0.018923
    46  H   -0.016806
    47  H    0.162751
    48  H    0.106576
    49  H   -0.012127
    50  H   -0.078622
    51  H    0.071192
    52  H    0.020086
    53  H   -0.000247
    54  H    0.043003
    55  H    0.006536
    56  H    0.063243
    57  H    0.004646
    58  H    0.008605
    59  H    0.028514
    60  H    0.217609
    61  H    0.024560
    62  H    0.040978
    63  H   -0.060406
    64  H    0.062249
    65  H    0.061602
    66  H   -0.029201
    67  H    0.048433
    68  H    0.036437
    69  H   -0.001786
    70  H   -0.008923
    71  H    0.020869
    72  H    0.146538
    73  H   -0.005072
    74  H    0.067245
    75  H    0.062738
    76  H    0.039658
    77  H    0.145220
    78  H    0.056509
    79  H    0.070277
 Sum of Mulliken charges =  -0.00000

 Dipole moment (field-independent basis, Debye):
    X=              4.7526    Y=              2.8334    Z=             -0.8480  Tot=              5.5977
 Quadrupole moment (field-independent basis, Debye-Ang):
   XX=           -225.8114   YY=           -232.1197   ZZ=           -274.1072
   XY=              7.0914   XZ=            -20.0228   YZ=            -10.2958

 Normal termination of Gaussian 16 at Mon Jul 29 22:41:38 2019.
