 Gaussian 16, Revision A.03,
 Gaussian 16:  ES64L-G16RevA.03 25-Dec-2016

 --------------------------
 # td=(NStates=1) B3LYP/SVP
 --------------------------

 --
 TD
 --
 Symbolic Z-matrix:
 Charge =  0 Multiplicity = 1

                         Standard orientation:
 ---------------------------------------------------------------------
 Center     Atomic      Atomic             Coordinates (Angstroms)
 Number     Number       Type             X           Y           Z
 ---------------------------------------------------------------------
      1          8           0       -3.313058   -1.017803   -2.892678
      2          8           0        3.032925    2.787601    3.421261
      3          8           0        3.792582    0.912138    4.382539
      4          8           0        7.758544   -1.420901   -0.975882
      5          8           0        6.470726   -3.012443   -2.050920
      6          8           0       -2.574348    1.480129    1.489359
      7          7           0       -0.306407   -2.529144    0.584102
      8          7           0       -2.753966   -1.201715   -0.773048
      9          7           0        1.148174    0.156839   -0.693658
     10          7           0       -0.918608    1.454721   -0.084294
     11          6           0       -3.449941   -1.299833    0.539199
     12          6           0       -2.698242   -2.375014    1.321009
     13          6           0       -1.225437   -2.249833    1.563692
     14          6           0       -0.607977   -1.493219    2.640010
     15          6           0        0.740022   -1.406458    2.335369
     16          6           0        0.975973   -1.987733    1.063452
     17          6           0       -4.894266   -1.819923    0.134326
     18          6           0        1.799686   -0.674262    3.150420
     19          6           0       -4.922122   -1.746959   -1.226986
     20          6           0        2.137995   -1.903973    0.101818
     21          6           0        2.090654   -0.898923   -0.804463
     22          6           0       -3.608984   -1.264380   -1.766599
     23          6           0        2.954901   -0.531194   -1.933490
     24          6           0       -1.283968   -1.022146    3.898656
     25          6           0       -5.817960   -2.246493    1.226900
     26          6           0        2.616014    0.692105   -2.319618
     27          6           0        1.849010    0.790049    2.984256
     28          6           0        1.456003    1.012716   -1.685998
     29          6           0        4.154203   -1.376368   -2.218106
     30          6           0       -6.024425   -1.998119   -2.185624
     31          6           0        5.437905   -0.984307   -1.313461
     32          6           0        3.343134    1.378244   -3.448043
     33          6           0        0.532103    2.119674   -1.815943
     34          6           0        2.964531    1.460911    3.616168
     35          6           0       -0.536603    2.392632   -1.059548
     36          6           0       -6.985485   -3.011340   -1.910126
     37          6           0        6.597213   -1.857830   -1.506445
     38          6           0       -1.365213    3.640590   -0.891062
     39          6           0       -2.274134    3.469890    0.011289
     40          6           0       -1.875069    2.065239    0.627514
     41          6           0       -1.136310    4.810306   -1.787223
     42          6           0       -3.326241    4.290440    0.569898
     43          6           0       -1.729542    6.045018   -1.788138
     44          1           0       -3.627563   -0.366356    1.103494
     45          1           0       -2.931236   -3.358544    0.806932
     46          1           0       -2.947481   -2.511844    2.302495
     47          1           0       -0.458087   -2.960061   -0.397777
     48          1           0       -2.099421   -0.321598   -0.643738
     49          1           0        1.956457   -0.984808    4.275669
     50          1           0        2.766656   -0.945066    2.908256
     51          1           0        2.838589   -2.875195   -0.081458
     52          1           0       -2.096188   -1.565297    4.265092
     53          1           0       -0.880792   -0.869183    4.923174
     54          1           0       -1.602432   -0.085388    3.858541
     55          1           0       -5.872333   -1.450469    2.141096
     56          1           0       -5.528231   -3.294695    1.454725
     57          1           0       -6.889401   -2.208020    0.717247
     58          1           0        1.882073    1.032179    1.909815
     59          1           0        0.941910    1.370518    3.227574
     60          1           0        0.326618    0.492760   -0.191313
     61          1           0        4.395588   -1.093323   -3.209590
     62          1           0        4.307451   -2.409093   -2.135627
     63          1           0       -6.054104   -1.873535   -3.277748
     64          1           0        5.041090   -0.986427   -0.239577
     65          1           0        5.548801    0.058652   -1.283250
     66          1           0        3.977841    0.598890   -3.944902
     67          1           0        3.821720    2.151916   -3.022361
     68          1           0        2.534775    1.618073   -4.367311
     69          1           0        0.755541    2.609496   -2.670341
     70          1           0       -7.131994   -3.611076   -1.209236
     71          1           0       -7.581129   -3.379922   -2.831554
     72          1           0        3.982993    2.979543    3.914705
     73          1           0       -0.357893    4.627145   -2.480322
     74          1           0       -3.733132    4.792405   -0.340911
     75          1           0       -4.028968    3.719879    1.186784
     76          1           0       -2.744140    5.033934    1.192484
     77          1           0        8.506832   -2.087153   -1.258369
     78          1           0       -1.296148    6.854473   -2.457889
     79          1           0       -2.572154    6.185467   -1.104575
 ---------------------------------------------------------------------

 SCF Done:  E(RB3LYP) =  -1947.79203877     A.U. after   26 cycles

 Excitation energies and oscillator strengths:

 Excited State   1:      Singlet-A      0.9760 eV 1270.30 nm  f=0.0007  <S**2>=0.000
     155 ->156         0.70471
 This state for optimization and/or second-order correction.
 Total Energy, E(TD-HF/TD-DFT) =  -1947.75617052
 Copying the excited state density for this state as the 1-particle RhoCI density.

 The electronic state is 1-A.
 Alpha  occ. eigenvalues --  -19.21405 -19.18810 -19.14236 -19.11827 -19.10289
 Alpha  occ. eigenvalues --  -19.07142 -14.37529 -14.36662 -14.32068 -14.30778
 Alpha  occ. eigenvalues --  -10.34827 -10.31456 -10.27189 -10.26384 -10.25915
 Alpha  occ. eigenvalues --  -10.25205 -10.24819 -10.24397 -10.23633 -10.23112
 Alpha  occ. eigenvalues --  -10.22793 -10.22423 -10.21886 -10.21630 -10.21255
 Alpha  occ. eigenvalues --  -10.21221 -10.20880 -10.20584 -10.20528 -10.20363
 Alpha  occ. eigenvalues --  -10.20262 -10.20067 -10.20042 -10.19880 -10.19652
 Alpha  occ. eigenvalues --  -10.19606 -10.18753 -10.18531 -10.17999 -10.17978
 Alpha  occ. eigenvalues --  -10.17977 -10.17356 -10.15903  -1.10098  -1.08552
 Alpha  occ. eigenvalues --   -1.01809  -1.01259  -1.00384  -0.99593  -0.97729
 Alpha  occ. eigenvalues --   -0.94233  -0.92798  -0.91436  -0.85951  -0.83001
 Alpha  occ. eigenvalues --   -0.82094  -0.81185  -0.80150  -0.79564  -0.78099
 Alpha  occ. eigenvalues --   -0.77154  -0.76433  -0.75550  -0.74212  -0.73321
 Alpha  occ. eigenvalues --   -0.71915  -0.71179  -0.70828  -0.69116  -0.67850
 Alpha  occ. eigenvalues --   -0.67013  -0.65635  -0.62897  -0.62149  -0.60552
 Alpha  occ. eigenvalues --   -0.60053  -0.59589  -0.58610  -0.57342  -0.56586
 Alpha  occ. eigenvalues --   -0.56210  -0.55046  -0.54662  -0.53883  -0.53770
 Alpha  occ. eigenvalues --   -0.52750  -0.52377  -0.51472  -0.50269  -0.50039
 Alpha  occ. eigenvalues --   -0.49637  -0.48854  -0.48707  -0.48469  -0.48175
 Alpha  occ. eigenvalues --   -0.47772  -0.47630  -0.47001  -0.45989  -0.45757
 Alpha  occ. eigenvalues --   -0.45167  -0.44885  -0.44622  -0.44281  -0.44100
 Alpha  occ. eigenvalues --   -0.43677  -0.43059  -0.42669  -0.42372  -0.41951
 Alpha  occ. eigenvalues --   -0.41792  -0.41326  -0.41203  -0.41029  -0.40919
 Alpha  occ. eigenvalues --   -0.40736  -0.40378  -0.39784  -0.39640  -0.39563
 Alpha  occ. eigenvalues --   -0.39286  -0.38953  -0.38936  -0.38595  -0.38417
 Alpha  occ. eigenvalues --   -0.38143  -0.37838  -0.36932  -0.36633  -0.36125
 Alpha  occ. eigenvalues --   -0.35899  -0.35456  -0.35211  -0.34814  -0.34226
 Alpha  occ. eigenvalues --   -0.33116  -0.33101  -0.31958  -0.31657  -0.31126
 Alpha  occ. eigenvalues --   -0.30609  -0.29804  -0.29739  -0.29529  -0.29291
 Alpha  occ. eigenvalues --   -0.28202  -0.27532  -0.25185  -0.24615  -0.24076
 Alpha  occ. eigenvalues --   -0.23918  -0.23021  -0.22638  -0.21928  -0.18926
 Alpha virt. eigenvalues --   -0.12617  -0.06604  -0.04086  -0.03799  -0.01511
 Alpha virt. eigenvalues --   -0.00150   0.00759   0.01416   0.01806   0.02375
 Alpha virt. eigenvalues --    0.02879   0.03318   0.04609   0.05059   0.05394

 Mulliken charges:
               1
     1  O   -0.202689
     2  O   -0.226976
     3  O   -0.290942
     4  O   -0.203155
     5  O   -0.295773
     6  O   -0.261860
     7  N   -0.142714
     8  N   -0.192362
     9  N   -0.048169
    10  N   -0.316584
    11  C    0.032285
    12  C    0.239480
    13  C   -0.107381
    14  C   -0.062121
    15  C   -0.063792
    16  C   -0.003723
    17  C   -0.152657
    18  C    0.138732
    19  C   -0.061084
    20  C   -0.140053
    21  C    0.145950
    22  C    0.088689
    23  C   -0.039255
    24  C    0.150692
    25  C    0.024343
    26  C   -0.144422
    27  C    0.032085
    28  C    0.016762
    29  C    0.130111
    30  C    0.001742
    31  C   -0.012187
    32  C    0.110751
    33  C   -0.041431
    34  C    0.128674
    35  C    0.156178
    36  C   -0.022392
    37  C    0.215295
    38  C    0.093213
    39  C   -0.242093
    40  C    0.152251
    41  C   -0.016908
    42  C    0.089834
    43  C   -0.022154
    44  H    0.058202
    45  H   -0.023366
    46  H   -0.039479
    47  H    0.161458
    48  H    0.185558
    49  H    0.024893
    50  H   -0.048236
    51  H    0.060900
    52  H   -0.026057
    53  H   -0.019200
    54  H   -0.033340
    55  H    0.058810
    56  H    0.053767
    57  H    0.044424
    58  H    0.013290
    59  H    0.040334
    60  H    0.156068
    61  H   -0.007400
    62  H    0.022919
    63  H    0.024469
    64  H    0.056704
    65  H   -0.006742
    66  H    0.027967
    67  H    0.016323
    68  H    0.064052
    69  H   -0.074433
    70  H   -0.060580
    71  H    0.022229
    72  H    0.226065
    73  H   -0.034889
    74  H    0.046957
    75  H    0.039771
    76  H    0.049875
    77  H    0.229982
    78  H    0.043173
    79  H    0.011340
 Sum of Mulliken charges =  -0.00000

 Dipole moment (field-independent basis, Debye):
    X=              5.0121    Y=              2.6727    Z=             -1.5502  Tot=              5.8879
 Quadrupole moment (field-independent basis, Debye-Ang):
   XX=           -227.7022   YY=           -239.6595   ZZ=           -266.8912
   XY=              9.0898   XZ=            -27.6949   YZ=             -6.6425

 Normal termination of Gaussian 16 at Thu Jul 25 21:50:42 2019.
