 Gaussian 16, Revision A.03,
 Gaussian 16:  ES64L-G16RevA.03 25-Dec-2016

 --------------------------
 # td=(NStates=1) B3LYP/SVP
 --------------------------

 --
 TD
 --
 Symbolic Z-matrix:
 Charge =  0 Multiplicity = 1

                         Standard orientation:
 ---------------------------------------------------------------------
 Center     Atomic      Atomic             Coordinates (Angstroms)
 Number     Number       Type             X           Y           Z
 ---------------------------------------------------------------------
      1          8           0       -3.372567   -1.903632   -2.825577
      2          8           0        3.101965    3.409480    3.013220
      3          8           0        3.790174    1.643357    4.359494
      4          8           0        7.794058   -1.695479   -0.499493
      5          8           0        6.773178   -3.112264   -2.005588
      6          8           0       -2.544373    1.674444    1.327405
      7          7           0       -0.323807   -2.141244    1.031788
      8          7           0       -2.713986   -1.257008   -0.566535
      9          7           0        1.186052    0.075152   -0.753244
     10          7           0       -0.996437    1.395544   -0.332675
     11          6           0       -3.309300   -1.237518    0.747792
     12          6           0       -2.592836   -2.177525    1.820711
     13          6           0       -1.196774   -1.793315    1.928294
     14          6           0       -0.570856   -0.975313    2.939255
     15          6           0        0.753478   -0.848655    2.530121
     16          6           0        0.935366   -1.632919    1.340145
     17          6           0       -4.776499   -1.844755    0.438339
     18          6           0        1.872388   -0.094200    3.132426
     19          6           0       -4.835135   -2.118384   -0.965711
     20          6           0        2.075213   -1.803974    0.419920
     21          6           0        2.176930   -0.845429   -0.604160
     22          6           0       -3.590765   -1.735606   -1.632451
     23          6           0        3.067328   -0.700601   -1.722654
     24          6           0       -1.288256   -0.209097    4.030306
     25          6           0       -5.923295   -1.865052    1.447398
     26          6           0        2.619022    0.346185   -2.564150
     27          6           0        2.060601    1.283207    2.636187
     28          6           0        1.356698    0.825622   -1.955863
     29          6           0        4.357638   -1.596715   -1.918740
     30          6           0       -5.983498   -2.705818   -1.689748
     31          6           0        5.489779   -1.206894   -1.061802
     32          6           0        3.038673    0.707858   -3.866179
     33          6           0        0.546275    1.841478   -2.270658
     34          6           0        3.071246    2.101911    3.473803
     35          6           0       -0.643926    2.175641   -1.429438
     36          6           0       -7.052929   -3.351055   -1.171527
     37          6           0        6.737250   -2.195489   -1.300079
     38          6           0       -1.491083    3.384443   -1.538310
     39          6           0       -2.313701    3.271593   -0.494048
     40          6           0       -1.975011    2.087510    0.291464
     41          6           0       -1.378504    4.344360   -2.563353
     42          6           0       -3.368358    4.205471    0.053369
     43          6           0       -2.105950    5.479231   -2.784824
     44          1           0       -3.354114   -0.261274    1.293698
     45          1           0       -2.885664   -3.092795    1.515243
     46          1           0       -2.897397   -1.706051    2.896909
     47          1           0       -0.368319   -2.581020    0.185655
     48          1           0       -2.004592   -0.551197   -0.749458
     49          1           0        1.882283   -0.261991    4.270221
     50          1           0        2.788891   -0.730027    2.981848
     51          1           0        2.615492   -2.691631    0.570188
     52          1           0       -2.101414   -0.835184    4.677970
     53          1           0       -0.376590    0.079980    4.755848
     54          1           0       -1.838227    0.615110    3.783807
     55          1           0       -5.585190   -1.095338    2.125032
     56          1           0       -6.096797   -2.688342    1.969864
     57          1           0       -6.784675   -1.747305    1.007406
     58          1           0        2.095993    1.340528    1.699275
     59          1           0        1.184755    1.921099    2.599839
     60          1           0        0.427623    0.284213   -0.079688
     61          1           0        4.861236   -1.704242   -2.903040
     62          1           0        3.924214   -2.589250   -1.705227
     63          1           0       -5.898840   -2.569449   -2.809222
     64          1           0        5.124902   -1.479624    0.017934
     65          1           0        5.763723   -0.084709   -1.049137
     66          1           0        3.961542    0.334853   -4.011581
     67          1           0        3.105785    1.882110   -4.050046
     68          1           0        2.391653    0.347389   -4.809912
     69          1           0        0.450088    2.432526   -3.128783
     70          1           0       -7.199908   -3.443410   -0.057340
     71          1           0       -7.964965   -3.668040   -1.889059
     72          1           0        3.660158    3.887992    3.638554
     73          1           0       -0.703165    4.221986   -3.533658
     74          1           0       -4.202892    4.357055   -0.810604
     75          1           0       -3.747945    3.770976    0.980351
     76          1           0       -2.954039    5.116517    0.192482
     77          1           0        8.517912   -2.358941   -0.692937
     78          1           0       -2.039560    6.285131   -3.602001
     79          1           0       -2.721457    5.930818   -2.066453
 ---------------------------------------------------------------------

 SCF Done:  E(RB3LYP) =  -1947.82936784     A.U. after   19 cycles

 Excitation energies and oscillator strengths:

 Excited State   1:      Singlet-A      0.7100 eV 1746.31 nm  f=0.0029  <S**2>=0.000
     155 ->156         0.70376
 This state for optimization and/or second-order correction.
 Total Energy, E(TD-HF/TD-DFT) =  -1947.80327662
 Copying the excited state density for this state as the 1-particle RhoCI density.

 The electronic state is 1-A.
 Alpha  occ. eigenvalues --  -19.18713 -19.18154 -19.16035 -19.13072 -19.12479
 Alpha  occ. eigenvalues --  -19.09410 -14.36886 -14.36323 -14.32856 -14.31361
 Alpha  occ. eigenvalues --  -10.33750 -10.32389 -10.27995 -10.27511 -10.26681
 Alpha  occ. eigenvalues --  -10.26632 -10.25752 -10.23525 -10.23020 -10.22931
 Alpha  occ. eigenvalues --  -10.22841 -10.22316 -10.22186 -10.21976 -10.21910
 Alpha  occ. eigenvalues --  -10.21562 -10.21560 -10.21468 -10.21313 -10.21265
 Alpha  occ. eigenvalues --  -10.19907 -10.19812 -10.19763 -10.19380 -10.19227
 Alpha  occ. eigenvalues --  -10.18851 -10.18813 -10.18637 -10.18490 -10.18304
 Alpha  occ. eigenvalues --  -10.17464 -10.17007 -10.16627  -1.11398  -1.08148
 Alpha  occ. eigenvalues --   -1.02669  -1.02503  -1.00414  -1.00006  -0.99023
 Alpha  occ. eigenvalues --   -0.98013  -0.94097  -0.90461  -0.83563  -0.83070
 Alpha  occ. eigenvalues --   -0.82525  -0.81123  -0.79392  -0.79200  -0.78608
 Alpha  occ. eigenvalues --   -0.77040  -0.76600  -0.75610  -0.74376  -0.73220
 Alpha  occ. eigenvalues --   -0.71880  -0.70327  -0.69841  -0.68364  -0.67406
 Alpha  occ. eigenvalues --   -0.66498  -0.65738  -0.63458  -0.61771  -0.60436
 Alpha  occ. eigenvalues --   -0.59771  -0.59021  -0.58333  -0.57646  -0.56732
 Alpha  occ. eigenvalues --   -0.56504  -0.56221  -0.55222  -0.54448  -0.54059
 Alpha  occ. eigenvalues --   -0.52329  -0.51708  -0.51079  -0.50537  -0.50057
 Alpha  occ. eigenvalues --   -0.49953  -0.49429  -0.48865  -0.48779  -0.48059
 Alpha  occ. eigenvalues --   -0.47753  -0.46733  -0.46489  -0.46209  -0.46029
 Alpha  occ. eigenvalues --   -0.45642  -0.45178  -0.44525  -0.44320  -0.43968
 Alpha  occ. eigenvalues --   -0.43843  -0.43351  -0.43132  -0.42857  -0.42628
 Alpha  occ. eigenvalues --   -0.42285  -0.42018  -0.41871  -0.41119  -0.40972
 Alpha  occ. eigenvalues --   -0.40860  -0.40656  -0.40549  -0.40374  -0.39972
 Alpha  occ. eigenvalues --   -0.39828  -0.39532  -0.39035  -0.38597  -0.38189
 Alpha  occ. eigenvalues --   -0.37827  -0.37342  -0.36724  -0.36493  -0.36119
 Alpha  occ. eigenvalues --   -0.35906  -0.35537  -0.35220  -0.34777  -0.34433
 Alpha  occ. eigenvalues --   -0.33705  -0.33389  -0.32768  -0.32336  -0.31859
 Alpha  occ. eigenvalues --   -0.30833  -0.30578  -0.29764  -0.29566  -0.29104
 Alpha  occ. eigenvalues --   -0.28224  -0.26851  -0.26585  -0.24961  -0.24424
 Alpha  occ. eigenvalues --   -0.24129  -0.23422  -0.22306  -0.22060  -0.18484
 Alpha virt. eigenvalues --   -0.13403  -0.08452  -0.04882  -0.03318  -0.00572
 Alpha virt. eigenvalues --   -0.00057   0.01674   0.02847   0.02894   0.03085
 Alpha virt. eigenvalues --    0.03701   0.04785   0.04835   0.05090   0.05544

 Mulliken charges:
               1
     1  O   -0.227450
     2  O   -0.203100
     3  O   -0.231604
     4  O   -0.241604
     5  O   -0.145069
     6  O   -0.230139
     7  N    0.065189
     8  N   -0.264682
     9  N   -0.132081
    10  N   -0.296776
    11  C    0.010565
    12  C    0.235805
    13  C   -0.119496
    14  C   -0.071454
    15  C   -0.117039
    16  C   -0.120560
    17  C   -0.187006
    18  C    0.094517
    19  C   -0.067383
    20  C   -0.085070
    21  C    0.150793
    22  C    0.190517
    23  C   -0.077930
    24  C    0.027734
    25  C    0.236589
    26  C   -0.083635
    27  C    0.149006
    28  C    0.227413
    29  C    0.091644
    30  C   -0.005261
    31  C   -0.075894
    32  C    0.063295
    33  C   -0.061313
    34  C    0.164190
    35  C   -0.001127
    36  C   -0.080676
    37  C    0.151138
    38  C    0.163759
    39  C   -0.222095
    40  C    0.167496
    41  C   -0.085900
    42  C    0.120327
    43  C   -0.071511
    44  H    0.055330
    45  H   -0.063768
    46  H    0.011221
    47  H    0.077580
    48  H    0.135669
    49  H    0.014875
    50  H   -0.006971
    51  H   -0.000411
    52  H    0.020074
    53  H    0.022059
    54  H    0.018011
    55  H    0.013888
    56  H   -0.011483
    57  H   -0.022979
    58  H   -0.082558
    59  H    0.008753
    60  H    0.195151
    61  H    0.021001
    62  H    0.025124
    63  H    0.018108
    64  H    0.053426
    65  H    0.065017
    66  H   -0.016933
    67  H    0.036429
    68  H    0.063731
    69  H   -0.041442
    70  H    0.013818
    71  H    0.045815
    72  H    0.173300
    73  H    0.037625
    74  H    0.045754
    75  H    0.035227
    76  H    0.008800
    77  H    0.184037
    78  H    0.045313
    79  H   -0.002717
 Sum of Mulliken charges =  -0.00000

 Dipole moment (field-independent basis, Debye):
    X=              2.8702    Y=              4.0954    Z=             -1.9467  Tot=              5.3666
 Quadrupole moment (field-independent basis, Debye-Ang):
   XX=           -238.2125   YY=           -234.8208   ZZ=           -264.4939
   XY=             -6.6005   XZ=            -23.1438   YZ=            -16.4647

 Normal termination of Gaussian 16 at Tue Jul 30 15:46:35 2019.
