 Gaussian 16, Revision A.03,
 Gaussian 16:  ES64L-G16RevA.03 25-Dec-2016

 --------------------------
 # td=(NStates=1) B3LYP/SVP
 --------------------------

 --
 TD
 --
 Symbolic Z-matrix:
 Charge =  0 Multiplicity = 1

                         Standard orientation:
 ---------------------------------------------------------------------
 Center     Atomic      Atomic             Coordinates (Angstroms)
 Number     Number       Type             X           Y           Z
 ---------------------------------------------------------------------
      1          8           0       -3.192222   -1.730108   -2.648620
      2          8           0        2.923227    3.702175    2.480126
      3          8           0        3.425062    2.234748    4.200662
      4          8           0        7.682634   -1.757642   -0.337195
      5          8           0        6.780670   -3.138709   -1.932557
      6          8           0       -2.680529    1.797758    1.196182
      7          7           0       -0.265931   -2.323349    1.438114
      8          7           0       -2.605655   -1.352203   -0.452677
      9          7           0        1.177661   -0.068765   -0.622382
     10          7           0       -1.014628    1.371981   -0.338014
     11          6           0       -3.319492   -1.233757    0.830796
     12          6           0       -2.633187   -2.171867    1.870488
     13          6           0       -1.262989   -1.831099    2.119403
     14          6           0       -0.815330   -0.640632    2.833441
     15          6           0        0.704694   -0.628946    2.661481
     16          6           0        0.965278   -1.606082    1.683307
     17          6           0       -4.687986   -1.760368    0.396117
     18          6           0        1.753845    0.246157    3.176335
     19          6           0       -4.764309   -2.173435   -0.849928
     20          6           0        2.099190   -1.853274    0.721812
     21          6           0        2.098532   -1.046226   -0.394202
     22          6           0       -3.435534   -1.686123   -1.494148
     23          6           0        3.001615   -0.970112   -1.460198
     24          6           0       -1.407105    0.177043    3.865447
     25          6           0       -5.837835   -1.877854    1.432044
     26          6           0        2.615300   -0.005293   -2.376062
     27          6           0        1.875733    1.669290    2.473579
     28          6           0        1.418133    0.559853   -1.833135
     29          6           0        4.136042   -1.839758   -1.643985
     30          6           0       -5.805830   -2.696208   -1.706098
     31          6           0        5.589203   -1.282191   -1.016978
     32          6           0        3.305675    0.396840   -3.707101
     33          6           0        0.617477    1.634855   -2.145078
     34          6           0        2.824613    2.451206    3.186496
     35          6           0       -0.621686    1.998473   -1.548537
     36          6           0       -6.835947   -3.520320   -1.429587
     37          6           0        6.748426   -2.198743   -1.094113
     38          6           0       -1.300449    3.335602   -1.635223
     39          6           0       -2.273081    3.230265   -0.723549
     40          6           0       -2.051031    2.054467    0.114066
     41          6           0       -1.168129    4.193128   -2.812710
     42          6           0       -3.507199    4.170754   -0.436015
     43          6           0       -1.866872    5.322697   -3.224964
     44          1           0       -3.260777   -0.329980    1.295186
     45          1           0       -2.659726   -3.267285    1.698746
     46          1           0       -3.240821   -2.478468    2.848642
     47          1           0       -0.325340   -2.898894    0.646804
     48          1           0       -1.840861   -0.589543   -0.608130
     49          1           0        1.735398    0.242376    4.239086
     50          1           0        2.540843   -0.383101    2.694831
     51          1           0        2.838507   -2.527933    1.159279
     52          1           0       -2.177671   -0.151515    4.796251
     53          1           0       -0.622810    0.780278    4.487179
     54          1           0       -1.925147    0.957212    3.135916
     55          1           0       -5.874709   -1.112673    2.099380
     56          1           0       -5.486082   -2.856128    1.994928
     57          1           0       -6.867003   -2.135236    1.102585
     58          1           0        2.170990    1.693304    1.479923
     59          1           0        0.828055    2.081124    2.484648
     60          1           0        0.453916    0.357114   -0.092195
     61          1           0        4.208177   -2.071092   -2.678931
     62          1           0        4.021248   -2.802904   -1.263723
     63          1           0       -5.749955   -2.370453   -2.726292
     64          1           0        5.290765   -1.204849    0.058275
     65          1           0        5.798349   -0.246539   -1.390465
     66          1           0        3.777855   -0.455580   -4.301777
     67          1           0        3.766809    1.411782   -3.396660
     68          1           0        2.393810    0.879372   -4.448116
     69          1           0        0.726792    2.178814   -3.103791
     70          1           0       -6.763731   -3.923897   -0.397749
     71          1           0       -7.179453   -4.144211   -2.163437
     72          1           0        3.409425    4.432540    3.176948
     73          1           0       -0.202293    4.127533   -3.332612
     74          1           0       -4.212010    4.191251   -1.469635
     75          1           0       -4.079244    3.689564    0.381622
     76          1           0       -3.112203    5.145479   -0.205148
     77          1           0        8.344880   -2.431391   -0.220894
     78          1           0       -1.412346    5.718353   -4.047347
     79          1           0       -2.823098    5.726107   -2.776594
 ---------------------------------------------------------------------

 SCF Done:  E(RB3LYP) =  -1947.80071713     A.U. after   22 cycles

 Excitation energies and oscillator strengths:

 Excited State   1:      Singlet-A      0.6055 eV 2047.79 nm  f=0.0031  <S**2>=0.000
     155 ->156         0.70445
 This state for optimization and/or second-order correction.
 Total Energy, E(TD-HF/TD-DFT) =  -1947.77846715
 Copying the excited state density for this state as the 1-particle RhoCI density.

 The electronic state is 1-A.
 Alpha  occ. eigenvalues --  -19.21825 -19.16733 -19.13499 -19.13342 -19.11426
 Alpha  occ. eigenvalues --  -19.08407 -14.37363 -14.36366 -14.32622 -14.31116
 Alpha  occ. eigenvalues --  -10.33879 -10.31405 -10.27299 -10.27146 -10.26319
 Alpha  occ. eigenvalues --  -10.26233 -10.26099 -10.24814 -10.23868 -10.23440
 Alpha  occ. eigenvalues --  -10.22942 -10.22531 -10.21846 -10.21786 -10.21691
 Alpha  occ. eigenvalues --  -10.21491 -10.21094 -10.21013 -10.20965 -10.20937
 Alpha  occ. eigenvalues --  -10.20894 -10.20219 -10.19862 -10.19856 -10.19321
 Alpha  occ. eigenvalues --  -10.19001 -10.18739 -10.18725 -10.18361 -10.17915
 Alpha  occ. eigenvalues --  -10.17334 -10.17275 -10.16768  -1.14377  -1.06845
 Alpha  occ. eigenvalues --   -1.02300  -1.01413  -1.00680  -1.00609  -0.97808
 Alpha  occ. eigenvalues --   -0.96748  -0.93308  -0.91574  -0.84867  -0.83360
 Alpha  occ. eigenvalues --   -0.81309  -0.81040  -0.79822  -0.78836  -0.78486
 Alpha  occ. eigenvalues --   -0.76903  -0.76181  -0.75598  -0.74568  -0.73639
 Alpha  occ. eigenvalues --   -0.71645  -0.70899  -0.70491  -0.69054  -0.67876
 Alpha  occ. eigenvalues --   -0.66415  -0.66334  -0.64062  -0.63563  -0.61730
 Alpha  occ. eigenvalues --   -0.60253  -0.59478  -0.58162  -0.57813  -0.55989
 Alpha  occ. eigenvalues --   -0.55753  -0.54932  -0.54016  -0.53499  -0.53022
 Alpha  occ. eigenvalues --   -0.51983  -0.51680  -0.51393  -0.50881  -0.50363
 Alpha  occ. eigenvalues --   -0.49946  -0.49176  -0.48984  -0.48758  -0.48609
 Alpha  occ. eigenvalues --   -0.47731  -0.47371  -0.47015  -0.46770  -0.46651
 Alpha  occ. eigenvalues --   -0.45387  -0.44774  -0.44510  -0.44064  -0.43852
 Alpha  occ. eigenvalues --   -0.43741  -0.43538  -0.42892  -0.42634  -0.41985
 Alpha  occ. eigenvalues --   -0.41528  -0.41465  -0.41323  -0.40979  -0.40541
 Alpha  occ. eigenvalues --   -0.40007  -0.39873  -0.39826  -0.39469  -0.39180
 Alpha  occ. eigenvalues --   -0.39145  -0.38903  -0.38671  -0.38385  -0.37967
 Alpha  occ. eigenvalues --   -0.37540  -0.37111  -0.37018  -0.36885  -0.36670
 Alpha  occ. eigenvalues --   -0.36425  -0.35615  -0.35301  -0.34410  -0.34086
 Alpha  occ. eigenvalues --   -0.33774  -0.33500  -0.32729  -0.32127  -0.31331
 Alpha  occ. eigenvalues --   -0.29757  -0.29442  -0.29315  -0.28796  -0.28582
 Alpha  occ. eigenvalues --   -0.28456  -0.27464  -0.25805  -0.24985  -0.24355
 Alpha  occ. eigenvalues --   -0.23639  -0.23118  -0.22605  -0.22127  -0.18606
 Alpha virt. eigenvalues --   -0.13941  -0.08364  -0.03348  -0.03145  -0.02230
 Alpha virt. eigenvalues --   -0.00440   0.01721   0.01976   0.02369   0.02828
 Alpha virt. eigenvalues --    0.03192   0.03505   0.04056   0.04589   0.05096

 Mulliken charges:
               1
     1  O   -0.189156
     2  O   -0.336986
     3  O   -0.194828
     4  O   -0.091721
     5  O   -0.273641
     6  O   -0.271359
     7  N   -0.005120
     8  N   -0.262500
     9  N   -0.062547
    10  N   -0.309134
    11  C    0.230258
    12  C    0.119059
    13  C   -0.098594
    14  C   -0.074157
    15  C   -0.141087
    16  C   -0.078663
    17  C   -0.190523
    18  C    0.120552
    19  C   -0.029626
    20  C   -0.145208
    21  C    0.221923
    22  C    0.117204
    23  C   -0.093071
    24  C   -0.074656
    25  C    0.091695
    26  C   -0.098574
    27  C    0.027640
    28  C    0.130557
    29  C    0.140743
    30  C   -0.046109
    31  C   -0.037642
    32  C    0.019205
    33  C   -0.094422
    34  C    0.168595
    35  C    0.081277
    36  C    0.002786
    37  C    0.136174
    38  C    0.032799
    39  C   -0.162896
    40  C    0.161972
    41  C   -0.062062
    42  C    0.053447
    43  C    0.004485
    44  H   -0.001854
    45  H   -0.042244
    46  H    0.006956
    47  H    0.093138
    48  H    0.166129
    49  H    0.023723
    50  H   -0.007652
    51  H    0.034112
    52  H    0.032952
    53  H    0.008107
    54  H    0.074308
    55  H   -0.001006
    56  H    0.030977
    57  H    0.028044
    58  H    0.010919
    59  H    0.072852
    60  H    0.156265
    61  H   -0.001623
    62  H   -0.017088
    63  H    0.001061
    64  H    0.036122
    65  H    0.059972
    66  H    0.078991
    67  H    0.060809
    68  H    0.044294
    69  H   -0.000614
    70  H    0.005990
    71  H    0.004709
    72  H    0.229082
    73  H    0.007476
    74  H    0.054285
    75  H    0.045750
    76  H    0.039541
    77  H    0.180079
    78  H    0.006571
    79  H    0.042778
 Sum of Mulliken charges =  -0.00000

 Dipole moment (field-independent basis, Debye):
    X=              5.7476    Y=              2.2376    Z=             -1.1740  Tot=              6.2786
 Quadrupole moment (field-independent basis, Debye-Ang):
   XX=           -238.0581   YY=           -238.2777   ZZ=           -265.8358
   XY=             -4.9948   XZ=            -10.6597   YZ=            -21.2106

 Normal termination of Gaussian 16 at Thu Jul 25 05:50:47 2019.
