 Gaussian 16, Revision A.03,
 Gaussian 16:  ES64L-G16RevA.03 25-Dec-2016

 --------------------------
 # td=(NStates=1) B3LYP/SVP
 --------------------------

 --
 TD
 --
 Symbolic Z-matrix:
 Charge =  0 Multiplicity = 1

                         Standard orientation:
 ---------------------------------------------------------------------
 Center     Atomic      Atomic             Coordinates (Angstroms)
 Number     Number       Type             X           Y           Z
 ---------------------------------------------------------------------
      1          8           0        5.481811   -0.083952   -3.288678
      2          8           0       -3.220659   -2.572465    3.149556
      3          8           0       -3.396295   -0.292636    2.885044
      4          8           0       -1.825166    7.251624    1.218505
      5          8           0       -0.564641    6.946192   -0.549252
      6          8           0       -1.653149   -4.105853    0.341874
      7          7           0        2.390255    1.112071    0.645526
      8          7           0        4.401186   -0.454266   -1.284325
      9          7           0       -1.831312    0.646028   -0.400657
     10          7           0       -2.590574   -2.049870   -0.194877
     11          6           0        4.761714   -1.102404   -0.088172
     12          6           0        4.426533   -0.206800    1.227037
     13          6           0        2.990336    0.113875    1.386881
     14          6           0        1.997213   -0.510817    2.127903
     15          6           0        0.707808    0.050215    1.752849
     16          6           0        1.008215    1.013218    0.738554
     17          6           0        6.229463   -1.379168   -0.148588
     18          6           0       -0.533355   -0.115174    2.507081
     19          6           0        6.637570   -0.849970   -1.302338
     20          6           0        0.207340    1.968258    0.132820
     21          6           0       -1.130689    1.846283   -0.395717
     22          6           0        5.517072   -0.397431   -2.137261
     23          6           0       -2.006509    2.816146   -1.038062
     24          6           0        2.217551   -1.539328    3.162663
     25          6           0        7.000674   -1.885188    0.956544
     26          6           0       -3.237177    2.175121   -1.350301
     27          6           0       -1.162909   -1.502950    2.784148
     28          6           0       -3.131674    0.783111   -0.979397
     29          6           0       -1.668656    4.308762   -1.177910
     30          6           0        8.029222   -0.904906   -1.933733
     31          6           0       -1.992093    5.078494    0.224808
     32          6           0       -4.415744    2.692178   -2.067331
     33          6           0       -3.983243   -0.244275   -1.223834
     34          6           0       -2.693709   -1.347037    2.923980
     35          6           0       -3.726793   -1.651938   -0.835082
     36          6           0        9.204266   -0.884729   -1.316602
     37          6           0       -1.439205    6.498629    0.238563
     38          6           0       -4.537407   -2.792321   -1.286985
     39          6           0       -3.724504   -3.881423   -0.956181
     40          6           0       -2.479687   -3.409976   -0.194348
     41          6           0       -5.705512   -2.679065   -2.165570
     42          6           0       -4.025622   -5.337815   -1.251918
     43          6           0       -6.553332   -3.726489   -2.620127
     44          1           0        4.238767   -2.147703    0.092755
     45          1           0        4.999901    0.656099    1.006194
     46          1           0        4.564238   -0.851424    2.054891
     47          1           0        2.758557    1.773716   -0.018430
     48          1           0        3.458053   -0.456538   -1.735918
     49          1           0       -0.519647    0.355233    3.614014
     50          1           0       -1.250523    0.705330    1.967308
     51          1           0        0.648280    2.973880   -0.008776
     52          1           0        3.340397   -1.385344    3.484062
     53          1           0        1.689104   -1.443225    4.098572
     54          1           0        1.911617   -2.579433    2.728297
     55          1           0        6.605734   -2.656349    1.685164
     56          1           0        7.380185   -1.034564    1.615871
     57          1           0        8.033829   -2.494682    0.428671
     58          1           0       -1.106770   -2.251059    2.049079
     59          1           0       -0.718774   -1.904755    3.793856
     60          1           0       -1.635084   -0.277385   -0.092270
     61          1           0       -2.185130    4.845971   -1.965969
     62          1           0       -0.509272    4.461578   -1.149318
     63          1           0        7.964527   -0.656019   -2.949215
     64          1           0       -1.150220    4.472252    0.890960
     65          1           0       -3.091290    5.108340    0.416563
     66          1           0       -4.280410    3.664492   -2.559190
     67          1           0       -5.312089    2.765124   -1.372247
     68          1           0       -4.789713    2.082495   -2.892907
     69          1           0       -5.058976   -0.239726   -1.545642
     70          1           0        9.150831   -0.979558   -0.097355
     71          1           0       10.193937   -0.764808   -1.871000
     72          1           0       -4.209372   -2.498364    3.261946
     73          1           0       -6.028672   -1.649577   -2.287239
     74          1           0       -4.776777   -5.799530   -0.547791
     75          1           0       -4.128370   -5.386641   -2.299192
     76          1           0       -3.125632   -6.009270   -0.883648
     77          1           0       -1.367504    8.011156    1.217544
     78          1           0       -7.351440   -3.475969   -3.283576
     79          1           0       -6.227335   -4.825265   -2.428348
 ---------------------------------------------------------------------

 SCF Done:  E(RB3LYP) =  -1947.90934278     A.U. after   17 cycles

 Excitation energies and oscillator strengths:

 Excited State   1:      Singlet-A      1.9186 eV  646.22 nm  f=0.4399  <S**2>=0.000
     154 ->156         0.19033
     155 ->156         0.68184
     155 <-156        -0.13203
 This state for optimization and/or second-order correction.
 Total Energy, E(TD-HF/TD-DFT) =  -1947.83883572
 Copying the excited state density for this state as the 1-particle RhoCI density.

 The electronic state is 1-A.
 Alpha  occ. eigenvalues --  -19.19260 -19.17416 -19.11946 -19.11173 -19.10825
 Alpha  occ. eigenvalues --  -19.10666 -14.38533 -14.35904 -14.35662 -14.28547
 Alpha  occ. eigenvalues --  -10.32792 -10.31276 -10.28670 -10.26342 -10.25523
 Alpha  occ. eigenvalues --  -10.25233 -10.24528 -10.23989 -10.23530 -10.23498
 Alpha  occ. eigenvalues --  -10.23295 -10.23217 -10.22542 -10.22278 -10.22133
 Alpha  occ. eigenvalues --  -10.21983 -10.21468 -10.21148 -10.21145 -10.20958
 Alpha  occ. eigenvalues --  -10.20727 -10.20514 -10.20491 -10.20326 -10.20218
 Alpha  occ. eigenvalues --  -10.19953 -10.19940 -10.19892 -10.19848 -10.19845
 Alpha  occ. eigenvalues --  -10.19779 -10.19207 -10.19022  -1.13425  -1.06968
 Alpha  occ. eigenvalues --   -1.04279  -1.02001  -0.98858  -0.98785  -0.96704
 Alpha  occ. eigenvalues --   -0.96607  -0.95368  -0.91575  -0.82988  -0.82079
 Alpha  occ. eigenvalues --   -0.81625  -0.81372  -0.79775  -0.79192  -0.77498
 Alpha  occ. eigenvalues --   -0.77091  -0.76043  -0.75418  -0.73897  -0.72571
 Alpha  occ. eigenvalues --   -0.72003  -0.71441  -0.69699  -0.69191  -0.68747
 Alpha  occ. eigenvalues --   -0.66981  -0.66270  -0.63802  -0.62106  -0.60499
 Alpha  occ. eigenvalues --   -0.59935  -0.59396  -0.58802  -0.58239  -0.57072
 Alpha  occ. eigenvalues --   -0.56114  -0.55581  -0.54887  -0.54057  -0.53077
 Alpha  occ. eigenvalues --   -0.52051  -0.51672  -0.51254  -0.50383  -0.49582
 Alpha  occ. eigenvalues --   -0.48942  -0.48395  -0.48119  -0.47543  -0.47412
 Alpha  occ. eigenvalues --   -0.47054  -0.46558  -0.46243  -0.46140  -0.45485
 Alpha  occ. eigenvalues --   -0.45358  -0.45193  -0.44553  -0.44269  -0.44066
 Alpha  occ. eigenvalues --   -0.43606  -0.42976  -0.42779  -0.42747  -0.42362
 Alpha  occ. eigenvalues --   -0.42152  -0.41958  -0.41803  -0.41684  -0.41397
 Alpha  occ. eigenvalues --   -0.41047  -0.40950  -0.40503  -0.39828  -0.39574
 Alpha  occ. eigenvalues --   -0.39326  -0.39024  -0.38821  -0.38596  -0.38378
 Alpha  occ. eigenvalues --   -0.38140  -0.38097  -0.37401  -0.37233  -0.36822
 Alpha  occ. eigenvalues --   -0.36171  -0.35637  -0.35292  -0.35106  -0.34240
 Alpha  occ. eigenvalues --   -0.33557  -0.32632  -0.31835  -0.31673  -0.31323
 Alpha  occ. eigenvalues --   -0.30754  -0.30154  -0.28254  -0.27616  -0.27387
 Alpha  occ. eigenvalues --   -0.27185  -0.26438  -0.26306  -0.25349  -0.25072
 Alpha  occ. eigenvalues --   -0.24462  -0.24213  -0.23580  -0.21608  -0.18757
 Alpha virt. eigenvalues --   -0.11486  -0.07101  -0.05538  -0.02055  -0.01334
 Alpha virt. eigenvalues --    0.00586   0.00652   0.00937   0.02225   0.02884
 Alpha virt. eigenvalues --    0.03530   0.04177   0.04992   0.05169   0.05518

 Mulliken charges:
               1
     1  O   -0.184301
     2  O   -0.195626
     3  O   -0.284916
     4  O   -0.062368
     5  O   -0.292177
     6  O   -0.189600
     7  N   -0.074807
     8  N   -0.196238
     9  N   -0.107837
    10  N   -0.286077
    11  C    0.024602
    12  C    0.305730
    13  C   -0.091148
    14  C   -0.135313
    15  C    0.001655
    16  C    0.086247
    17  C   -0.100955
    18  C   -0.068718
    19  C   -0.099526
    20  C   -0.113620
    21  C    0.087094
    22  C    0.136806
    23  C   -0.066809
    24  C    0.046008
    25  C   -0.046878
    26  C   -0.109462
    27  C    0.031388
    28  C    0.199224
    29  C    0.053398
    30  C    0.049157
    31  C   -0.055676
    32  C    0.088146
    33  C   -0.115310
    34  C    0.163730
    35  C    0.012194
    36  C   -0.082648
    37  C    0.108311
    38  C    0.041503
    39  C   -0.241836
    40  C    0.170031
    41  C   -0.037410
    42  C    0.058391
    43  C   -0.033559
    44  H    0.030515
    45  H   -0.031374
    46  H   -0.034401
    47  H    0.112586
    48  H    0.145081
    49  H    0.031816
    50  H    0.055026
    51  H   -0.009453
    52  H    0.023283
    53  H    0.014225
    54  H    0.060417
    55  H    0.039131
    56  H    0.063430
    57  H    0.070133
    58  H    0.038110
    59  H    0.049270
    60  H    0.116770
    61  H    0.022524
    62  H    0.041065
    63  H   -0.008053
    64  H    0.079431
    65  H    0.055487
    66  H    0.007754
    67  H    0.031917
    68  H    0.020629
    69  H    0.002010
    70  H    0.042470
    71  H    0.048817
    72  H    0.192574
    73  H   -0.012549
    74  H    0.043457
    75  H    0.036154
    76  H    0.025130
    77  H    0.136270
    78  H    0.021947
    79  H    0.047602
 Sum of Mulliken charges =  -0.00000

 Dipole moment (field-independent basis, Debye):
    X=              0.3850    Y=              1.9421    Z=              3.1229  Tot=              3.6976
 Quadrupole moment (field-independent basis, Debye-Ang):
   XX=           -223.3179   YY=           -250.4110   ZZ=           -260.6025
   XY=             -9.6144   XZ=             32.4658   YZ=              4.5869

 Normal termination of Gaussian 16 at Wed Sep 18 10:48:14 2019.
