 Gaussian 16, Revision A.03,
 Gaussian 16:  ES64L-G16RevA.03 25-Dec-2016

 --------------------------
 # td=(NStates=1) B3LYP/SVP
 --------------------------

 --
 TD
 --
 Symbolic Z-matrix:
 Charge =  0 Multiplicity = 1

                         Standard orientation:
 ---------------------------------------------------------------------
 Center     Atomic      Atomic             Coordinates (Angstroms)
 Number     Number       Type             X           Y           Z
 ---------------------------------------------------------------------
      1          8           0       -3.269552   -1.212106   -2.775387
      2          8           0        3.125989    3.275372    3.042016
      3          8           0        3.399132    1.649058    4.497685
      4          8           0        7.661466   -1.524827   -0.432957
      5          8           0        6.768258   -3.014308   -1.964613
      6          8           0       -2.508148    1.711986    1.405035
      7          7           0       -0.339934   -2.387417    1.023645
      8          7           0       -2.573575   -1.250481   -0.542244
      9          7           0        1.157014   -0.002356   -0.831951
     10          7           0       -0.877163    1.472632   -0.208753
     11          6           0       -3.408614   -1.272589    0.639149
     12          6           0       -2.760272   -2.234171    1.777884
     13          6           0       -1.192683   -1.916694    1.907605
     14          6           0       -0.548256   -1.082834    2.884543
     15          6           0        0.758887   -1.037870    2.468923
     16          6           0        0.918869   -1.920437    1.212182
     17          6           0       -4.645810   -1.859573    0.279233
     18          6           0        1.878530   -0.256298    3.091242
     19          6           0       -4.743508   -2.141786   -1.075938
     20          6           0        1.971822   -2.030620    0.285008
     21          6           0        2.042523   -1.033706   -0.754927
     22          6           0       -3.518353   -1.412834   -1.580293
     23          6           0        2.994710   -0.759830   -1.754097
     24          6           0       -1.260694   -0.563419    4.039216
     25          6           0       -5.730728   -2.156736    1.352792
     26          6           0        2.565655    0.287795   -2.547569
     27          6           0        1.856431    1.178481    2.664298
     28          6           0        1.346609    0.802100   -1.968990
     29          6           0        4.278544   -1.611362   -1.973823
     30          6           0       -5.911832   -2.499587   -1.945358
     31          6           0        5.442898   -1.117177   -1.169698
     32          6           0        3.022594    0.827172   -3.825605
     33          6           0        0.497237    1.844379   -2.184512
     34          6           0        2.918955    2.026891    3.441380
     35          6           0       -0.556326    2.134577   -1.375876
     36          6           0       -7.007495   -3.273318   -1.611517
     37          6           0        6.655647   -2.003267   -1.250158
     38          6           0       -1.346698    3.444945   -1.332603
     39          6           0       -2.156951    3.499379   -0.161205
     40          6           0       -1.884480    2.143500    0.394864
     41          6           0       -1.301473    4.422150   -2.451273
     42          6           0       -3.334943    4.395347    0.353469
     43          6           0       -1.884344    5.584375   -2.555037
     44          1           0       -3.253492   -0.221724    1.212084
     45          1           0       -2.540419   -3.131138    1.111668
     46          1           0       -3.304330   -2.319262    2.651343
     47          1           0       -0.800950   -2.730439    0.001535
     48          1           0       -2.103053   -0.397769   -0.679495
     49          1           0        1.960395   -0.248233    4.177236
     50          1           0        2.763314   -0.890630    3.096229
     51          1           0        2.702439   -2.662082    0.290362
     52          1           0       -2.072088   -1.447503    4.186366
     53          1           0       -0.667732   -0.286719    4.867268
     54          1           0       -1.640264    0.366690    3.633762
     55          1           0       -5.637514   -1.373345    2.091073
     56          1           0       -5.647441   -3.090651    1.828611
     57          1           0       -6.764747   -1.949322    1.020879
     58          1           0        2.187459    1.212007    1.588365
     59          1           0        0.753440    1.682821    2.817969
     60          1           0        0.362515    0.374038   -0.156636
     61          1           0        4.412251   -1.752793   -3.162820
     62          1           0        3.835764   -2.602899   -1.597202
     63          1           0       -5.591485   -2.204795   -2.905514
     64          1           0        5.119969   -0.943399   -0.183803
     65          1           0        5.662276   -0.035355   -1.464824
     66          1           0        4.066471    0.292922   -4.191534
     67          1           0        2.932455    2.077653   -3.839659
     68          1           0        2.321712    0.330499   -4.643581
     69          1           0        0.593673    2.651014   -3.182759
     70          1           0       -7.109236   -3.449477   -0.509894
     71          1           0       -7.813761   -3.502805   -2.259270
     72          1           0        3.706210    3.624014    3.861332
     73          1           0       -0.467392    4.507229   -3.187524
     74          1           0       -3.920971    4.485446   -0.561375
     75          1           0       -3.750036    3.831560    1.232930
     76          1           0       -2.977835    5.471922    0.713305
     77          1           0        8.549022   -2.173430   -0.408949
     78          1           0       -1.772880    6.350826   -3.379235
     79          1           0       -2.813995    5.805201   -1.967219
 ---------------------------------------------------------------------

 SCF Done:  E(RB3LYP) =  -1947.78136006     A.U. after   21 cycles

 Excitation energies and oscillator strengths:

 Excited State   1:      Singlet-A      0.4456 eV 2782.39 nm  f=0.0002  <S**2>=0.000
     155 ->156         0.70314
 This state for optimization and/or second-order correction.
 Total Energy, E(TD-HF/TD-DFT) =  -1947.76498442
 Copying the excited state density for this state as the 1-particle RhoCI density.

 The electronic state is 1-A.
 Alpha  occ. eigenvalues --  -19.19611 -19.18801 -19.13852 -19.11893 -19.11669
 Alpha  occ. eigenvalues --  -19.08993 -14.37831 -14.36396 -14.33521 -14.31498
 Alpha  occ. eigenvalues --  -10.33688 -10.31452 -10.28059 -10.27291 -10.26387
 Alpha  occ. eigenvalues --  -10.25802 -10.25204 -10.24173 -10.23108 -10.23044
 Alpha  occ. eigenvalues --  -10.22535 -10.22447 -10.22442 -10.22376 -10.22337
 Alpha  occ. eigenvalues --  -10.22318 -10.22080 -10.21613 -10.21484 -10.21188
 Alpha  occ. eigenvalues --  -10.20994 -10.20473 -10.20397 -10.20187 -10.19745
 Alpha  occ. eigenvalues --  -10.19628 -10.19372 -10.19258 -10.19093 -10.17622
 Alpha  occ. eigenvalues --  -10.17615 -10.17596 -10.16148  -1.09778  -1.07541
 Alpha  occ. eigenvalues --   -1.01459  -1.00708  -0.99460  -0.99291  -0.99091
 Alpha  occ. eigenvalues --   -0.97103  -0.93329  -0.93216  -0.83603  -0.82788
 Alpha  occ. eigenvalues --   -0.81173  -0.80921  -0.80013  -0.79574  -0.78549
 Alpha  occ. eigenvalues --   -0.76509  -0.76061  -0.75922  -0.74008  -0.72712
 Alpha  occ. eigenvalues --   -0.70724  -0.70281  -0.69355  -0.68379  -0.67372
 Alpha  occ. eigenvalues --   -0.66194  -0.65275  -0.63275  -0.61318  -0.60195
 Alpha  occ. eigenvalues --   -0.59915  -0.59220  -0.57626  -0.56375  -0.56359
 Alpha  occ. eigenvalues --   -0.55464  -0.54967  -0.54614  -0.53640  -0.52764
 Alpha  occ. eigenvalues --   -0.52411  -0.51932  -0.50998  -0.49653  -0.49403
 Alpha  occ. eigenvalues --   -0.49278  -0.48432  -0.47996  -0.47941  -0.47664
 Alpha  occ. eigenvalues --   -0.47170  -0.46782  -0.46462  -0.46143  -0.45707
 Alpha  occ. eigenvalues --   -0.45324  -0.44598  -0.44394  -0.44222  -0.43718
 Alpha  occ. eigenvalues --   -0.43437  -0.42896  -0.42439  -0.42220  -0.41979
 Alpha  occ. eigenvalues --   -0.41883  -0.41864  -0.41538  -0.41056  -0.40853
 Alpha  occ. eigenvalues --   -0.40712  -0.40497  -0.39938  -0.39599  -0.39500
 Alpha  occ. eigenvalues --   -0.39336  -0.39072  -0.38888  -0.38485  -0.38340
 Alpha  occ. eigenvalues --   -0.37874  -0.37599  -0.37391  -0.36547  -0.36302
 Alpha  occ. eigenvalues --   -0.36010  -0.35103  -0.35035  -0.34273  -0.34148
 Alpha  occ. eigenvalues --   -0.33906  -0.32716  -0.32617  -0.31934  -0.31715
 Alpha  occ. eigenvalues --   -0.30608  -0.29901  -0.29228  -0.29027  -0.28636
 Alpha  occ. eigenvalues --   -0.27575  -0.26593  -0.26240  -0.25734  -0.24124
 Alpha  occ. eigenvalues --   -0.23964  -0.22910  -0.22695  -0.22375  -0.17936
 Alpha virt. eigenvalues --   -0.13436  -0.08132  -0.04894  -0.02125  -0.01818
 Alpha virt. eigenvalues --   -0.00002   0.00534   0.00666   0.01395   0.02047
 Alpha virt. eigenvalues --    0.03354   0.03497   0.03743   0.04074   0.04798

 Mulliken charges:
               1
     1  O   -0.254666
     2  O   -0.199648
     3  O   -0.261547
     4  O   -0.276656
     5  O   -0.241173
     6  O   -0.266291
     7  N   -0.050610
     8  N   -0.168001
     9  N   -0.168355
    10  N   -0.312507
    11  C   -0.035789
    12  C    0.172328
    13  C   -0.172917
    14  C   -0.081221
    15  C   -0.132681
    16  C    0.026217
    17  C   -0.147631
    18  C    0.079661
    19  C   -0.062131
    20  C    0.011563
    21  C    0.061688
    22  C    0.109594
    23  C   -0.119418
    24  C    0.118293
    25  C    0.117851
    26  C   -0.067805
    27  C   -0.020210
    28  C    0.150812
    29  C    0.028765
    30  C    0.014888
    31  C    0.053165
    32  C   -0.040730
    33  C   -0.162385
    34  C    0.133254
    35  C    0.129750
    36  C   -0.011131
    37  C    0.198823
    38  C    0.004566
    39  C   -0.163004
    40  C    0.162398
    41  C    0.003025
    42  C    0.049560
    43  C   -0.092967
    44  H    0.111848
    45  H   -0.017098
    46  H   -0.015982
    47  H    0.190836
    48  H    0.127827
    49  H   -0.008501
    50  H   -0.015010
    51  H   -0.081154
    52  H    0.036566
    53  H   -0.007786
    54  H    0.028017
    55  H    0.003077
    56  H    0.033423
    57  H    0.028433
    58  H    0.030763
    59  H    0.090597
    60  H    0.233102
    61  H    0.050231
    62  H    0.034376
    63  H   -0.006892
    64  H    0.017943
    65  H    0.049651
    66  H    0.044449
    67  H    0.071964
    68  H    0.064534
    69  H    0.055844
    70  H    0.022376
    71  H    0.023181
    72  H    0.213649
    73  H    0.009320
    74  H    0.054436
    75  H    0.057030
    76  H    0.053575
    77  H    0.246732
    78  H    0.040420
    79  H    0.011495
 Sum of Mulliken charges =  -0.00000

 Dipole moment (field-independent basis, Debye):
    X=              2.5712    Y=              3.1640    Z=             -0.9721  Tot=              4.1913
 Quadrupole moment (field-independent basis, Debye-Ang):
   XX=           -229.2695   YY=           -240.9246   ZZ=           -266.5778
   XY=              2.8649   XZ=            -15.4731   YZ=            -14.6104

 Normal termination of Gaussian 16 at Fri Jul 26 06:25:32 2019.
