 Gaussian 16, Revision A.03,
 Gaussian 16:  ES64L-G16RevA.03 25-Dec-2016

 --------------------------
 # td=(NStates=1) B3LYP/SVP
 --------------------------

 --
 TD
 --
 Symbolic Z-matrix:
 Charge =  0 Multiplicity = 1

                         Standard orientation:
 ---------------------------------------------------------------------
 Center     Atomic      Atomic             Coordinates (Angstroms)
 Number     Number       Type             X           Y           Z
 ---------------------------------------------------------------------
      1          8           0       -3.155420   -1.324740   -2.741847
      2          8           0        3.020058    3.287374    3.024251
      3          8           0        3.670914    1.483154    4.155019
      4          8           0        7.600757   -1.780170   -0.499964
      5          8           0        6.503638   -3.092891   -1.894864
      6          8           0       -2.605909    1.692897    1.405509
      7          7           0       -0.321456   -2.350414    0.957602
      8          7           0       -2.665756   -1.261108   -0.519323
      9          7           0        1.166245    0.101817   -0.717546
     10          7           0       -1.024101    1.443252   -0.280270
     11          6           0       -3.424317   -1.335141    0.699153
     12          6           0       -2.766517   -2.273499    1.702558
     13          6           0       -1.278964   -1.985820    1.902517
     14          6           0       -0.609115   -1.159926    2.833467
     15          6           0        0.727950   -1.117254    2.371861
     16          6           0        0.926891   -1.772985    1.253019
     17          6           0       -4.827037   -1.854004    0.273993
     18          6           0        1.757832   -0.234789    3.075670
     19          6           0       -4.738945   -2.103262   -1.012157
     20          6           0        2.035930   -1.927292    0.277151
     21          6           0        2.035165   -1.022105   -0.685431
     22          6           0       -3.519330   -1.544819   -1.602455
     23          6           0        2.966593   -0.702549   -1.875426
     24          6           0       -1.223511   -0.426176    4.140607
     25          6           0       -5.899403   -2.028160    1.207602
     26          6           0        2.630508    0.424587   -2.422714
     27          6           0        1.886528    1.334524    2.647227
     28          6           0        1.411734    0.907134   -1.787040
     29          6           0        4.245063   -1.665380   -2.083206
     30          6           0       -5.683986   -2.531284   -2.041579
     31          6           0        5.314584   -1.307026   -1.000291
     32          6           0        3.256439    1.058908   -3.704567
     33          6           0        0.573470    1.956004   -2.077916
     34          6           0        2.962516    1.937012    3.377478
     35          6           0       -0.578150    2.330113   -1.312206
     36          6           0       -6.798173   -3.279800   -1.736125
     37          6           0        6.462684   -2.177063   -1.164918
     38          6           0       -1.354590    3.512602   -1.327373
     39          6           0       -2.169792    3.512561   -0.111004
     40          6           0       -2.019823    2.160240    0.445259
     41          6           0       -1.166928    4.473290   -2.383063
     42          6           0       -3.207911    4.435623    0.293641
     43          6           0       -1.895447    5.563720   -2.590343
     44          1           0       -3.608889   -0.332270    1.167754
     45          1           0       -2.904270   -3.274937    1.456941
     46          1           0       -3.229846   -2.394784    2.921988
     47          1           0       -0.441780   -2.912749    0.094016
     48          1           0       -2.083362   -0.568398   -0.569350
     49          1           0        1.562976   -0.144160    4.146498
     50          1           0        2.880955   -0.732249    2.956977
     51          1           0        2.645727   -2.811431    0.438915
     52          1           0       -1.978214   -0.917414    4.899758
     53          1           0       -0.239660   -0.170020    4.546555
     54          1           0       -1.494271    0.245288    3.678274
     55          1           0       -5.831417   -1.405588    2.063496
     56          1           0       -6.066262   -3.003006    1.669859
     57          1           0       -6.840431   -1.994876    0.691146
     58          1           0        1.907197    1.195185    1.469850
     59          1           0        1.121191    1.940527    2.903114
     60          1           0        0.191177    0.391151   -0.145773
     61          1           0        4.669424   -1.573805   -3.132002
     62          1           0        3.987658   -2.584339   -1.872301
     63          1           0       -5.106420   -2.583450   -3.127638
     64          1           0        5.017111   -1.547122    0.150657
     65          1           0        5.649680   -0.299592   -1.156945
     66          1           0        3.943095    0.230530   -4.294942
     67          1           0        3.637443    2.059432   -3.559496
     68          1           0        2.617264    1.528452   -4.391271
     69          1           0        0.838068    2.621369   -2.857028
     70          1           0       -7.216966   -3.757897   -0.739783
     71          1           0       -7.467208   -3.801643   -2.511614
     72          1           0        3.957097    3.806282    3.355547
     73          1           0       -0.267609    4.348140   -2.874848
     74          1           0       -3.971940    4.487195   -0.340251
     75          1           0       -3.631710    3.978856    1.351815
     76          1           0       -2.880091    5.445917    0.518742
     77          1           0        8.392387   -2.253809   -0.588169
     78          1           0       -1.566879    6.217337   -3.540179
     79          1           0       -2.739761    5.960160   -1.948731
 ---------------------------------------------------------------------

 SCF Done:  E(RB3LYP) =  -1947.71899665     A.U. after   17 cycles

 Excitation energies and oscillator strengths:

 Excited State   1:      Singlet-A      1.1619 eV 1067.10 nm  f=0.0001  <S**2>=0.000
     155 ->156         0.70464
 This state for optimization and/or second-order correction.
 Total Energy, E(TD-HF/TD-DFT) =  -1947.67629841
 Copying the excited state density for this state as the 1-particle RhoCI density.

 The electronic state is 1-A.
 Alpha  occ. eigenvalues --  -19.16846 -19.15770 -19.12921 -19.12387 -19.12050
 Alpha  occ. eigenvalues --  -19.08870 -14.36410 -14.35553 -14.31058 -14.30863
 Alpha  occ. eigenvalues --  -10.32167 -10.30041 -10.28138 -10.26485 -10.26300
 Alpha  occ. eigenvalues --  -10.25565 -10.25431 -10.22750 -10.22526 -10.22339
 Alpha  occ. eigenvalues --  -10.22141 -10.22102 -10.22062 -10.22025 -10.21996
 Alpha  occ. eigenvalues --  -10.21860 -10.21692 -10.20843 -10.20781 -10.20310
 Alpha  occ. eigenvalues --  -10.20196 -10.20150 -10.20008 -10.20007 -10.19637
 Alpha  occ. eigenvalues --  -10.19632 -10.19487 -10.18875 -10.18532 -10.17903
 Alpha  occ. eigenvalues --  -10.16543 -10.16194 -10.15950  -1.10360  -1.08889
 Alpha  occ. eigenvalues --   -1.03234  -1.01732  -1.01349  -0.98300  -0.98211
 Alpha  occ. eigenvalues --   -0.95080  -0.92435  -0.91765  -0.83063  -0.82468
 Alpha  occ. eigenvalues --   -0.81876  -0.81538  -0.79591  -0.79043  -0.78341
 Alpha  occ. eigenvalues --   -0.76982  -0.76039  -0.75743  -0.74209  -0.72778
 Alpha  occ. eigenvalues --   -0.71383  -0.71120  -0.70856  -0.69778  -0.67717
 Alpha  occ. eigenvalues --   -0.66569  -0.65060  -0.63130  -0.61666  -0.60968
 Alpha  occ. eigenvalues --   -0.59670  -0.59182  -0.58112  -0.57502  -0.56322
 Alpha  occ. eigenvalues --   -0.55689  -0.55487  -0.53667  -0.53211  -0.52137
 Alpha  occ. eigenvalues --   -0.51838  -0.51442  -0.50713  -0.50195  -0.49651
 Alpha  occ. eigenvalues --   -0.49246  -0.48936  -0.48645  -0.47964  -0.47666
 Alpha  occ. eigenvalues --   -0.47041  -0.46665  -0.46166  -0.45966  -0.45672
 Alpha  occ. eigenvalues --   -0.45526  -0.45177  -0.44852  -0.44350  -0.43921
 Alpha  occ. eigenvalues --   -0.43665  -0.43218  -0.42642  -0.42628  -0.42195
 Alpha  occ. eigenvalues --   -0.42012  -0.41675  -0.41266  -0.41148  -0.40645
 Alpha  occ. eigenvalues --   -0.40137  -0.40091  -0.39858  -0.39317  -0.38848
 Alpha  occ. eigenvalues --   -0.38824  -0.38557  -0.38446  -0.38222  -0.37962
 Alpha  occ. eigenvalues --   -0.37791  -0.37522  -0.37236  -0.36648  -0.36129
 Alpha  occ. eigenvalues --   -0.35460  -0.35244  -0.34691  -0.33861  -0.33539
 Alpha  occ. eigenvalues --   -0.33012  -0.32471  -0.32287  -0.31850  -0.31181
 Alpha  occ. eigenvalues --   -0.30554  -0.30253  -0.29357  -0.29286  -0.28751
 Alpha  occ. eigenvalues --   -0.27844  -0.27553  -0.26057  -0.25037  -0.24184
 Alpha  occ. eigenvalues --   -0.23396  -0.22831  -0.22490  -0.22163  -0.19624
 Alpha virt. eigenvalues --   -0.13045  -0.07214  -0.04551  -0.01665   0.00406
 Alpha virt. eigenvalues --    0.01401   0.01448   0.02351   0.02796   0.03113
 Alpha virt. eigenvalues --    0.03534   0.04233   0.04625   0.05290   0.05865

 Mulliken charges:
               1
     1  O   -0.228129
     2  O   -0.324730
     3  O   -0.144633
     4  O   -0.206706
     5  O   -0.182860
     6  O   -0.195243
     7  N   -0.109346
     8  N   -0.122254
     9  N   -0.205841
    10  N   -0.396445
    11  C    0.071821
    12  C    0.189262
    13  C   -0.108430
    14  C   -0.162242
    15  C   -0.065942
    16  C   -0.035068
    17  C   -0.167523
    18  C   -0.002559
    19  C   -0.080614
    20  C   -0.170665
    21  C    0.244944
    22  C    0.131781
    23  C   -0.121370
    24  C    0.299751
    25  C    0.139882
    26  C   -0.079936
    27  C   -0.008922
    28  C    0.135337
    29  C    0.215328
    30  C    0.003027
    31  C   -0.037965
    32  C    0.109723
    33  C   -0.062602
    34  C    0.140032
    35  C    0.120416
    36  C   -0.119315
    37  C    0.106237
    38  C    0.053121
    39  C   -0.173316
    40  C    0.204898
    41  C    0.012441
    42  C    0.079634
    43  C   -0.062045
    44  H    0.048046
    45  H   -0.051838
    46  H    0.014745
    47  H    0.117586
    48  H    0.066592
    49  H    0.008935
    50  H    0.019193
    51  H    0.021089
    52  H    0.042767
    53  H   -0.024091
    54  H   -0.115374
    55  H    0.004836
    56  H    0.016546
    57  H    0.009457
    58  H    0.073249
    59  H    0.005592
    60  H    0.267553
    61  H    0.031816
    62  H   -0.039364
    63  H    0.072248
    64  H    0.081721
    65  H    0.036278
    66  H    0.063851
    67  H   -0.003072
    68  H   -0.008748
    69  H   -0.057144
    70  H    0.040588
    71  H    0.028251
    72  H    0.229323
    73  H   -0.027082
    74  H    0.013079
    75  H    0.049696
    76  H    0.027959
    77  H    0.164088
    78  H    0.046214
    79  H    0.042476
 Sum of Mulliken charges =  -0.00000

 Dipole moment (field-independent basis, Debye):
    X=              2.6101    Y=              3.0243    Z=             -1.6230  Tot=              4.3120
 Quadrupole moment (field-independent basis, Debye-Ang):
   XX=           -227.7174   YY=           -229.0933   ZZ=           -266.3601
   XY=              6.3158   XZ=            -22.0325   YZ=            -16.1352

 Normal termination of Gaussian 16 at Fri Jul 26 18:39:25 2019.
