 Gaussian 16, Revision A.03,
 Gaussian 16:  ES64L-G16RevA.03 25-Dec-2016

 --------------------------
 # td=(NStates=1) B3LYP/SVP
 --------------------------

 --
 TD
 --
 Symbolic Z-matrix:
 Charge =  0 Multiplicity = 1

                         Standard orientation:
 ---------------------------------------------------------------------
 Center     Atomic      Atomic             Coordinates (Angstroms)
 Number     Number       Type             X           Y           Z
 ---------------------------------------------------------------------
      1          8           0        5.391575   -0.123326   -3.274320
      2          8           0       -3.085699   -3.005203    3.260040
      3          8           0       -3.394221   -0.801361    3.111964
      4          8           0       -1.000982    7.169298    1.712587
      5          8           0       -0.196309    7.025274   -0.371229
      6          8           0       -2.055632   -3.915734    0.051469
      7          7           0        2.407848    0.766673    0.473522
      8          7           0        4.416459   -0.657292   -1.316662
      9          7           0       -1.846209    0.787721   -0.352661
     10          7           0       -2.714013   -1.830750   -0.596001
     11          6           0        4.768151   -1.361209   -0.104275
     12          6           0        4.328103   -0.726128    1.256932
     13          6           0        2.864740   -0.279481    1.293606
     14          6           0        1.828612   -0.771433    2.054237
     15          6           0        0.689712   -0.089024    1.700241
     16          6           0        1.048815    0.857875    0.783879
     17          6           0        6.299295   -1.469449   -0.169785
     18          6           0       -0.621267   -0.185191    2.502372
     19          6           0        6.727279   -1.001715   -1.352926
     20          6           0        0.326635    1.963388    0.201790
     21          6           0       -1.059406    1.842384   -0.325939
     22          6           0        5.562935   -0.514829   -2.152978
     23          6           0       -1.768678    2.982773   -0.875365
     24          6           0        1.929646   -1.826291    3.152250
     25          6           0        7.069783   -2.129102    0.848693
     26          6           0       -3.023594    2.408789   -1.293637
     27          6           0       -1.145829   -1.775111    2.540611
     28          6           0       -3.044203    1.072676   -1.050350
     29          6           0       -1.389300    4.419023   -0.913151
     30          6           0        8.047789   -0.918820   -2.008025
     31          6           0       -1.509251    5.164202    0.489895
     32          6           0       -4.179248    3.244124   -1.907972
     33          6           0       -4.078353    0.112135   -1.353353
     34          6           0       -2.675672   -1.696060    2.999108
     35          6           0       -3.843279   -1.265716   -1.087393
     36          6           0        9.151336   -1.072034   -1.410384
     37          6           0       -0.861494    6.598233    0.533173
     38          6           0       -4.771019   -2.425298   -1.580408
     39          6           0       -4.251097   -3.549846   -1.108916
     40          6           0       -2.955672   -3.195481   -0.440607
     41          6           0       -6.007466   -2.205155   -2.154949
     42          6           0       -4.593661   -5.039512   -1.152366
     43          6           0       -7.064894   -2.958941   -2.616556
     44          1           0        4.481461   -2.362892   -0.208350
     45          1           0        4.976872    0.225254    1.238728
     46          1           0        4.868334   -1.233394    2.119743
     47          1           0        3.024222    1.307592   -0.254486
     48          1           0        3.478378   -0.570835   -1.660046
     49          1           0       -0.451249   -0.038727    3.543099
     50          1           0       -1.362924    0.328382    2.167005
     51          1           0        0.783446    2.939327   -0.019041
     52          1           0        3.001619   -2.031752    3.674218
     53          1           0        1.345847   -1.710002    3.947496
     54          1           0        1.778922   -2.922443    2.903421
     55          1           0        6.545238   -2.774112    1.476225
     56          1           0        7.356230   -1.422949    1.795101
     57          1           0        7.978737   -2.596114    0.426289
     58          1           0       -1.194279   -2.029793    1.455880
     59          1           0       -0.483456   -2.449494    3.059580
     60          1           0       -1.603157   -0.276709   -0.316788
     61          1           0       -1.917125    4.956396   -1.677650
     62          1           0       -0.339537    4.542958   -1.214957
     63          1           0        7.901427   -0.877380   -3.087115
     64          1           0       -0.928652    4.699183    1.367163
     65          1           0       -2.513193    5.139865    0.918442
     66          1           0       -3.956255    4.247547   -2.119633
     67          1           0       -4.874503    3.151607   -1.224431
     68          1           0       -4.466953    2.571924   -2.856452
     69          1           0       -4.927158    0.386874   -1.910407
     70          1           0        9.336310   -1.151607   -0.284117
     71          1           0       10.132528   -1.085621   -2.017384
     72          1           0       -4.063119   -2.770275    3.364826
     73          1           0       -6.419646   -0.986235   -2.269662
     74          1           0       -5.370966   -5.167248   -0.517078
     75          1           0       -4.626775   -5.148280   -2.165294
     76          1           0       -3.889325   -5.719645   -0.873834
     77          1           0       -0.339040    7.872307    1.655215
     78          1           0       -7.886373   -2.489411   -3.087031
     79          1           0       -7.291032   -4.068998   -2.514859
 ---------------------------------------------------------------------

 SCF Done:  E(RB3LYP) =  -1947.85438483     A.U. after   20 cycles

 Excitation energies and oscillator strengths:

 Excited State   1:      Singlet-A      1.9618 eV  631.98 nm  f=0.4678  <S**2>=0.000
     154 ->156        -0.13576
     155 ->156         0.69322
     155 <-156        -0.14465
 This state for optimization and/or second-order correction.
 Total Energy, E(TD-HF/TD-DFT) =  -1947.78228900
 Copying the excited state density for this state as the 1-particle RhoCI density.

 The electronic state is 1-A.
 Alpha  occ. eigenvalues --  -19.20154 -19.15577 -19.13614 -19.12869 -19.10585
 Alpha  occ. eigenvalues --  -19.09272 -14.39358 -14.36446 -14.34659 -14.28877
 Alpha  occ. eigenvalues --  -10.33094 -10.30588 -10.28796 -10.25551 -10.24537
 Alpha  occ. eigenvalues --  -10.24443 -10.24137 -10.23998 -10.23440 -10.23344
 Alpha  occ. eigenvalues --  -10.23084 -10.23035 -10.22334 -10.22295 -10.21680
 Alpha  occ. eigenvalues --  -10.21423 -10.21397 -10.21266 -10.20560 -10.20134
 Alpha  occ. eigenvalues --  -10.20057 -10.20031 -10.19750 -10.19680 -10.19625
 Alpha  occ. eigenvalues --  -10.19513 -10.19491 -10.19423 -10.19413 -10.19351
 Alpha  occ. eigenvalues --  -10.19047 -10.18213 -10.16453  -1.12676  -1.09476
 Alpha  occ. eigenvalues --   -1.03720  -1.02541  -0.99607  -0.99008  -0.98657
 Alpha  occ. eigenvalues --   -0.98209  -0.93652  -0.90587  -0.83474  -0.81873
 Alpha  occ. eigenvalues --   -0.81629  -0.81006  -0.80362  -0.79522  -0.78116
 Alpha  occ. eigenvalues --   -0.76577  -0.75544  -0.74912  -0.74303  -0.72845
 Alpha  occ. eigenvalues --   -0.72264  -0.71341  -0.70064  -0.69420  -0.68636
 Alpha  occ. eigenvalues --   -0.66415  -0.65848  -0.63453  -0.61593  -0.60956
 Alpha  occ. eigenvalues --   -0.60665  -0.59315  -0.58393  -0.57966  -0.56497
 Alpha  occ. eigenvalues --   -0.56055  -0.55175  -0.54602  -0.53738  -0.52867
 Alpha  occ. eigenvalues --   -0.51942  -0.51116  -0.50857  -0.50389  -0.50180
 Alpha  occ. eigenvalues --   -0.49749  -0.49123  -0.48572  -0.47930  -0.47587
 Alpha  occ. eigenvalues --   -0.47209  -0.46812  -0.46690  -0.46441  -0.46294
 Alpha  occ. eigenvalues --   -0.46084  -0.45705  -0.45349  -0.45076  -0.44237
 Alpha  occ. eigenvalues --   -0.43590  -0.43410  -0.43152  -0.43049  -0.42789
 Alpha  occ. eigenvalues --   -0.42538  -0.42201  -0.41866  -0.41539  -0.41264
 Alpha  occ. eigenvalues --   -0.41102  -0.40934  -0.40627  -0.40475  -0.40170
 Alpha  occ. eigenvalues --   -0.39853  -0.39568  -0.39519  -0.39224  -0.39031
 Alpha  occ. eigenvalues --   -0.38964  -0.38395  -0.38143  -0.36809  -0.36710
 Alpha  occ. eigenvalues --   -0.35644  -0.35268  -0.34579  -0.34268  -0.34017
 Alpha  occ. eigenvalues --   -0.33756  -0.33422  -0.33326  -0.32913  -0.32394
 Alpha  occ. eigenvalues --   -0.31145  -0.30937  -0.29160  -0.28043  -0.27868
 Alpha  occ. eigenvalues --   -0.26634  -0.26276  -0.26190  -0.25507  -0.25433
 Alpha  occ. eigenvalues --   -0.25240  -0.23917  -0.23353  -0.22105  -0.18719
 Alpha virt. eigenvalues --   -0.11418  -0.06700  -0.05667  -0.00477   0.00055
 Alpha virt. eigenvalues --    0.00885   0.01578   0.02773   0.02797   0.03161
 Alpha virt. eigenvalues --    0.03509   0.04036   0.04368   0.05427   0.05783

 Mulliken charges:
               1
     1  O   -0.194677
     2  O   -0.231833
     3  O   -0.166691
     4  O   -0.138554
     5  O   -0.223357
     6  O   -0.236732
     7  N   -0.152070
     8  N   -0.231171
     9  N   -0.082899
    10  N   -0.288820
    11  C    0.159503
    12  C    0.122888
    13  C   -0.031567
    14  C   -0.073930
    15  C   -0.086897
    16  C    0.098719
    17  C   -0.206064
    18  C    0.205146
    19  C   -0.079703
    20  C   -0.076474
    21  C    0.016171
    22  C    0.142803
    23  C   -0.098001
    24  C    0.084016
    25  C    0.076135
    26  C   -0.181451
    27  C   -0.077800
    28  C    0.108453
    29  C    0.147897
    30  C    0.064774
    31  C   -0.053462
    32  C    0.184572
    33  C   -0.071235
    34  C    0.141814
    35  C    0.094003
    36  C   -0.073528
    37  C    0.119613
    38  C    0.090377
    39  C   -0.235352
    40  C    0.148794
    41  C   -0.110558
    42  C    0.254811
    43  C   -0.071863
    44  H    0.004145
    45  H   -0.003866
    46  H    0.014840
    47  H    0.168791
    48  H    0.120826
    49  H    0.004319
    50  H   -0.054570
    51  H   -0.002218
    52  H    0.002451
    53  H   -0.018187
    54  H    0.035996
    55  H   -0.007836
    56  H    0.037979
    57  H    0.048402
    58  H    0.085379
    59  H    0.025388
    60  H    0.189259
    61  H    0.007680
    62  H    0.011243
    63  H    0.012808
    64  H    0.046705
    65  H    0.030518
    66  H    0.002192
    67  H   -0.011173
    68  H    0.042872
    69  H   -0.049309
    70  H    0.037598
    71  H    0.034439
    72  H    0.167683
    73  H    0.030584
    74  H    0.001826
    75  H    0.004021
    76  H   -0.019711
    77  H    0.173113
    78  H    0.012466
    79  H    0.027544
 Sum of Mulliken charges =  -0.00000

 Dipole moment (field-independent basis, Debye):
    X=              2.4648    Y=              2.6278    Z=              3.4127  Tot=              4.9625
 Quadrupole moment (field-independent basis, Debye-Ang):
   XX=           -218.1705   YY=           -246.9158   ZZ=           -262.5375
   XY=            -14.1033   XZ=             31.8110   YZ=              6.5573

 Normal termination of Gaussian 16 at Fri Oct 11 00:16:44 2019.
