 Gaussian 16, Revision A.03,
 Gaussian 16:  ES64L-G16RevA.03 25-Dec-2016

 --------------------------
 # td=(NStates=1) B3LYP/SVP
 --------------------------

 --
 TD
 --
 Symbolic Z-matrix:
 Charge =  0 Multiplicity = 1

                         Standard orientation:
 ---------------------------------------------------------------------
 Center     Atomic      Atomic             Coordinates (Angstroms)
 Number     Number       Type             X           Y           Z
 ---------------------------------------------------------------------
      1          8           0        5.326345   -0.070303   -3.309098
      2          8           0       -2.998399   -2.920678    3.191408
      3          8           0       -3.354171   -0.692311    2.917840
      4          8           0       -0.819952    7.001590    1.742594
      5          8           0       -0.527158    7.190561   -0.658859
      6          8           0       -1.957428   -3.889700   -0.016430
      7          7           0        2.380818    0.790748    0.587830
      8          7           0        4.275722   -0.613355   -1.330009
      9          7           0       -1.747300    0.699130   -0.431885
     10          7           0       -2.666487   -1.831792   -0.596916
     11          6           0        4.685598   -1.418791   -0.016714
     12          6           0        4.450630   -0.533538    1.264051
     13          6           0        2.960518   -0.214547    1.349254
     14          6           0        1.962039   -0.800960    2.123260
     15          6           0        0.715160   -0.158838    1.816439
     16          6           0        1.006957    0.851192    0.842342
     17          6           0        6.199666   -1.636282   -0.247927
     18          6           0       -0.651326   -0.274531    2.432239
     19          6           0        6.488713   -1.092350   -1.414478
     20          6           0        0.177362    1.995683    0.325293
     21          6           0       -1.056646    1.868061   -0.266616
     22          6           0        5.386346   -0.475508   -2.210519
     23          6           0       -1.858059    2.922678   -0.770568
     24          6           0        2.026548   -1.805335    3.236126
     25          6           0        6.973005   -2.219223    0.777603
     26          6           0       -2.931115    2.512394   -1.312496
     27          6           0       -1.183903   -1.588565    2.485431
     28          6           0       -2.965785    1.032206   -1.126832
     29          6           0       -1.372776    4.414173   -0.836253
     30          6           0        7.826927   -0.997923   -2.001192
     31          6           0       -1.295154    5.166738    0.543705
     32          6           0       -4.143688    3.241371   -1.837705
     33          6           0       -3.943257    0.066449   -1.332787
     34          6           0       -2.628400   -1.676694    2.837068
     35          6           0       -3.711761   -1.419234   -1.099207
     36          6           0        9.088567   -0.949197   -1.438724
     37          6           0       -0.821856    6.519105    0.443895
     38          6           0       -4.777506   -2.396872   -1.421064
     39          6           0       -4.162720   -3.636580   -1.078074
     40          6           0       -2.788968   -3.257019   -0.481225
     41          6           0       -6.002596   -2.138235   -2.123638
     42          6           0       -4.609228   -4.983914   -1.115661
     43          6           0       -6.888042   -3.082232   -2.458390
     44          1           0        3.871195   -2.288110    0.139951
     45          1           0        5.036175    0.329431    1.315681
     46          1           0        4.692049   -1.200689    1.998058
     47          1           0        2.932844    1.427659   -0.126746
     48          1           0        3.414663   -0.666607   -1.573720
     49          1           0       -0.684067    0.085238    3.406750
     50          1           0       -1.355992    0.472272    1.892477
     51          1           0        0.686176    2.917050    0.168787
     52          1           0        3.017318   -2.136209    3.444173
     53          1           0        1.684612   -1.425419    4.232747
     54          1           0        1.312249   -2.609647    2.951186
     55          1           0        6.574503   -3.073149    1.212743
     56          1           0        7.346673   -1.620423    1.686804
     57          1           0        7.933467   -2.580856    0.350107
     58          1           0       -1.146489   -2.160170    1.586807
     59          1           0       -0.561705   -2.220379    3.086220
     60          1           0       -1.653430   -0.102674    0.011587
     61          1           0       -1.823206    5.008909   -1.572691
     62          1           0       -0.317179    4.299074   -1.003319
     63          1           0        7.736636   -0.826931   -3.057157
     64          1           0       -0.738427    4.775450    1.379211
     65          1           0       -2.279455    5.088221    0.986643
     66          1           0       -4.028312    4.262386   -2.223380
     67          1           0       -5.016374    3.430174   -1.024317
     68          1           0       -4.651717    2.758613   -2.826072
     69          1           0       -5.035235    0.452231   -1.720017
     70          1           0        8.984008   -1.138627   -0.336192
     71          1           0        9.836801   -0.832978   -2.165582
     72          1           0       -3.959375   -3.106916    3.506228
     73          1           0       -6.306586   -1.335299   -2.194986
     74          1           0       -5.526161   -5.356559   -0.481587
     75          1           0       -5.082450   -5.162901   -2.162338
     76          1           0       -3.884084   -5.670508   -0.818616
     77          1           0       -0.632571    8.014667    1.540411
     78          1           0       -7.566935   -2.929828   -3.197602
     79          1           0       -6.794284   -4.144958   -2.274843
 ---------------------------------------------------------------------

 SCF Done:  E(RB3LYP) =  -1947.77770770     A.U. after   16 cycles

 Excitation energies and oscillator strengths:

 Excited State   1:      Singlet-A      1.8855 eV  657.56 nm  f=0.2818  <S**2>=0.000
     155 ->156         0.70445
 This state for optimization and/or second-order correction.
 Total Energy, E(TD-HF/TD-DFT) =  -1947.70841571
 Copying the excited state density for this state as the 1-particle RhoCI density.

 The electronic state is 1-A.
 Alpha  occ. eigenvalues --  -19.20280 -19.17303 -19.13738 -19.12801 -19.11051
 Alpha  occ. eigenvalues --  -19.10757 -14.37738 -14.34820 -14.33119 -14.28845
 Alpha  occ. eigenvalues --  -10.33433 -10.30630 -10.28728 -10.27753 -10.25653
 Alpha  occ. eigenvalues --  -10.24517 -10.23517 -10.23038 -10.21967 -10.21914
 Alpha  occ. eigenvalues --  -10.21869 -10.21668 -10.20802 -10.20774 -10.20721
 Alpha  occ. eigenvalues --  -10.20598 -10.20382 -10.20310 -10.20260 -10.20156
 Alpha  occ. eigenvalues --  -10.20126 -10.20002 -10.19849 -10.19803 -10.19527
 Alpha  occ. eigenvalues --  -10.19292 -10.19101 -10.18888 -10.18827 -10.18021
 Alpha  occ. eigenvalues --  -10.17890 -10.17518 -10.17078  -1.07772  -1.07476
 Alpha  occ. eigenvalues --   -1.07007  -1.04979  -0.98249  -0.97654  -0.96980
 Alpha  occ. eigenvalues --   -0.95815  -0.94701  -0.91738  -0.83359  -0.83275
 Alpha  occ. eigenvalues --   -0.82251  -0.81401  -0.80251  -0.79406  -0.78521
 Alpha  occ. eigenvalues --   -0.77571  -0.77016  -0.75909  -0.73729  -0.72669
 Alpha  occ. eigenvalues --   -0.71689  -0.70611  -0.70261  -0.69263  -0.67710
 Alpha  occ. eigenvalues --   -0.66567  -0.65191  -0.63830  -0.61585  -0.61175
 Alpha  occ. eigenvalues --   -0.60125  -0.59382  -0.58970  -0.58183  -0.57160
 Alpha  occ. eigenvalues --   -0.56053  -0.55581  -0.54949  -0.54171  -0.53234
 Alpha  occ. eigenvalues --   -0.52687  -0.51379  -0.50469  -0.50114  -0.49902
 Alpha  occ. eigenvalues --   -0.49465  -0.49352  -0.48761  -0.48448  -0.47784
 Alpha  occ. eigenvalues --   -0.47217  -0.46703  -0.46287  -0.45889  -0.45765
 Alpha  occ. eigenvalues --   -0.45319  -0.44983  -0.44799  -0.44612  -0.44222
 Alpha  occ. eigenvalues --   -0.43829  -0.43440  -0.43362  -0.43099  -0.42629
 Alpha  occ. eigenvalues --   -0.42296  -0.41988  -0.41467  -0.41169  -0.40818
 Alpha  occ. eigenvalues --   -0.40655  -0.40455  -0.39987  -0.39825  -0.39522
 Alpha  occ. eigenvalues --   -0.39418  -0.39321  -0.38946  -0.38624  -0.38476
 Alpha  occ. eigenvalues --   -0.38453  -0.38242  -0.37814  -0.37320  -0.37110
 Alpha  occ. eigenvalues --   -0.36732  -0.36382  -0.35598  -0.35124  -0.34616
 Alpha  occ. eigenvalues --   -0.34338  -0.33294  -0.31808  -0.31621  -0.31275
 Alpha  occ. eigenvalues --   -0.30991  -0.30711  -0.29199  -0.28734  -0.28428
 Alpha  occ. eigenvalues --   -0.26940  -0.26910  -0.26331  -0.25834  -0.24822
 Alpha  occ. eigenvalues --   -0.24293  -0.23341  -0.22948  -0.22373  -0.18246
 Alpha virt. eigenvalues --   -0.10447  -0.06112  -0.05800  -0.03215  -0.00922
 Alpha virt. eigenvalues --    0.01138   0.01924   0.02455   0.02969   0.03793
 Alpha virt. eigenvalues --    0.04042   0.04061   0.04397   0.04762   0.05765

 Mulliken charges:
               1
     1  O   -0.150064
     2  O   -0.226287
     3  O   -0.244595
     4  O   -0.232011
     5  O   -0.319576
     6  O   -0.086836
     7  N   -0.136610
     8  N   -0.216828
     9  N   -0.043290
    10  N   -0.178034
    11  C   -0.045217
    12  C    0.326775
    13  C   -0.139506
    14  C   -0.125417
    15  C   -0.088287
    16  C    0.027094
    17  C   -0.077828
    18  C    0.143918
    19  C   -0.084172
    20  C   -0.095987
    21  C    0.109679
    22  C    0.195702
    23  C   -0.055199
    24  C    0.099315
    25  C    0.089488
    26  C   -0.069731
    27  C    0.023958
    28  C    0.110000
    29  C    0.175610
    30  C   -0.067553
    31  C   -0.006569
    32  C   -0.003604
    33  C   -0.152250
    34  C    0.135506
    35  C    0.018560
    36  C    0.031897
    37  C    0.199233
    38  C    0.037170
    39  C   -0.190894
    40  C    0.126109
    41  C    0.163465
    42  C    0.044434
    43  C    0.025233
    44  H    0.053544
    45  H   -0.024379
    46  H   -0.046383
    47  H    0.158197
    48  H    0.064135
    49  H   -0.027153
    50  H    0.018365
    51  H   -0.034825
    52  H   -0.021486
    53  H    0.020670
    54  H    0.042198
    55  H   -0.001341
    56  H    0.051639
    57  H    0.022420
    58  H    0.024705
    59  H   -0.002450
    60  H    0.079575
    61  H    0.007046
    62  H   -0.000075
    63  H   -0.003692
    64  H    0.035660
    65  H    0.041575
    66  H    0.011586
    67  H    0.054575
    68  H    0.040932
    69  H    0.027618
    70  H    0.016974
    71  H    0.020536
    72  H    0.214066
    73  H   -0.188947
    74  H    0.039870
    75  H    0.040766
    76  H    0.005941
    77  H    0.215785
    78  H   -0.002564
    79  H   -0.001884
 Sum of Mulliken charges =  -0.00000

 Dipole moment (field-independent basis, Debye):
    X=             -1.3327    Y=             -0.8642    Z=              3.5767  Tot=              3.9135
 Quadrupole moment (field-independent basis, Debye-Ang):
   XX=           -216.8345   YY=           -239.5854   ZZ=           -259.8253
   XY=             -2.2710   XZ=             30.1386   YZ=              5.4953

 Normal termination of Gaussian 16 at Mon Sep 30 15:21:42 2019.
