 Gaussian 16, Revision A.03,
 Gaussian 16:  ES64L-G16RevA.03 25-Dec-2016

 --------------------------
 # td=(NStates=1) B3LYP/SVP
 --------------------------

 --
 TD
 --
 Symbolic Z-matrix:
 Charge =  0 Multiplicity = 1

                         Standard orientation:
 ---------------------------------------------------------------------
 Center     Atomic      Atomic             Coordinates (Angstroms)
 Number     Number       Type             X           Y           Z
 ---------------------------------------------------------------------
      1          8           0        5.203115   -0.112418   -3.261564
      2          8           0       -2.899263   -3.019439    3.209504
      3          8           0       -3.395488   -0.869568    2.738966
      4          8           0       -1.259269    7.190181    1.641123
      5          8           0       -0.721029    7.173182   -0.643512
      6          8           0       -1.831039   -4.071126   -0.006942
      7          7           0        2.391657    0.910375    0.694984
      8          7           0        4.338615   -0.712491   -1.224633
      9          7           0       -1.833717    0.685931   -0.309569
     10          7           0       -2.492280   -1.889584   -0.696257
     11          6           0        4.776984   -1.278418    0.022887
     12          6           0        4.346169   -0.376380    1.246842
     13          6           0        2.960399   -0.096616    1.417996
     14          6           0        1.949917   -0.747644    2.178471
     15          6           0        0.707164   -0.104702    1.801633
     16          6           0        0.994181    0.883258    0.846870
     17          6           0        6.216476   -1.419934   -0.191049
     18          6           0       -0.587931   -0.280539    2.501778
     19          6           0        6.598515   -0.827884   -1.345640
     20          6           0        0.235205    1.953298    0.196074
     21          6           0       -1.108998    1.864222   -0.271130
     22          6           0        5.423693   -0.461239   -2.124333
     23          6           0       -1.907593    2.950039   -0.879229
     24          6           0        2.135028   -1.824226    3.155641
     25          6           0        7.098832   -2.006065    0.809848
     26          6           0       -3.095764    2.426519   -1.233717
     27          6           0       -1.127642   -1.746550    2.312058
     28          6           0       -3.002208    1.029128   -0.996067
     29          6           0       -1.462222    4.373759   -0.804125
     30          6           0        7.896982   -0.808121   -1.978972
     31          6           0       -1.505757    5.112958    0.501304
     32          6           0       -4.291783    3.163224   -1.782431
     33          6           0       -3.855384    0.075574   -1.390790
     34          6           0       -2.565030   -1.763462    2.783026
     35          6           0       -3.628155   -1.420089   -1.246966
     36          6           0        9.118178   -0.821213   -1.512873
     37          6           0       -1.070390    6.582272    0.399762
     38          6           0       -4.654066   -2.469470   -1.487791
     39          6           0       -4.001229   -3.722830   -1.080908
     40          6           0       -2.673926   -3.266716   -0.587483
     41          6           0       -6.010270   -2.286826   -2.059514
     42          6           0       -4.468050   -5.116022   -1.172731
     43          6           0       -7.005860   -3.267502   -2.087663
     44          1           0        4.311587   -2.238428    0.171200
     45          1           0        5.052910    0.544597    1.333150
     46          1           0        4.707548   -0.827676    2.151555
     47          1           0        2.904487    1.247225   -0.199908
     48          1           0        3.286442   -0.960529   -1.617028
     49          1           0       -0.549381    0.136898    3.628980
     50          1           0       -1.230447    0.362750    1.915647
     51          1           0        0.907068    2.706112   -0.106918
     52          1           0        3.194351   -1.777445    3.501890
     53          1           0        1.571729   -1.404755    4.081869
     54          1           0        1.778752   -2.801018    2.912520
     55          1           0        6.427740   -2.711143    1.308517
     56          1           0        7.386522   -1.183264    1.458926
     57          1           0        8.010937   -2.353858    0.342341
     58          1           0       -1.148994   -2.139518    1.425945
     59          1           0       -0.401219   -2.359159    2.897314
     60          1           0       -1.552952   -0.449897   -0.380435
     61          1           0       -1.891064    5.072980   -1.549784
     62          1           0       -0.370553    4.373059   -1.117195
     63          1           0        7.719226   -0.902017   -3.104869
     64          1           0       -0.994952    4.521843    1.200407
     65          1           0       -2.516657    5.097440    0.944864
     66          1           0       -3.993548    4.199594   -1.720713
     67          1           0       -5.216319    3.060120   -1.168937
     68          1           0       -4.479101    2.938053   -2.747008
     69          1           0       -4.860887    0.422915   -1.709847
     70          1           0        9.200258   -0.896503   -0.524696
     71          1           0        9.840443   -1.108856   -2.204574
     72          1           0       -3.820006   -2.930342    3.263162
     73          1           0       -6.124579   -1.197128   -2.180024
     74          1           0       -5.296218   -5.291500   -0.493797
     75          1           0       -4.425710   -5.362234   -2.401626
     76          1           0       -3.587844   -5.812574   -0.965122
     77          1           0       -1.149196    8.254084    1.528247
     78          1           0       -8.000890   -3.053475   -2.459632
     79          1           0       -6.908424   -4.273292   -1.731364
 ---------------------------------------------------------------------

 SCF Done:  E(RB3LYP) =  -1947.90493358     A.U. after   19 cycles

 Excitation energies and oscillator strengths:

 Excited State   1:      Singlet-A      1.8243 eV  679.63 nm  f=0.4188  <S**2>=0.000
     154 ->156         0.13594
     155 ->156         0.69926
     155 <-156        -0.14107
 This state for optimization and/or second-order correction.
 Total Energy, E(TD-HF/TD-DFT) =  -1947.83789187
 Copying the excited state density for this state as the 1-particle RhoCI density.

 The electronic state is 1-A.
 Alpha  occ. eigenvalues --  -19.19646 -19.16132 -19.14326 -19.11660 -19.10647
 Alpha  occ. eigenvalues --  -19.10289 -14.37914 -14.36009 -14.35153 -14.30818
 Alpha  occ. eigenvalues --  -10.33879 -10.30583 -10.28703 -10.27035 -10.24957
 Alpha  occ. eigenvalues --  -10.24598 -10.24493 -10.23404 -10.22765 -10.22604
 Alpha  occ. eigenvalues --  -10.22124 -10.21699 -10.21671 -10.21538 -10.21262
 Alpha  occ. eigenvalues --  -10.21182 -10.21173 -10.20898 -10.20812 -10.20750
 Alpha  occ. eigenvalues --  -10.20579 -10.20492 -10.20251 -10.20174 -10.20035
 Alpha  occ. eigenvalues --  -10.19923 -10.19699 -10.19531 -10.19183 -10.19153
 Alpha  occ. eigenvalues --  -10.19027 -10.17964 -10.17880  -1.08516  -1.07344
 Alpha  occ. eigenvalues --   -1.03017  -0.99650  -0.98945  -0.98102  -0.97720
 Alpha  occ. eigenvalues --   -0.97086  -0.94057  -0.91360  -0.83116  -0.83052
 Alpha  occ. eigenvalues --   -0.81634  -0.81009  -0.80098  -0.79540  -0.78558
 Alpha  occ. eigenvalues --   -0.77921  -0.76364  -0.75437  -0.74590  -0.73080
 Alpha  occ. eigenvalues --   -0.72326  -0.71587  -0.69642  -0.68928  -0.68221
 Alpha  occ. eigenvalues --   -0.66690  -0.65666  -0.64053  -0.61746  -0.60606
 Alpha  occ. eigenvalues --   -0.59439  -0.59136  -0.58082  -0.57338  -0.56193
 Alpha  occ. eigenvalues --   -0.55923  -0.54885  -0.54793  -0.53925  -0.52754
 Alpha  occ. eigenvalues --   -0.52216  -0.51681  -0.50778  -0.50765  -0.49224
 Alpha  occ. eigenvalues --   -0.48969  -0.48576  -0.48170  -0.47971  -0.47403
 Alpha  occ. eigenvalues --   -0.47107  -0.47047  -0.46604  -0.46427  -0.45890
 Alpha  occ. eigenvalues --   -0.45382  -0.44957  -0.44742  -0.44627  -0.44225
 Alpha  occ. eigenvalues --   -0.43868  -0.43665  -0.43236  -0.42912  -0.42776
 Alpha  occ. eigenvalues --   -0.42541  -0.42114  -0.41658  -0.41524  -0.41268
 Alpha  occ. eigenvalues --   -0.40707  -0.40521  -0.40462  -0.40076  -0.39933
 Alpha  occ. eigenvalues --   -0.39803  -0.39365  -0.39311  -0.38861  -0.38498
 Alpha  occ. eigenvalues --   -0.38130  -0.37839  -0.37698  -0.37541  -0.37324
 Alpha  occ. eigenvalues --   -0.36971  -0.36397  -0.35371  -0.34541  -0.34369
 Alpha  occ. eigenvalues --   -0.33402  -0.32891  -0.32759  -0.32052  -0.31775
 Alpha  occ. eigenvalues --   -0.30898  -0.30485  -0.29330  -0.28678  -0.28465
 Alpha  occ. eigenvalues --   -0.27165  -0.26639  -0.26504  -0.25848  -0.25287
 Alpha  occ. eigenvalues --   -0.24455  -0.24188  -0.23650  -0.21887  -0.18440
 Alpha virt. eigenvalues --   -0.11624  -0.06997  -0.06061  -0.02133  -0.01946
 Alpha virt. eigenvalues --    0.00342   0.01075   0.01543   0.01845   0.02735
 Alpha virt. eigenvalues --    0.03179   0.04330   0.04593   0.05005   0.05343

 Mulliken charges:
               1
     1  O   -0.197975
     2  O   -0.154101
     3  O   -0.241307
     4  O   -0.265868
     5  O   -0.247010
     6  O   -0.286873
     7  N   -0.115659
     8  N   -0.303345
     9  N   -0.172925
    10  N   -0.283160
    11  C    0.151382
    12  C    0.152746
    13  C   -0.066778
    14  C   -0.136111
    15  C   -0.118307
    16  C    0.032918
    17  C   -0.222480
    18  C    0.066710
    19  C   -0.054581
    20  C   -0.054788
    21  C    0.100031
    22  C    0.170685
    23  C   -0.042549
    24  C    0.096205
    25  C    0.141460
    26  C   -0.147276
    27  C    0.104163
    28  C    0.134396
    29  C    0.043401
    30  C   -0.077797
    31  C    0.041710
    32  C    0.188882
    33  C   -0.138084
    34  C    0.133284
    35  C    0.096564
    36  C    0.084825
    37  C    0.197203
    38  C   -0.037704
    39  C   -0.185448
    40  C    0.188503
    41  C    0.023061
    42  C    0.045448
    43  C   -0.016559
    44  H    0.002945
    45  H    0.004597
    46  H   -0.036730
    47  H    0.155028
    48  H    0.175717
    49  H    0.041133
    50  H    0.004608
    51  H   -0.025022
    52  H   -0.002107
    53  H    0.024983
    54  H    0.054005
    55  H    0.023439
    56  H    0.038792
    57  H    0.033821
    58  H   -0.021540
    59  H    0.014305
    60  H    0.235893
    61  H    0.018034
    62  H    0.016509
    63  H    0.025333
    64  H    0.013996
    65  H    0.033342
    66  H   -0.004392
    67  H    0.032136
    68  H    0.000884
    69  H   -0.016833
    70  H   -0.039338
    71  H    0.013807
    72  H    0.138505
    73  H   -0.006567
    74  H    0.056801
    75  H    0.056633
    76  H    0.031007
    77  H    0.232270
    78  H    0.026114
    79  H    0.020997
 Sum of Mulliken charges =  -0.00000

 Dipole moment (field-independent basis, Debye):
    X=              0.7459    Y=              1.5618    Z=              3.0182  Tot=              3.4792
 Quadrupole moment (field-independent basis, Debye-Ang):
   XX=           -215.5563   YY=           -243.7915   ZZ=           -265.8682
   XY=            -15.3024   XZ=             29.6009   YZ=              9.8140

 Normal termination of Gaussian 16 at Sun Sep 22 03:00:53 2019.
