 Gaussian 16, Revision A.03,
 Gaussian 16:  ES64L-G16RevA.03 25-Dec-2016

 --------------------------
 # td=(NStates=1) B3LYP/SVP
 --------------------------

 --
 TD
 --
 Symbolic Z-matrix:
 Charge =  0 Multiplicity = 1

                         Standard orientation:
 ---------------------------------------------------------------------
 Center     Atomic      Atomic             Coordinates (Angstroms)
 Number     Number       Type             X           Y           Z
 ---------------------------------------------------------------------
      1          8           0       -3.327422   -1.210865   -2.894862
      2          8           0        3.464286    2.852567    2.956587
      3          8           0        3.654375    1.070816    4.400715
      4          8           0        7.722584   -1.608456   -0.683074
      5          8           0        6.639027   -2.926578   -2.201173
      6          8           0       -2.613210    1.603028    1.544097
      7          7           0       -0.335792   -2.455887    0.769324
      8          7           0       -2.791014   -1.161321   -0.657824
      9          7           0        1.130625    0.087721   -0.741304
     10          7           0       -1.034434    1.429475   -0.151643
     11          6           0       -3.457225   -1.216749    0.552977
     12          6           0       -2.723437   -2.314872    1.567253
     13          6           0       -1.260249   -1.980136    1.715457
     14          6           0       -0.633541   -1.226407    2.693960
     15          6           0        0.790500   -1.288694    2.409986
     16          6           0        1.008350   -2.023093    1.167111
     17          6           0       -4.748761   -1.851751    0.197832
     18          6           0        1.903052   -0.492980    3.118817
     19          6           0       -4.882037   -1.919314   -1.126649
     20          6           0        2.004655   -1.978915    0.177111
     21          6           0        2.109910   -0.894896   -0.740908
     22          6           0       -3.628346   -1.426573   -1.753227
     23          6           0        3.013310   -0.618793   -1.791919
     24          6           0       -1.411903   -0.498119    3.812909
     25          6           0       -5.839414   -2.154130    1.258548
     26          6           0        2.631445    0.594067   -2.385808
     27          6           0        2.060134    1.005741    2.693838
     28          6           0        1.379010    1.071928   -1.712632
     29          6           0        4.187711   -1.390103   -2.007714
     30          6           0       -5.865403   -2.426682   -2.073110
     31          6           0        5.407698   -1.229991   -1.057297
     32          6           0        3.194210    1.371183   -3.557332
     33          6           0        0.518092    2.084390   -1.915298
     34          6           0        3.109605    1.574451    3.511571
     35          6           0       -0.685790    2.302640   -1.150416
     36          6           0       -6.908568   -3.199639   -1.776803
     37          6           0        6.571773   -1.987429   -1.476545
     38          6           0       -1.485351    3.563070   -1.053011
     39          6           0       -2.292829    3.410025    0.007321
     40          6           0       -2.075694    2.025136    0.514944
     41          6           0       -1.146664    4.680214   -1.977600
     42          6           0       -3.343713    4.261656    0.529848
     43          6           0       -1.875904    5.853768   -2.086658
     44          1           0       -3.466466   -0.167942    1.130165
     45          1           0       -2.799638   -3.487278    1.264673
     46          1           0       -3.173626   -2.143572    2.623140
     47          1           0       -0.782140   -2.856480   -0.011922
     48          1           0       -2.132793   -0.279203   -0.706326
     49          1           0        1.606864   -0.415200    4.157882
     50          1           0        3.015213   -0.761141    3.079322
     51          1           0        2.784928   -2.714160    0.228941
     52          1           0       -2.203068   -1.031918    4.214036
     53          1           0       -0.660131   -0.256308    4.670324
     54          1           0       -1.810243    0.496747    3.332960
     55          1           0       -5.373292   -1.605675    2.048617
     56          1           0       -6.039083   -3.214422    1.654491
     57          1           0       -6.807503   -1.976986    0.917101
     58          1           0        2.520381    0.991002    1.713092
     59          1           0        1.210572    1.592933    2.727111
     60          1           0        0.304265    0.282230   -0.126050
     61          1           0        4.622914   -1.436574   -3.129654
     62          1           0        3.759459   -2.527778   -1.997953
     63          1           0       -5.548561   -2.037706   -3.073238
     64          1           0        4.989700   -1.539327    0.135479
     65          1           0        5.498870   -0.142754   -1.215398
     66          1           0        4.020752    0.823415   -3.974805
     67          1           0        3.477024    2.412558   -3.347619
     68          1           0        2.380170    1.321075   -4.447089
     69          1           0        0.593589    2.788716   -2.724985
     70          1           0       -6.766124   -3.684168   -0.641458
     71          1           0       -7.647319   -3.545127   -2.593743
     72          1           0        4.160517    3.334244    3.456889
     73          1           0       -0.324761    4.381486   -2.721687
     74          1           0       -4.263323    4.382601   -0.146816
     75          1           0       -3.576449    3.890775    1.486454
     76          1           0       -2.885880    5.186825    0.573117
     77          1           0        8.609975   -2.050526   -1.324569
     78          1           0       -1.503553    6.419451   -2.963726
     79          1           0       -2.641811    5.952150   -1.494298
 ---------------------------------------------------------------------

 SCF Done:  E(RB3LYP) =  -1947.83576954     A.U. after   17 cycles

 Excitation energies and oscillator strengths:

 Excited State   1:      Singlet-A      0.9199 eV 1347.80 nm  f=0.0018  <S**2>=0.000
     155 ->156         0.70211
 This state for optimization and/or second-order correction.
 Total Energy, E(TD-HF/TD-DFT) =  -1947.80196376
 Copying the excited state density for this state as the 1-particle RhoCI density.

 The electronic state is 1-A.
 Alpha  occ. eigenvalues --  -19.18194 -19.15798 -19.15164 -19.13390 -19.12986
 Alpha  occ. eigenvalues --  -19.09137 -14.36910 -14.35715 -14.32375 -14.31862
 Alpha  occ. eigenvalues --  -10.33371 -10.31103 -10.28655 -10.26545 -10.26463
 Alpha  occ. eigenvalues --  -10.26224 -10.25611 -10.24365 -10.23593 -10.23233
 Alpha  occ. eigenvalues --  -10.22748 -10.22708 -10.22578 -10.22518 -10.22402
 Alpha  occ. eigenvalues --  -10.21776 -10.21533 -10.21232 -10.21112 -10.20854
 Alpha  occ. eigenvalues --  -10.20772 -10.20171 -10.20091 -10.19780 -10.19294
 Alpha  occ. eigenvalues --  -10.19204 -10.19173 -10.19144 -10.18618 -10.18582
 Alpha  occ. eigenvalues --  -10.18146 -10.17625 -10.17360  -1.09039  -1.08967
 Alpha  occ. eigenvalues --   -1.03622  -1.02089  -0.99859  -0.98663  -0.98265
 Alpha  occ. eigenvalues --   -0.94331  -0.93947  -0.93008  -0.84646  -0.82526
 Alpha  occ. eigenvalues --   -0.82168  -0.80364  -0.80124  -0.79195  -0.78346
 Alpha  occ. eigenvalues --   -0.77267  -0.76574  -0.75566  -0.74459  -0.72717
 Alpha  occ. eigenvalues --   -0.72099  -0.70219  -0.69190  -0.68848  -0.67524
 Alpha  occ. eigenvalues --   -0.66278  -0.65625  -0.63635  -0.61395  -0.59843
 Alpha  occ. eigenvalues --   -0.59146  -0.58118  -0.58020  -0.57019  -0.56104
 Alpha  occ. eigenvalues --   -0.55270  -0.55212  -0.54283  -0.53758  -0.52249
 Alpha  occ. eigenvalues --   -0.51857  -0.51302  -0.50697  -0.50165  -0.50020
 Alpha  occ. eigenvalues --   -0.49615  -0.49505  -0.48825  -0.48526  -0.48334
 Alpha  occ. eigenvalues --   -0.47438  -0.47070  -0.46616  -0.46232  -0.45727
 Alpha  occ. eigenvalues --   -0.45513  -0.45114  -0.44737  -0.44102  -0.43768
 Alpha  occ. eigenvalues --   -0.43439  -0.43273  -0.42878  -0.42713  -0.42183
 Alpha  occ. eigenvalues --   -0.41802  -0.41522  -0.41365  -0.41159  -0.40661
 Alpha  occ. eigenvalues --   -0.40394  -0.40219  -0.39877  -0.39570  -0.39519
 Alpha  occ. eigenvalues --   -0.39158  -0.38807  -0.38506  -0.38044  -0.37904
 Alpha  occ. eigenvalues --   -0.37780  -0.37522  -0.37234  -0.36820  -0.36614
 Alpha  occ. eigenvalues --   -0.36259  -0.35874  -0.35569  -0.34646  -0.34344
 Alpha  occ. eigenvalues --   -0.34121  -0.33881  -0.32471  -0.32419  -0.32062
 Alpha  occ. eigenvalues --   -0.31798  -0.30446  -0.30135  -0.29943  -0.29286
 Alpha  occ. eigenvalues --   -0.28567  -0.26951  -0.26768  -0.25201  -0.24533
 Alpha  occ. eigenvalues --   -0.23989  -0.22877  -0.22640  -0.22374  -0.19239
 Alpha virt. eigenvalues --   -0.13261  -0.08297  -0.04156  -0.03599  -0.03177
 Alpha virt. eigenvalues --   -0.00407   0.00685   0.01382   0.02347   0.02586
 Alpha virt. eigenvalues --    0.03100   0.03612   0.04255   0.04698   0.04981

 Mulliken charges:
               1
     1  O   -0.209389
     2  O   -0.285004
     3  O   -0.153964
     4  O   -0.342777
     5  O   -0.176146
     6  O   -0.231756
     7  N   -0.120342
     8  N   -0.222076
     9  N   -0.133526
    10  N   -0.324424
    11  C   -0.014998
    12  C    0.087961
    13  C   -0.095573
    14  C   -0.100165
    15  C   -0.093510
    16  C    0.060828
    17  C   -0.160038
    18  C    0.063467
    19  C   -0.075699
    20  C   -0.064178
    21  C    0.112478
    22  C    0.126854
    23  C   -0.005216
    24  C    0.065489
    25  C    0.099896
    26  C   -0.122124
    27  C    0.041172
    28  C    0.172424
    29  C   -0.077736
    30  C    0.025116
    31  C   -0.007937
    32  C    0.080382
    33  C   -0.099721
    34  C    0.121352
    35  C    0.069750
    36  C   -0.086272
    37  C    0.175914
    38  C    0.066464
    39  C   -0.240483
    40  C    0.187999
    41  C   -0.081868
    42  C    0.146392
    43  C    0.093193
    44  H    0.099769
    45  H    0.029168
    46  H    0.007371
    47  H    0.100905
    48  H    0.167976
    49  H    0.002191
    50  H    0.012938
    51  H    0.000026
    52  H   -0.004895
    53  H    0.008670
    54  H    0.064435
    55  H    0.015401
    56  H    0.032820
    57  H    0.011462
    58  H    0.027330
    59  H    0.022978
    60  H    0.193374
    61  H    0.045299
    62  H    0.041094
    63  H    0.012257
    64  H    0.105299
    65  H    0.047034
    66  H    0.003946
    67  H    0.044669
    68  H    0.054266
    69  H   -0.026009
    70  H    0.044229
    71  H    0.045053
    72  H    0.179762
    73  H    0.016141
    74  H    0.054653
    75  H    0.012421
    76  H    0.004431
    77  H    0.249641
    78  H    0.042239
    79  H   -0.040552
 Sum of Mulliken charges =  -0.00000

 Dipole moment (field-independent basis, Debye):
    X=              2.7189    Y=              4.3295    Z=             -2.0654  Tot=              5.5138
 Quadrupole moment (field-independent basis, Debye-Ang):
   XX=           -238.0560   YY=           -238.2220   ZZ=           -265.8328
   XY=              6.0731   XZ=            -24.4710   YZ=            -11.3496

 Normal termination of Gaussian 16 at Thu Jul 25 11:57:04 2019.
