 Gaussian 16, Revision A.03,
 Gaussian 16:  ES64L-G16RevA.03 25-Dec-2016

 --------------------------
 # td=(NStates=1) B3LYP/SVP
 --------------------------

 --
 TD
 --
 Symbolic Z-matrix:
 Charge =  0 Multiplicity = 1

                         Standard orientation:
 ---------------------------------------------------------------------
 Center     Atomic      Atomic             Coordinates (Angstroms)
 Number     Number       Type             X           Y           Z
 ---------------------------------------------------------------------
      1          8           0        5.168254   -0.253483   -3.338046
      2          8           0       -2.882510   -2.971890    3.279489
      3          8           0       -3.365215   -0.785567    2.627427
      4          8           0       -1.839553    6.953524    1.557390
      5          8           0       -0.898988    7.038246   -0.614311
      6          8           0       -1.638909   -3.979662    0.108645
      7          7           0        2.376781    1.065769    0.605612
      8          7           0        4.292070   -0.656341   -1.207217
      9          7           0       -1.814488    0.663272   -0.405069
     10          7           0       -2.643517   -1.907928   -0.306468
     11          6           0        4.766633   -1.129012    0.061988
     12          6           0        4.449212   -0.179693    1.203661
     13          6           0        2.920826    0.048230    1.388541
     14          6           0        1.987472   -0.465682    2.133718
     15          6           0        0.738062    0.150345    1.806911
     16          6           0        1.016185    0.983798    0.820009
     17          6           0        6.197533   -1.318055   -0.144786
     18          6           0       -0.558500   -0.227114    2.551027
     19          6           0        6.552638   -0.963825   -1.389399
     20          6           0        0.203228    1.981877    0.198967
     21          6           0       -1.108087    1.844212   -0.252028
     22          6           0        5.341320   -0.573275   -2.207335
     23          6           0       -1.842859    2.919940   -0.951392
     24          6           0        2.263952   -1.630208    3.191295
     25          6           0        7.142875   -1.913636    0.882080
     26          6           0       -3.130509    2.372284   -1.297440
     27          6           0       -1.115603   -1.558224    2.550243
     28          6           0       -3.017900    0.880595   -0.972274
     29          6           0       -1.444460    4.293051   -0.944604
     30          6           0        7.871722   -0.755515   -1.991906
     31          6           0       -1.857593    4.950320    0.406821
     32          6           0       -4.269382    3.077378   -1.962216
     33          6           0       -3.976064   -0.144050   -1.150851
     34          6           0       -2.567130   -1.769520    2.826059
     35          6           0       -3.717151   -1.520258   -0.966605
     36          6           0        9.041566   -0.528830   -1.498634
     37          6           0       -1.449895    6.415986    0.318165
     38          6           0       -4.496034   -2.627498   -1.475208
     39          6           0       -3.779029   -3.767888   -0.964435
     40          6           0       -2.489790   -3.375961   -0.460359
     41          6           0       -5.890038   -2.569392   -2.066400
     42          6           0       -4.163728   -5.209473   -1.023856
     43          6           0       -6.551060   -3.567417   -2.625081
     44          1           0        4.263828   -1.999726    0.229487
     45          1           0        4.843626    0.783885    1.016329
     46          1           0        4.781784   -0.647134    2.035751
     47          1           0        2.786718    1.528564   -0.070170
     48          1           0        3.434782   -0.966353   -1.530036
     49          1           0       -0.364028    0.184246    3.682607
     50          1           0       -1.249629    0.501783    2.154390
     51          1           0        0.675548    2.957328   -0.039539
     52          1           0        3.354551   -1.489693    3.444459
     53          1           0        1.786196   -1.300339    4.022408
     54          1           0        2.041965   -2.580273    2.683227
     55          1           0        6.879927   -2.541482    1.638981
     56          1           0        7.627524   -1.202044    1.478887
     57          1           0        8.000458   -2.327948    0.313785
     58          1           0       -0.980247   -2.072571    1.603212
     59          1           0       -0.550025   -2.188881    3.277744
     60          1           0       -1.499253   -0.423635   -0.037389
     61          1           0       -2.024943    5.082072   -1.659174
     62          1           0       -0.456369    4.634404   -1.166885
     63          1           0        7.742936   -0.747505   -3.166548
     64          1           0       -1.348975    4.543900    1.178043
     65          1           0       -2.845368    4.909545    0.649358
     66          1           0       -3.795576    4.059615   -2.369118
     67          1           0       -5.130140    2.976340   -1.315495
     68          1           0       -4.545232    2.566095   -2.953515
     69          1           0       -4.905954    0.037640   -1.604881
     70          1           0        9.238339   -0.166057   -0.415276
     71          1           0       10.066258    0.043871   -2.211321
     72          1           0       -3.775392   -2.977717    3.382038
     73          1           0       -6.332949   -1.500927   -1.969613
     74          1           0       -5.264463   -5.435979   -0.852134
     75          1           0       -4.153564   -5.539964   -2.197386
     76          1           0       -3.436935   -5.545726   -0.354529
     77          1           0       -1.456034    7.816617    1.308544
     78          1           0       -7.348372   -3.266382   -3.140405
     79          1           0       -6.292022   -4.609262   -2.786634
 ---------------------------------------------------------------------

 SCF Done:  E(RB3LYP) =  -1947.80026828     A.U. after   16 cycles

 Excitation energies and oscillator strengths:

 Excited State   1:      Singlet-A      1.8395 eV  673.99 nm  f=0.1938  <S**2>=0.000
     154 ->156         0.34518
     155 ->156         0.60996
 This state for optimization and/or second-order correction.
 Total Energy, E(TD-HF/TD-DFT) =  -1947.73266618
 Copying the excited state density for this state as the 1-particle RhoCI density.

 The electronic state is 1-A.
 Alpha  occ. eigenvalues --  -19.19680 -19.18537 -19.15774 -19.11783 -19.11656
 Alpha  occ. eigenvalues --  -19.10274 -14.36517 -14.35955 -14.33696 -14.27640
 Alpha  occ. eigenvalues --  -10.34053 -10.31039 -10.29312 -10.26532 -10.24970
 Alpha  occ. eigenvalues --  -10.24010 -10.23209 -10.22368 -10.21911 -10.21762
 Alpha  occ. eigenvalues --  -10.21714 -10.21681 -10.21523 -10.21467 -10.21466
 Alpha  occ. eigenvalues --  -10.21461 -10.21174 -10.21049 -10.20891 -10.20713
 Alpha  occ. eigenvalues --  -10.20467 -10.20357 -10.20222 -10.19886 -10.19782
 Alpha  occ. eigenvalues --  -10.19438 -10.19435 -10.19428 -10.18634 -10.18334
 Alpha  occ. eigenvalues --  -10.18272 -10.18139 -10.17580  -1.10558  -1.09810
 Alpha  occ. eigenvalues --   -1.04630  -1.03752  -1.01462  -0.98966  -0.96957
 Alpha  occ. eigenvalues --   -0.96534  -0.94791  -0.91178  -0.83317  -0.82750
 Alpha  occ. eigenvalues --   -0.81945  -0.81188  -0.79615  -0.79134  -0.77978
 Alpha  occ. eigenvalues --   -0.77873  -0.77095  -0.76237  -0.74650  -0.72793
 Alpha  occ. eigenvalues --   -0.72595  -0.71415  -0.69798  -0.69286  -0.68331
 Alpha  occ. eigenvalues --   -0.67139  -0.66230  -0.64016  -0.61679  -0.60533
 Alpha  occ. eigenvalues --   -0.60142  -0.58886  -0.58087  -0.57971  -0.56746
 Alpha  occ. eigenvalues --   -0.56370  -0.56256  -0.55207  -0.53896  -0.52737
 Alpha  occ. eigenvalues --   -0.52478  -0.51595  -0.50956  -0.50875  -0.50170
 Alpha  occ. eigenvalues --   -0.49635  -0.48986  -0.48038  -0.47783  -0.47633
 Alpha  occ. eigenvalues --   -0.47244  -0.47174  -0.46999  -0.46177  -0.45514
 Alpha  occ. eigenvalues --   -0.45497  -0.44930  -0.44709  -0.44267  -0.44042
 Alpha  occ. eigenvalues --   -0.43943  -0.43536  -0.43173  -0.43110  -0.42758
 Alpha  occ. eigenvalues --   -0.42459  -0.42174  -0.42044  -0.41967  -0.41497
 Alpha  occ. eigenvalues --   -0.41466  -0.40849  -0.40763  -0.40709  -0.40593
 Alpha  occ. eigenvalues --   -0.40401  -0.39846  -0.39567  -0.39058  -0.39004
 Alpha  occ. eigenvalues --   -0.38682  -0.37755  -0.37565  -0.37369  -0.36732
 Alpha  occ. eigenvalues --   -0.35897  -0.35706  -0.34965  -0.34718  -0.34045
 Alpha  occ. eigenvalues --   -0.33599  -0.33218  -0.32732  -0.32113  -0.31801
 Alpha  occ. eigenvalues --   -0.30893  -0.30351  -0.29844  -0.28724  -0.27780
 Alpha  occ. eigenvalues --   -0.27208  -0.26424  -0.25478  -0.25330  -0.24879
 Alpha  occ. eigenvalues --   -0.24615  -0.23922  -0.23576  -0.21222  -0.18728
 Alpha virt. eigenvalues --   -0.10905  -0.06656  -0.05957  -0.02501  -0.00194
 Alpha virt. eigenvalues --    0.00389   0.01065   0.02167   0.03258   0.03530
 Alpha virt. eigenvalues --    0.03731   0.04471   0.05203   0.05448   0.05611

 Mulliken charges:
               1
     1  O   -0.164355
     2  O   -0.089207
     3  O   -0.305834
     4  O   -0.195743
     5  O   -0.253126
     6  O   -0.175925
     7  N   -0.024840
     8  N   -0.233980
     9  N   -0.135938
    10  N   -0.353297
    11  C    0.139560
    12  C    0.352917
    13  C   -0.109987
    14  C   -0.217296
    15  C   -0.119906
    16  C    0.060359
    17  C   -0.169265
    18  C    0.093071
    19  C   -0.087981
    20  C   -0.097052
    21  C    0.073892
    22  C    0.164938
    23  C   -0.002492
    24  C    0.169725
    25  C    0.152853
    26  C   -0.155055
    27  C    0.074701
    28  C    0.132216
    29  C   -0.018242
    30  C    0.034726
    31  C    0.102714
    32  C    0.083102
    33  C   -0.053871
    34  C    0.133600
    35  C    0.073758
    36  C   -0.153135
    37  C    0.159868
    38  C    0.025621
    39  C   -0.225467
    40  C    0.180105
    41  C   -0.037767
    42  C    0.066666
    43  C    0.030636
    44  H   -0.029193
    45  H   -0.031357
    46  H   -0.062922
    47  H    0.053180
    48  H    0.104766
    49  H    0.017534
    50  H   -0.003839
    51  H   -0.003419
    52  H   -0.006344
    53  H   -0.007026
    54  H    0.056532
    55  H   -0.012312
    56  H    0.000764
    57  H    0.031758
    58  H    0.047772
    59  H    0.007779
    60  H    0.232193
    61  H    0.035951
    62  H    0.015690
    63  H    0.045318
    64  H    0.002828
    65  H    0.014340
    66  H    0.037100
    67  H    0.040587
    68  H    0.031402
    69  H   -0.072751
    70  H    0.038829
    71  H    0.051555
    72  H    0.141427
    73  H    0.028121
    74  H    0.029906
    75  H    0.047483
    76  H    0.023953
    77  H    0.162357
    78  H   -0.011277
    79  H    0.016050
 Sum of Mulliken charges =  -0.00000

 Dipole moment (field-independent basis, Debye):
    X=              0.4009    Y=              1.3823    Z=              2.8403  Tot=              3.1842
 Quadrupole moment (field-independent basis, Debye-Ang):
   XX=           -224.2194   YY=           -247.4098   ZZ=           -260.5698
   XY=             -0.6854   XZ=             32.9099   YZ=              2.9463

 Normal termination of Gaussian 16 at Sat Sep 21 15:30:51 2019.
