 Gaussian 16, Revision A.03,
 Gaussian 16:  ES64L-G16RevA.03 25-Dec-2016

 --------------------------
 # td=(NStates=1) B3LYP/SVP
 --------------------------

 --
 TD
 --
 Symbolic Z-matrix:
 Charge =  0 Multiplicity = 1

                         Standard orientation:
 ---------------------------------------------------------------------
 Center     Atomic      Atomic             Coordinates (Angstroms)
 Number     Number       Type             X           Y           Z
 ---------------------------------------------------------------------
      1          8           0        5.308700   -0.000723   -3.345502
      2          8           0       -2.856155   -3.011056    3.129634
      3          8           0       -3.351483   -0.748443    3.062267
      4          8           0       -2.073082    7.150419    1.362035
      5          8           0       -1.072393    6.955083   -0.675257
      6          8           0       -1.457752   -4.004569    0.201663
      7          7           0        2.272793    1.190571    0.544880
      8          7           0        4.405489   -0.453732   -1.176581
      9          7           0       -1.905921    0.695058   -0.426874
     10          7           0       -2.396183   -2.036156   -0.495766
     11          6           0        4.848572   -0.950359    0.139366
     12          6           0        4.388433   -0.023781    1.258981
     13          6           0        2.865601    0.202910    1.345725
     14          6           0        1.964181   -0.434118    2.155156
     15          6           0        0.720067    0.114053    1.725917
     16          6           0        0.904380    1.130787    0.860337
     17          6           0        6.296604   -1.145304   -0.117505
     18          6           0       -0.616239   -0.075462    2.511073
     19          6           0        6.697052   -0.849919   -1.358226
     20          6           0       -0.014410    2.102322    0.212877
     21          6           0       -1.156527    1.928297   -0.360698
     22          6           0        5.461331   -0.328851   -2.151480
     23          6           0       -2.222847    2.858652   -0.926089
     24          6           0        2.206003   -1.390803    3.215974
     25          6           0        7.145359   -1.573610    1.003411
     26          6           0       -3.344344    2.153282   -1.394331
     27          6           0       -1.093497   -1.469093    2.591522
     28          6           0       -2.999822    0.737964   -1.063549
     29          6           0       -1.832927    4.293728   -1.054791
     30          6           0        8.032683   -0.718372   -1.995119
     31          6           0       -2.229999    5.028525    0.219040
     32          6           0       -4.519554    2.615981   -1.976917
     33          6           0       -3.862789   -0.371759   -1.374191
     34          6           0       -2.552622   -1.721917    2.923979
     35          6           0       -3.531426   -1.691494   -1.090621
     36          6           0        9.290727   -0.679491   -1.371104
     37          6           0       -1.703291    6.554572    0.251367
     38          6           0       -4.387083   -3.010859   -1.323580
     39          6           0       -3.534376   -4.085849   -1.057263
     40          6           0       -2.384189   -3.469040   -0.315812
     41          6           0       -5.614700   -2.798419   -1.896549
     42          6           0       -3.745628   -5.515380   -1.083328
     43          6           0       -6.336772   -3.824918   -2.461976
     44          1           0        4.687122   -1.882490    0.096179
     45          1           0        4.835096    0.965422    1.056877
     46          1           0        4.626159   -0.313530    2.232985
     47          1           0        2.583570    1.764753   -0.206320
     48          1           0        3.384817   -0.603475   -1.439505
     49          1           0       -0.315297    0.288922    3.553014
     50          1           0       -1.246236    0.502743    2.097535
     51          1           0        0.277105    2.999744    0.018452
     52          1           0        3.196928   -1.185511    3.369813
     53          1           0        1.820672   -1.077296    4.138493
     54          1           0        2.013847   -2.401781    2.746789
     55          1           0        6.655101   -2.574289    1.608844
     56          1           0        7.257288   -0.749821    1.912875
     57          1           0        8.276484   -1.851940    0.719929
     58          1           0       -0.912628   -2.048834    1.676549
     59          1           0       -0.491294   -1.946576    3.353092
     60          1           0       -1.394340   -0.281453   -0.468585
     61          1           0       -2.231507    5.139479   -1.991545
     62          1           0       -0.734812    4.572703   -1.046218
     63          1           0        7.922733   -0.986934   -3.131635
     64          1           0       -2.065885    4.312195    1.335667
     65          1           0       -3.348739    5.112240    0.217002
     66          1           0       -4.640774    3.700677   -1.971949
     67          1           0       -5.701597    1.975595   -1.409971
     68          1           0       -4.289575    2.352189   -3.278677
     69          1           0       -4.745867    0.108256   -1.880054
     70          1           0        9.259175   -0.374747   -0.292718
     71          1           0       10.088732   -0.661950   -2.099612
     72          1           0       -3.689313   -3.172094    3.315272
     73          1           0       -6.153472   -1.791920   -1.858687
     74          1           0       -4.690979   -5.804033   -0.562573
     75          1           0       -3.968462   -5.971823   -2.265171
     76          1           0       -2.805138   -5.964049   -0.609237
     77          1           0       -1.778221    8.146452    1.278042
     78          1           0       -7.353188   -3.451926   -2.723360
     79          1           0       -5.771140   -4.894405   -2.739479
 ---------------------------------------------------------------------

 SCF Done:  E(RB3LYP) =  -1947.68739558     A.U. after   15 cycles

 Excitation energies and oscillator strengths:

 Excited State   1:      Singlet-A      2.2121 eV  560.48 nm  f=0.3006  <S**2>=0.000
     155 ->156         0.69352
 This state for optimization and/or second-order correction.
 Total Energy, E(TD-HF/TD-DFT) =  -1947.60610200
 Copying the excited state density for this state as the 1-particle RhoCI density.

 The electronic state is 1-A.
 Alpha  occ. eigenvalues --  -19.21242 -19.16950 -19.14377 -19.10562 -19.10530
 Alpha  occ. eigenvalues --  -19.10176 -14.37409 -14.36461 -14.34966 -14.28333
 Alpha  occ. eigenvalues --  -10.33558 -10.30780 -10.29347 -10.26312 -10.24755
 Alpha  occ. eigenvalues --  -10.24579 -10.24249 -10.23690 -10.23075 -10.22898
 Alpha  occ. eigenvalues --  -10.22790 -10.22676 -10.22617 -10.22606 -10.22067
 Alpha  occ. eigenvalues --  -10.21845 -10.21729 -10.21582 -10.21366 -10.21116
 Alpha  occ. eigenvalues --  -10.20742 -10.20722 -10.20593 -10.20335 -10.20148
 Alpha  occ. eigenvalues --  -10.20010 -10.19714 -10.18668 -10.18484 -10.17956
 Alpha  occ. eigenvalues --  -10.17787 -10.17358 -10.16995  -1.11928  -1.09111
 Alpha  occ. eigenvalues --   -1.03631  -1.02936  -1.00368  -0.99274  -0.97272
 Alpha  occ. eigenvalues --   -0.96954  -0.93180  -0.90453  -0.83339  -0.82343
 Alpha  occ. eigenvalues --   -0.81961  -0.81434  -0.80644  -0.79453  -0.77676
 Alpha  occ. eigenvalues --   -0.77309  -0.76662  -0.75351  -0.74219  -0.73222
 Alpha  occ. eigenvalues --   -0.71132  -0.70405  -0.69090  -0.68248  -0.68080
 Alpha  occ. eigenvalues --   -0.66943  -0.66340  -0.64616  -0.61382  -0.60294
 Alpha  occ. eigenvalues --   -0.60272  -0.60150  -0.57750  -0.57518  -0.56875
 Alpha  occ. eigenvalues --   -0.55994  -0.54772  -0.54497  -0.53522  -0.52388
 Alpha  occ. eigenvalues --   -0.52168  -0.50775  -0.50549  -0.50223  -0.49796
 Alpha  occ. eigenvalues --   -0.49325  -0.48680  -0.48092  -0.47752  -0.47535
 Alpha  occ. eigenvalues --   -0.47210  -0.46906  -0.46604  -0.46093  -0.45735
 Alpha  occ. eigenvalues --   -0.45513  -0.45376  -0.44597  -0.44390  -0.43405
 Alpha  occ. eigenvalues --   -0.42861  -0.42470  -0.42205  -0.41882  -0.41659
 Alpha  occ. eigenvalues --   -0.41510  -0.41197  -0.41060  -0.40825  -0.40471
 Alpha  occ. eigenvalues --   -0.40220  -0.39923  -0.39738  -0.39362  -0.39240
 Alpha  occ. eigenvalues --   -0.39077  -0.38826  -0.38572  -0.38255  -0.38150
 Alpha  occ. eigenvalues --   -0.37907  -0.37843  -0.37485  -0.37207  -0.36495
 Alpha  occ. eigenvalues --   -0.36197  -0.35172  -0.34743  -0.34736  -0.34600
 Alpha  occ. eigenvalues --   -0.34348  -0.33241  -0.32453  -0.32242  -0.31376
 Alpha  occ. eigenvalues --   -0.30528  -0.29940  -0.29571  -0.29143  -0.26277
 Alpha  occ. eigenvalues --   -0.26133  -0.25383  -0.25315  -0.25184  -0.24430
 Alpha  occ. eigenvalues --   -0.24305  -0.23923  -0.23073  -0.21735  -0.19455
 Alpha virt. eigenvalues --   -0.10032  -0.06916  -0.06044  -0.01108  -0.00534
 Alpha virt. eigenvalues --   -0.00361   0.00111   0.01083   0.01571   0.01882
 Alpha virt. eigenvalues --    0.02856   0.03145   0.03749   0.04333   0.04559

 Mulliken charges:
               1
     1  O   -0.242728
     2  O   -0.103668
     3  O   -0.287006
     4  O   -0.170392
     5  O   -0.203935
     6  O   -0.173871
     7  N   -0.094027
     8  N   -0.310144
     9  N   -0.049839
    10  N   -0.307267
    11  C    0.269544
    12  C    0.303523
    13  C   -0.137690
    14  C   -0.185357
    15  C   -0.175472
    16  C    0.067535
    17  C   -0.183621
    18  C    0.255707
    19  C   -0.073550
    20  C    0.023858
    21  C    0.107047
    22  C    0.204026
    23  C    0.004983
    24  C    0.256593
    25  C   -0.084243
    26  C   -0.034882
    27  C   -0.006271
    28  C   -0.022138
    29  C   -0.022793
    30  C   -0.053810
    31  C   -0.156554
    32  C   -0.089228
    33  C   -0.091569
    34  C    0.145970
    35  C    0.111941
    36  C   -0.017815
    37  C    0.153747
    38  C    0.108042
    39  C   -0.165694
    40  C    0.145338
    41  C   -0.106514
    42  C   -0.012324
    43  C   -0.051873
    44  H   -0.064207
    45  H   -0.012084
    46  H   -0.028813
    47  H    0.111713
    48  H    0.148912
    49  H    0.008206
    50  H   -0.082550
    51  H   -0.120390
    52  H   -0.064552
    53  H   -0.003071
    54  H    0.063531
    55  H    0.044034
    56  H    0.061330
    57  H    0.058379
    58  H    0.055802
    59  H    0.008111
    60  H    0.189494
    61  H    0.056858
    62  H    0.040386
    63  H    0.044725
    64  H    0.076007
    65  H    0.037339
    66  H    0.033393
    67  H    0.073213
    68  H    0.068166
    69  H   -0.025904
    70  H    0.045476
    71  H    0.038694
    72  H    0.124273
    73  H    0.023550
    74  H    0.040508
    75  H    0.046170
    76  H    0.053261
    77  H    0.213461
    78  H    0.028858
    79  H    0.064144
 Sum of Mulliken charges =  -0.00000

 Dipole moment (field-independent basis, Debye):
    X=             -0.4267    Y=              3.2166    Z=              3.0274  Tot=              4.4378
 Quadrupole moment (field-independent basis, Debye-Ang):
   XX=           -226.3574   YY=           -229.6450   ZZ=           -264.9477
   XY=             -8.6884   XZ=             34.0602   YZ=              5.9093

 Normal termination of Gaussian 16 at Mon Sep 23 05:01:24 2019.
