 Gaussian 16, Revision A.03,
 Gaussian 16:  ES64L-G16RevA.03 25-Dec-2016

 --------------------------
 # td=(NStates=1) B3LYP/SVP
 --------------------------

 --
 TD
 --
 Symbolic Z-matrix:
 Charge =  0 Multiplicity = 1

                         Standard orientation:
 ---------------------------------------------------------------------
 Center     Atomic      Atomic             Coordinates (Angstroms)
 Number     Number       Type             X           Y           Z
 ---------------------------------------------------------------------
      1          8           0        5.397499    0.189932   -3.303594
      2          8           0       -3.136460   -2.914864    3.120103
      3          8           0       -3.340121   -0.631514    3.049046
      4          8           0       -1.395228    7.247554    1.558303
      5          8           0       -0.775111    7.036627   -0.655411
      6          8           0       -1.738403   -3.895136    0.005548
      7          7           0        2.373421    0.802169    0.634323
      8          7           0        4.348326   -0.584312   -1.320789
      9          7           0       -1.829508    0.679523   -0.427340
     10          7           0       -2.722787   -1.910333   -0.464963
     11          6           0        4.748159   -1.248535   -0.110485
     12          6           0        4.429114   -0.465737    1.200785
     13          6           0        2.977385   -0.225261    1.365519
     14          6           0        1.952854   -0.713603    2.165180
     15          6           0        0.709755   -0.240424    1.826178
     16          6           0        1.015859    0.889207    0.929479
     17          6           0        6.193075   -1.525441   -0.237264
     18          6           0       -0.526479   -0.287440    2.489242
     19          6           0        6.666929   -0.900384   -1.412712
     20          6           0        0.261624    1.829195    0.206369
     21          6           0       -1.064257    1.778881   -0.286214
     22          6           0        5.412880   -0.365491   -2.171222
     23          6           0       -1.830070    2.884776   -0.822724
     24          6           0        2.220214   -1.851412    3.109495
     25          6           0        6.958141   -2.053270    0.871721
     26          6           0       -3.037984    2.345567   -1.277947
     27          6           0       -1.185045   -1.727783    2.509447
     28          6           0       -3.071558    0.943438   -0.977501
     29          6           0       -1.477580    4.299990   -0.830021
     30          6           0        8.045115   -0.622323   -1.923326
     31          6           0       -1.611333    5.107029    0.485997
     32          6           0       -4.275097    3.145211   -1.784088
     33          6           0       -3.992622    0.006876   -1.238274
     34          6           0       -2.637486   -1.682678    3.010200
     35          6           0       -3.802935   -1.404461   -1.015249
     36          6           0        9.152065   -0.789064   -1.393559
     37          6           0       -1.171568    6.551444    0.404935
     38          6           0       -4.638486   -2.522346   -1.497871
     39          6           0       -3.949792   -3.717906   -1.195677
     40          6           0       -2.672603   -3.274250   -0.463829
     41          6           0       -5.869973   -2.341008   -2.127932
     42          6           0       -4.327147   -5.237410   -1.294176
     43          6           0       -6.715044   -3.190368   -2.567666
     44          1           0        4.251029   -2.204625    0.165675
     45          1           0        4.932025    0.712336    1.115755
     46          1           0        4.630536   -1.307032    1.948278
     47          1           0        2.916632    1.456606    0.116455
     48          1           0        3.518657   -0.511473   -1.626907
     49          1           0       -0.238343   -0.013119    3.530132
     50          1           0       -1.266644    0.454790    2.081744
     51          1           0        0.661676    2.876829    0.092752
     52          1           0        3.195953   -2.197044    3.429934
     53          1           0        1.513194   -1.700761    3.822627
     54          1           0        1.962461   -2.772049    2.551693
     55          1           0        6.354130   -2.693542    1.669782
     56          1           0        7.389999   -1.127196    1.618348
     57          1           0        7.915865   -2.692255    0.591735
     58          1           0       -1.220565   -1.998437    1.322604
     59          1           0       -0.740829   -2.463113    3.099137
     60          1           0       -1.719463   -0.494669   -0.254448
     61          1           0       -2.199362    4.624996   -1.538720
     62          1           0       -0.478975    4.512855   -1.150806
     63          1           0        8.081676   -0.272110   -2.899716
     64          1           0       -1.261427    4.469945    1.319497
     65          1           0       -2.542759    4.967079    0.854604
     66          1           0       -4.048777    4.148507   -1.849841
     67          1           0       -5.015318    3.079470   -1.062279
     68          1           0       -4.526638    2.697972   -2.711082
     69          1           0       -4.846153    0.309872   -1.634818
     70          1           0        9.392836   -1.014757   -0.350962
     71          1           0       10.159565   -0.475371   -1.696174
     72          1           0       -4.134545   -2.689715    3.130917
     73          1           0       -6.172523   -1.332667   -2.338575
     74          1           0       -5.395029   -5.295298   -0.996430
     75          1           0       -4.531666   -5.496676   -2.290362
     76          1           0       -3.730674   -5.864019   -0.706417
     77          1           0       -1.233244    8.136213    1.517260
     78          1           0       -7.819941   -3.152393   -2.908375
     79          1           0       -6.353593   -4.219384   -2.784450
 ---------------------------------------------------------------------

 SCF Done:  E(RB3LYP) =  -1947.82794456     A.U. after   17 cycles

 Excitation energies and oscillator strengths:

 Excited State   1:      Singlet-A      1.9187 eV  646.19 nm  f=0.4675  <S**2>=0.000
     154 ->156         0.10620
     155 ->156         0.70061
     155 <-156        -0.13487
 This state for optimization and/or second-order correction.
 Total Energy, E(TD-HF/TD-DFT) =  -1947.75743344
 Copying the excited state density for this state as the 1-particle RhoCI density.

 The electronic state is 1-A.
 Alpha  occ. eigenvalues --  -19.18870 -19.18436 -19.13604 -19.11183 -19.10643
 Alpha  occ. eigenvalues --  -19.10322 -14.38176 -14.35702 -14.35243 -14.29212
 Alpha  occ. eigenvalues --  -10.33775 -10.30918 -10.29513 -10.26752 -10.25671
 Alpha  occ. eigenvalues --  -10.24396 -10.23826 -10.23727 -10.23711 -10.23404
 Alpha  occ. eigenvalues --  -10.23320 -10.22927 -10.22727 -10.21997 -10.21704
 Alpha  occ. eigenvalues --  -10.20872 -10.20596 -10.20407 -10.20313 -10.20181
 Alpha  occ. eigenvalues --  -10.19598 -10.19324 -10.19318 -10.19231 -10.19210
 Alpha  occ. eigenvalues --  -10.19040 -10.18924 -10.18916 -10.18890 -10.18791
 Alpha  occ. eigenvalues --  -10.18674 -10.18414 -10.18290  -1.10133  -1.08424
 Alpha  occ. eigenvalues --   -1.01965  -1.01359  -1.01159  -0.98331  -0.97419
 Alpha  occ. eigenvalues --   -0.97078  -0.94930  -0.93044  -0.83508  -0.82905
 Alpha  occ. eigenvalues --   -0.82741  -0.81742  -0.81451  -0.80447  -0.78738
 Alpha  occ. eigenvalues --   -0.77792  -0.76211  -0.75953  -0.74951  -0.72992
 Alpha  occ. eigenvalues --   -0.72043  -0.71676  -0.70546  -0.69610  -0.69008
 Alpha  occ. eigenvalues --   -0.67882  -0.66938  -0.64531  -0.63267  -0.62155
 Alpha  occ. eigenvalues --   -0.60690  -0.59530  -0.58725  -0.58360  -0.57101
 Alpha  occ. eigenvalues --   -0.56225  -0.55680  -0.55380  -0.54382  -0.53763
 Alpha  occ. eigenvalues --   -0.53081  -0.52566  -0.52213  -0.51067  -0.49634
 Alpha  occ. eigenvalues --   -0.48903  -0.48800  -0.48322  -0.48169  -0.47824
 Alpha  occ. eigenvalues --   -0.47547  -0.47055  -0.46773  -0.46210  -0.45915
 Alpha  occ. eigenvalues --   -0.45682  -0.45264  -0.45114  -0.44841  -0.44497
 Alpha  occ. eigenvalues --   -0.43631  -0.43529  -0.43285  -0.43081  -0.42949
 Alpha  occ. eigenvalues --   -0.42614  -0.42290  -0.42110  -0.41734  -0.41154
 Alpha  occ. eigenvalues --   -0.41043  -0.40678  -0.40421  -0.40315  -0.39802
 Alpha  occ. eigenvalues --   -0.39525  -0.39283  -0.38867  -0.38639  -0.38375
 Alpha  occ. eigenvalues --   -0.38197  -0.38114  -0.37468  -0.37314  -0.36900
 Alpha  occ. eigenvalues --   -0.36621  -0.36432  -0.35473  -0.34489  -0.34398
 Alpha  occ. eigenvalues --   -0.34097  -0.33794  -0.33269  -0.33050  -0.32520
 Alpha  occ. eigenvalues --   -0.30941  -0.30468  -0.29156  -0.28730  -0.27205
 Alpha  occ. eigenvalues --   -0.27135  -0.26425  -0.25490  -0.25016  -0.24904
 Alpha  occ. eigenvalues --   -0.24669  -0.24147  -0.23859  -0.22129  -0.18531
 Alpha virt. eigenvalues --   -0.11268  -0.06880  -0.06347  -0.01451  -0.00804
 Alpha virt. eigenvalues --   -0.00136   0.00230   0.01346   0.02206   0.03491
 Alpha virt. eigenvalues --    0.04233   0.04474   0.05215   0.05287   0.05942

 Mulliken charges:
               1
     1  O   -0.261871
     2  O   -0.176158
     3  O   -0.295798
     4  O   -0.156555
     5  O   -0.233654
     6  O   -0.197224
     7  N   -0.087026
     8  N   -0.084082
     9  N   -0.160928
    10  N   -0.279879
    11  C    0.090383
    12  C    0.140038
    13  C   -0.073382
    14  C   -0.142898
    15  C   -0.067911
    16  C    0.096931
    17  C   -0.085677
    18  C    0.059165
    19  C   -0.070578
    20  C   -0.084659
    21  C    0.041455
    22  C    0.160690
    23  C   -0.105070
    24  C    0.134652
    25  C   -0.063109
    26  C   -0.178055
    27  C   -0.052155
    28  C    0.124747
    29  C    0.145098
    30  C    0.104368
    31  C    0.034855
    32  C    0.210248
    33  C   -0.040440
    34  C    0.156695
    35  C    0.105891
    36  C   -0.062409
    37  C    0.192118
    38  C    0.081148
    39  C   -0.239629
    40  C    0.138696
    41  C   -0.006138
    42  C    0.172149
    43  C   -0.088744
    44  H    0.011730
    45  H    0.038588
    46  H   -0.001485
    47  H    0.102379
    48  H    0.057721
    49  H    0.016624
    50  H    0.039300
    51  H   -0.000314
    52  H    0.004907
    53  H   -0.013091
    54  H    0.027333
    55  H    0.036421
    56  H    0.065785
    57  H    0.069876
    58  H    0.122626
    59  H    0.005217
    60  H    0.224416
    61  H   -0.002403
    62  H    0.007528
    63  H   -0.018052
    64  H    0.017538
    65  H   -0.019985
    66  H   -0.023110
    67  H    0.011855
    68  H    0.020497
    69  H   -0.109543
    70  H   -0.009284
    71  H    0.015751
    72  H    0.196896
    73  H   -0.023782
    74  H    0.004568
    75  H    0.007154
    76  H    0.024911
    77  H    0.152500
    78  H    0.041873
    79  H    0.001757
 Sum of Mulliken charges =  -0.00000

 Dipole moment (field-independent basis, Debye):
    X=              0.1267    Y=              1.1759    Z=              3.9437  Tot=              4.1172
 Quadrupole moment (field-independent basis, Debye-Ang):
   XX=           -217.6833   YY=           -241.5235   ZZ=           -267.5446
   XY=             -9.0111   XZ=             35.9223   YZ=              9.6007

 Normal termination of Gaussian 16 at Sat Sep 21 18:31:10 2019.
