 Gaussian 16, Revision A.03,
 Gaussian 16:  ES64L-G16RevA.03 25-Dec-2016

 --------------------------
 # td=(NStates=1) B3LYP/SVP
 --------------------------

 --
 TD
 --
 Symbolic Z-matrix:
 Charge =  0 Multiplicity = 1

                         Standard orientation:
 ---------------------------------------------------------------------
 Center     Atomic      Atomic             Coordinates (Angstroms)
 Number     Number       Type             X           Y           Z
 ---------------------------------------------------------------------
      1          8           0       -3.444074   -1.114706   -2.986285
      2          8           0        3.009656    3.016839    3.264574
      3          8           0        3.637862    1.096594    4.398447
      4          8           0        7.861662   -1.635139   -0.733067
      5          8           0        6.773076   -3.006334   -2.185125
      6          8           0       -2.640556    1.471975    1.510308
      7          7           0       -0.273169   -2.366708    0.754925
      8          7           0       -2.764632   -1.131040   -0.718173
      9          7           0        1.257191    0.170746   -0.652571
     10          7           0       -1.021967    1.479802   -0.039469
     11          6           0       -3.368490   -1.258386    0.543179
     12          6           0       -2.737820   -2.321820    1.467319
     13          6           0       -1.338144   -2.101987    1.621667
     14          6           0       -0.660713   -1.510876    2.709347
     15          6           0        0.753759   -1.397515    2.457294
     16          6           0        0.927915   -1.997022    1.204066
     17          6           0       -4.847086   -1.796479    0.161697
     18          6           0        1.798902   -0.565493    3.260270
     19          6           0       -4.856690   -1.858880   -1.238444
     20          6           0        2.114978   -1.890686    0.278368
     21          6           0        2.148457   -0.872909   -0.642382
     22          6           0       -3.584579   -1.341564   -1.835036
     23          6           0        3.050375   -0.568887   -1.736655
     24          6           0       -1.360602   -0.707396    3.843273
     25          6           0       -5.864123   -2.235887    1.251446
     26          6           0        2.594159    0.578442   -2.377475
     27          6           0        1.994296    0.895650    2.729722
     28          6           0        1.492098    1.045733   -1.661341
     29          6           0        4.303453   -1.360099   -2.129970
     30          6           0       -5.981526   -2.348822   -2.028949
     31          6           0        5.542112   -0.997968   -1.291603
     32          6           0        3.186787    1.329938   -3.520346
     33          6           0        0.563946    2.116492   -1.828466
     34          6           0        2.993893    1.696177    3.516655
     35          6           0       -0.488841    2.353161   -1.010414
     36          6           0       -7.024167   -3.248963   -1.851957
     37          6           0        6.811475   -1.995609   -1.504907
     38          6           0       -1.411430    3.520327   -1.143492
     39          6           0       -2.326724    3.407209   -0.031477
     40          6           0       -2.080667    2.085428    0.528476
     41          6           0       -1.153325    4.626886   -2.018998
     42          6           0       -3.483966    4.215636    0.343700
     43          6           0       -1.792427    5.836548   -1.947038
     44          1           0       -3.394160   -0.319278    1.121503
     45          1           0       -2.838386   -3.261613    1.082966
     46          1           0       -3.229758   -2.272661    2.463565
     47          1           0       -0.342794   -2.894887   -0.029737
     48          1           0       -1.961272   -0.361931   -0.927550
     49          1           0        1.748049   -0.471803    4.286824
     50          1           0        2.622645   -1.229994    2.960812
     51          1           0        2.932229   -2.671997    0.259261
     52          1           0       -2.081847   -1.367006    4.353014
     53          1           0       -0.769847   -0.182711    4.521756
     54          1           0       -1.833191    0.219309    3.253865
     55          1           0       -5.743095   -1.726557    2.284459
     56          1           0       -5.893844   -3.256780    1.479069
     57          1           0       -6.766321   -1.859089    0.688164
     58          1           0        2.468704    1.124808    1.637982
     59          1           0        1.069168    1.671750    2.633909
     60          1           0        0.417560    0.184715   -0.021243
     61          1           0        4.370162   -1.036487   -3.242348
     62          1           0        4.079479   -2.506923   -2.039464
     63          1           0       -6.004201   -2.001468   -3.001940
     64          1           0        5.281073   -0.860916   -0.212278
     65          1           0        5.897844    0.037206   -1.570620
     66          1           0        3.894232    0.643598   -4.196827
     67          1           0        3.812183    2.279831   -3.107738
     68          1           0        2.261478    1.625298   -4.132289
     69          1           0        0.785907    2.893843   -2.504063
     70          1           0       -7.051540   -3.813340   -1.062394
     71          1           0       -7.679045   -3.534802   -2.622432
     72          1           0        3.703177    3.356665    4.012808
     73          1           0       -0.407546    4.352240   -2.784571
     74          1           0       -3.956117    4.420388   -0.651786
     75          1           0       -4.279084    3.598557    1.128406
     76          1           0       -3.065696    5.228521    0.568481
     77          1           0        8.677107   -2.244637   -0.755199
     78          1           0       -1.499257    6.642402   -2.819426
     79          1           0       -2.678685    5.910030   -1.323916
 ---------------------------------------------------------------------

 SCF Done:  E(RB3LYP) =  -1947.86355657     A.U. after   20 cycles

 Excitation energies and oscillator strengths:

 Excited State   1:      Singlet-A      0.9706 eV 1277.36 nm  f=0.0060  <S**2>=0.000
     155 ->156         0.70329
 This state for optimization and/or second-order correction.
 Total Energy, E(TD-HF/TD-DFT) =  -1947.82788659
 Copying the excited state density for this state as the 1-particle RhoCI density.

 The electronic state is 1-A.
 Alpha  occ. eigenvalues --  -19.20135 -19.19839 -19.14336 -19.11754 -19.10344
 Alpha  occ. eigenvalues --  -19.08817 -14.37993 -14.36593 -14.32941 -14.29724
 Alpha  occ. eigenvalues --  -10.34480 -10.31549 -10.27111 -10.26635 -10.26593
 Alpha  occ. eigenvalues --  -10.25800 -10.24482 -10.24442 -10.24198 -10.23899
 Alpha  occ. eigenvalues --  -10.23662 -10.23653 -10.22810 -10.21745 -10.21737
 Alpha  occ. eigenvalues --  -10.21510 -10.21492 -10.21459 -10.21423 -10.21385
 Alpha  occ. eigenvalues --  -10.21074 -10.20844 -10.20833 -10.20018 -10.19886
 Alpha  occ. eigenvalues --  -10.19472 -10.18204 -10.18092 -10.17980 -10.17646
 Alpha  occ. eigenvalues --  -10.16680 -10.16545 -10.16517  -1.09887  -1.08567
 Alpha  occ. eigenvalues --   -1.02428  -1.01490  -1.01300  -0.99438  -0.98909
 Alpha  occ. eigenvalues --   -0.97849  -0.91555  -0.91366  -0.84086  -0.83300
 Alpha  occ. eigenvalues --   -0.81180  -0.79467  -0.79260  -0.78778  -0.78577
 Alpha  occ. eigenvalues --   -0.77266  -0.75758  -0.75157  -0.73641  -0.72905
 Alpha  occ. eigenvalues --   -0.70563  -0.69747  -0.69270  -0.68908  -0.67266
 Alpha  occ. eigenvalues --   -0.67087  -0.66056  -0.63290  -0.62432  -0.61456
 Alpha  occ. eigenvalues --   -0.59761  -0.59559  -0.58035  -0.57422  -0.56762
 Alpha  occ. eigenvalues --   -0.55651  -0.54675  -0.54490  -0.53700  -0.53451
 Alpha  occ. eigenvalues --   -0.51850  -0.50970  -0.50849  -0.50214  -0.49284
 Alpha  occ. eigenvalues --   -0.48706  -0.48689  -0.48302  -0.48142  -0.47460
 Alpha  occ. eigenvalues --   -0.47401  -0.47032  -0.46674  -0.45772  -0.45482
 Alpha  occ. eigenvalues --   -0.44946  -0.44388  -0.44320  -0.44100  -0.43399
 Alpha  occ. eigenvalues --   -0.43300  -0.43099  -0.42938  -0.42742  -0.42522
 Alpha  occ. eigenvalues --   -0.41655  -0.41567  -0.41495  -0.41132  -0.40888
 Alpha  occ. eigenvalues --   -0.40687  -0.40494  -0.39961  -0.39931  -0.39749
 Alpha  occ. eigenvalues --   -0.39646  -0.39221  -0.39095  -0.38683  -0.38232
 Alpha  occ. eigenvalues --   -0.38014  -0.37613  -0.37236  -0.36684  -0.36070
 Alpha  occ. eigenvalues --   -0.36045  -0.35452  -0.35379  -0.35109  -0.34336
 Alpha  occ. eigenvalues --   -0.33837  -0.33258  -0.32361  -0.31708  -0.31439
 Alpha  occ. eigenvalues --   -0.30494  -0.29616  -0.29065  -0.28602  -0.27701
 Alpha  occ. eigenvalues --   -0.27284  -0.26826  -0.25236  -0.24603  -0.23936
 Alpha  occ. eigenvalues --   -0.23241  -0.22541  -0.21996  -0.21664  -0.19480
 Alpha virt. eigenvalues --   -0.13506  -0.08502  -0.03699  -0.02171  -0.01474
 Alpha virt. eigenvalues --    0.00299   0.01202   0.01865   0.02182   0.02432
 Alpha virt. eigenvalues --    0.02789   0.03575   0.04037   0.04648   0.05146

 Mulliken charges:
               1
     1  O   -0.184775
     2  O   -0.220374
     3  O   -0.276768
     4  O   -0.217372
     5  O   -0.218349
     6  O   -0.278713
     7  N   -0.006658
     8  N   -0.262220
     9  N   -0.088712
    10  N   -0.296751
    11  C    0.034947
    12  C    0.329880
    13  C   -0.104146
    14  C   -0.143406
    15  C   -0.098637
    16  C   -0.076417
    17  C   -0.147954
    18  C    0.220342
    19  C   -0.063746
    20  C   -0.109560
    21  C    0.112184
    22  C    0.149389
    23  C   -0.093836
    24  C    0.053708
    25  C    0.056148
    26  C   -0.104962
    27  C   -0.104611
    28  C    0.119430
    29  C    0.066083
    30  C   -0.029339
    31  C   -0.036058
    32  C   -0.005158
    33  C   -0.084789
    34  C    0.142956
    35  C    0.116306
    36  C    0.027349
    37  C    0.172769
    38  C    0.017110
    39  C   -0.177532
    40  C    0.161202
    41  C   -0.025433
    42  C    0.031013
    43  C   -0.044158
    44  H    0.057464
    45  H   -0.067853
    46  H   -0.010437
    47  H    0.072059
    48  H    0.172484
    49  H   -0.002419
    50  H    0.006342
    51  H    0.031677
    52  H    0.010812
    53  H   -0.023510
    54  H    0.068254
    55  H    0.034765
    56  H    0.029659
    57  H    0.054326
    58  H    0.044680
    59  H    0.069942
    60  H    0.199514
    61  H    0.032392
    62  H    0.050503
    63  H   -0.024298
    64  H    0.053466
    65  H    0.037975
    66  H    0.050436
    67  H    0.072349
    68  H    0.056221
    69  H   -0.043325
    70  H   -0.047814
    71  H    0.008247
    72  H    0.224625
    73  H    0.001489
    74  H    0.046680
    75  H    0.090512
    76  H    0.041601
    77  H    0.218752
    78  H    0.057571
    79  H    0.014476
 Sum of Mulliken charges =  -0.00000

 Dipole moment (field-independent basis, Debye):
    X=              5.8368    Y=              2.8791    Z=             -1.1976  Tot=              6.6175
 Quadrupole moment (field-independent basis, Debye-Ang):
   XX=           -231.1235   YY=           -235.9724   ZZ=           -270.3315
   XY=              4.8148   XZ=            -19.4502   YZ=            -11.6754

 Normal termination of Gaussian 16 at Wed Jul 31 09:41:44 2019.
