 Gaussian 16, Revision A.03,
 Gaussian 16:  ES64L-G16RevA.03 25-Dec-2016

 --------------------------
 # td=(NStates=1) B3LYP/SVP
 --------------------------

 --
 TD
 --
 Symbolic Z-matrix:
 Charge =  0 Multiplicity = 1

                         Standard orientation:
 ---------------------------------------------------------------------
 Center     Atomic      Atomic             Coordinates (Angstroms)
 Number     Number       Type             X           Y           Z
 ---------------------------------------------------------------------
      1          8           0       -3.092486   -1.677304   -2.769999
      2          8           0        2.975745    3.121709    2.834416
      3          8           0        3.786777    1.540910    4.240335
      4          8           0        7.616071   -1.418429   -0.684094
      5          8           0        6.588147   -3.272924   -1.692918
      6          8           0       -2.723358    1.755185    1.413113
      7          7           0       -0.377344   -2.395795    1.124104
      8          7           0       -2.629001   -1.260532   -0.542763
      9          7           0        1.148901    0.054612   -0.655088
     10          7           0       -1.064278    1.551249   -0.207135
     11          6           0       -3.377788   -1.234487    0.624715
     12          6           0       -2.711285   -2.224302    1.777121
     13          6           0       -1.280482   -1.886837    1.931703
     14          6           0       -0.556428   -1.081611    2.923973
     15          6           0        0.757569   -0.998958    2.462606
     16          6           0        0.875531   -1.929736    1.305393
     17          6           0       -4.757917   -1.807612    0.345312
     18          6           0        1.806969   -0.251136    3.076840
     19          6           0       -4.697844   -2.107050   -1.040695
     20          6           0        2.007512   -1.986125    0.349059
     21          6           0        2.028747   -1.012537   -0.617822
     22          6           0       -3.369285   -1.650137   -1.597917
     23          6           0        2.952884   -0.847651   -1.767031
     24          6           0       -1.169453   -0.219301    3.957375
     25          6           0       -5.788594   -1.985127    1.256916
     26          6           0        2.495509    0.300764   -2.462675
     27          6           0        1.928756    1.188209    2.572176
     28          6           0        1.327972    0.798551   -1.836817
     29          6           0        4.243194   -1.644901   -1.983842
     30          6           0       -5.858080   -2.622375   -1.935959
     31          6           0        5.414300   -1.125504   -1.160749
     32          6           0        3.035692    0.914245   -3.744873
     33          6           0        0.579311    1.997637   -1.956418
     34          6           0        2.985873    1.898721    3.319015
     35          6           0       -0.486779    2.324231   -1.199420
     36          6           0       -6.774561   -3.478399   -1.620197
     37          6           0        6.534657   -2.039311   -1.235284
     38          6           0       -1.326095    3.542400   -1.292563
     39          6           0       -2.182809    3.460787   -0.237740
     40          6           0       -2.111870    2.161943    0.406470
     41          6           0       -1.210415    4.533298   -2.374950
     42          6           0       -3.267796    4.408925    0.197826
     43          6           0       -1.903184    5.678951   -2.606811
     44          1           0       -3.457975   -0.255418    0.965077
     45          1           0       -2.719822   -3.302108    1.570100
     46          1           0       -3.098360   -2.096875    2.721235
     47          1           0       -0.719216   -2.742166    0.137994
     48          1           0       -1.857173   -0.447738   -0.757606
     49          1           0        1.513074   -0.263118    4.196809
     50          1           0        2.869968   -0.812514    3.116642
     51          1           0        2.904454   -2.672237    0.375698
     52          1           0       -1.955162   -0.618690    4.618495
     53          1           0       -0.446023    0.035428    4.590798
     54          1           0       -1.718262    0.647675    3.276874
     55          1           0       -5.800862   -1.029317    2.079542
     56          1           0       -5.838803   -3.002343    1.750092
     57          1           0       -6.701013   -1.827425    0.592466
     58          1           0        2.064841    1.095088    1.350426
     59          1           0        0.995320    1.727445    2.754637
     60          1           0        0.285876    0.431431   -0.249873
     61          1           0        4.391936   -1.450561   -3.046640
     62          1           0        4.021403   -2.708120   -1.796418
     63          1           0       -5.603546   -2.335920   -3.117378
     64          1           0        5.147748   -0.898365   -0.022759
     65          1           0        5.690119   -0.122975   -1.614713
     66          1           0        3.947827    0.241561   -4.029474
     67          1           0        3.354519    1.906668   -3.557682
     68          1           0        2.334264    1.045955   -4.503751
     69          1           0        0.960549    2.477721   -3.012633
     70          1           0       -7.091125   -3.936063   -0.557953
     71          1           0       -7.431709   -3.830892   -2.485298
     72          1           0        3.704479    3.630458    3.274297
     73          1           0       -0.427698    4.131431   -2.926856
     74          1           0       -4.148850    4.629482   -0.503490
     75          1           0       -3.670580    4.087560    1.180753
     76          1           0       -2.900474    5.510735    0.380613
     77          1           0        8.274223   -1.988672   -0.823764
     78          1           0       -1.735761    6.239639   -3.614008
     79          1           0       -2.756161    6.009919   -2.081328
 ---------------------------------------------------------------------

 SCF Done:  E(RB3LYP) =  -1947.83209863     A.U. after   24 cycles

 Excitation energies and oscillator strengths:

 Excited State   1:      Singlet-A      0.3985 eV 3111.46 nm  f=0.0002  <S**2>=0.000
     155 ->156         0.70374
 This state for optimization and/or second-order correction.
 Total Energy, E(TD-HF/TD-DFT) =  -1947.81745490
 Copying the excited state density for this state as the 1-particle RhoCI density.

 The electronic state is 1-A.
 Alpha  occ. eigenvalues --  -19.20302 -19.18686 -19.14958 -19.12208 -19.12067
 Alpha  occ. eigenvalues --  -19.07955 -14.37748 -14.37464 -14.33922 -14.30886
 Alpha  occ. eigenvalues --  -10.35013 -10.31818 -10.27976 -10.27311 -10.26515
 Alpha  occ. eigenvalues --  -10.26278 -10.25857 -10.24774 -10.24543 -10.24413
 Alpha  occ. eigenvalues --  -10.23779 -10.23200 -10.23051 -10.22233 -10.21598
 Alpha  occ. eigenvalues --  -10.21194 -10.21137 -10.21130 -10.20715 -10.20646
 Alpha  occ. eigenvalues --  -10.20620 -10.20492 -10.20171 -10.20052 -10.19821
 Alpha  occ. eigenvalues --  -10.19450 -10.19042 -10.19029 -10.18761 -10.18641
 Alpha  occ. eigenvalues --  -10.16943 -10.16893 -10.16510  -1.12268  -1.09991
 Alpha  occ. eigenvalues --   -1.02204  -1.01421  -0.99921  -0.98900  -0.97706
 Alpha  occ. eigenvalues --   -0.97607  -0.93995  -0.93560  -0.84993  -0.83493
 Alpha  occ. eigenvalues --   -0.81347  -0.80864  -0.80769  -0.80418  -0.78862
 Alpha  occ. eigenvalues --   -0.76892  -0.76091  -0.75518  -0.75001  -0.74225
 Alpha  occ. eigenvalues --   -0.71592  -0.71072  -0.70174  -0.69220  -0.68124
 Alpha  occ. eigenvalues --   -0.66891  -0.66497  -0.64215  -0.62653  -0.62123
 Alpha  occ. eigenvalues --   -0.60902  -0.59317  -0.58286  -0.57762  -0.57284
 Alpha  occ. eigenvalues --   -0.55691  -0.54191  -0.53685  -0.53523  -0.52806
 Alpha  occ. eigenvalues --   -0.52511  -0.52202  -0.51367  -0.50706  -0.50370
 Alpha  occ. eigenvalues --   -0.49857  -0.49412  -0.48489  -0.48441  -0.48007
 Alpha  occ. eigenvalues --   -0.47736  -0.47540  -0.46741  -0.46500  -0.45695
 Alpha  occ. eigenvalues --   -0.45081  -0.45056  -0.44832  -0.44619  -0.44166
 Alpha  occ. eigenvalues --   -0.43707  -0.43473  -0.43212  -0.42786  -0.42453
 Alpha  occ. eigenvalues --   -0.42223  -0.41651  -0.41418  -0.41225  -0.40998
 Alpha  occ. eigenvalues --   -0.40700  -0.40601  -0.40290  -0.40109  -0.39910
 Alpha  occ. eigenvalues --   -0.39585  -0.39015  -0.38944  -0.38706  -0.38332
 Alpha  occ. eigenvalues --   -0.38038  -0.37651  -0.37471  -0.37240  -0.36899
 Alpha  occ. eigenvalues --   -0.36544  -0.35935  -0.35584  -0.35400  -0.34962
 Alpha  occ. eigenvalues --   -0.33239  -0.33174  -0.32491  -0.31498  -0.30972
 Alpha  occ. eigenvalues --   -0.30158  -0.29929  -0.29616  -0.29266  -0.28655
 Alpha  occ. eigenvalues --   -0.27984  -0.27474  -0.25983  -0.25302  -0.24208
 Alpha  occ. eigenvalues --   -0.23677  -0.22946  -0.22499  -0.22256  -0.18128
 Alpha virt. eigenvalues --   -0.13956  -0.08481  -0.05022  -0.03390  -0.02371
 Alpha virt. eigenvalues --   -0.00865   0.01125   0.01825   0.02618   0.02911
 Alpha virt. eigenvalues --    0.03492   0.03836   0.04320   0.05087   0.05261

 Mulliken charges:
               1
     1  O   -0.224837
     2  O   -0.153722
     3  O   -0.286844
     4  O   -0.111022
     5  O   -0.304820
     6  O   -0.236720
     7  N   -0.006999
     8  N   -0.218830
     9  N   -0.111549
    10  N   -0.341861
    11  C    0.122912
    12  C    0.256027
    13  C   -0.193503
    14  C   -0.108509
    15  C   -0.080175
    16  C   -0.025366
    17  C   -0.130709
    18  C   -0.006369
    19  C   -0.118231
    20  C   -0.092542
    21  C    0.118757
    22  C    0.107216
    23  C   -0.100341
    24  C    0.093345
    25  C   -0.011668
    26  C   -0.143554
    27  C   -0.042142
    28  C    0.033029
    29  C    0.121643
    30  C   -0.018180
    31  C   -0.025780
    32  C    0.131976
    33  C   -0.140261
    34  C    0.154503
    35  C    0.175696
    36  C   -0.092035
    37  C    0.176378
    38  C    0.021350
    39  C   -0.187014
    40  C    0.190080
    41  C    0.075133
    42  C    0.015948
    43  C   -0.017040
    44  H    0.010835
    45  H   -0.011983
    46  H   -0.036579
    47  H    0.152138
    48  H    0.188040
    49  H    0.024477
    50  H    0.022413
    51  H    0.027427
    52  H   -0.004325
    53  H   -0.046950
    54  H    0.081696
    55  H    0.047406
    56  H    0.059926
    57  H    0.050023
    58  H    0.077127
    59  H    0.050135
    60  H    0.166709
    61  H    0.018046
    62  H    0.043315
    63  H    0.055167
    64  H    0.091895
    65  H    0.056726
    66  H    0.029374
    67  H    0.015141
    68  H    0.028580
    69  H    0.046210
    70  H    0.044053
    71  H    0.032301
    72  H    0.182883
    73  H   -0.059817
    74  H    0.045219
    75  H    0.033048
    76  H    0.027925
    77  H    0.131607
    78  H    0.043329
    79  H    0.013106
 Sum of Mulliken charges =  -0.00000

 Dipole moment (field-independent basis, Debye):
    X=              3.7522    Y=              3.6141    Z=             -2.6515  Tot=              5.8456
 Quadrupole moment (field-independent basis, Debye-Ang):
   XX=           -235.9102   YY=           -245.8913   ZZ=           -267.8464
   XY=              8.2007   XZ=            -25.8840   YZ=            -16.7217

 Normal termination of Gaussian 16 at Wed Jul 24 16:15:42 2019.
