 Gaussian 16, Revision A.03,
 Gaussian 16:  ES64L-G16RevA.03 25-Dec-2016

 --------------------------
 # td=(NStates=1) B3LYP/SVP
 --------------------------

 --
 TD
 --
 Symbolic Z-matrix:
 Charge =  0 Multiplicity = 1

                         Standard orientation:
 ---------------------------------------------------------------------
 Center     Atomic      Atomic             Coordinates (Angstroms)
 Number     Number       Type             X           Y           Z
 ---------------------------------------------------------------------
      1          8           0       -3.334519   -1.441982   -2.885389
      2          8           0        2.918525    3.188640    3.132249
      3          8           0        3.675839    1.442800    4.390101
      4          8           0        7.817422   -1.622103   -0.812793
      5          8           0        6.700215   -2.946098   -2.117707
      6          8           0       -2.760094    1.609842    1.394873
      7          7           0       -0.138695   -2.441939    0.959780
      8          7           0       -2.711521   -1.255083   -0.652748
      9          7           0        1.111620    0.095256   -0.654979
     10          7           0       -1.031098    1.448412   -0.073876
     11          6           0       -3.361524   -1.322188    0.574357
     12          6           0       -2.524738   -2.372457    1.531694
     13          6           0       -1.156045   -2.013188    1.714161
     14          6           0       -0.546618   -1.110877    2.730984
     15          6           0        0.747029   -1.134888    2.447058
     16          6           0        1.019410   -1.878059    1.329251
     17          6           0       -4.721584   -1.989739    0.303527
     18          6           0        1.827481   -0.377202    3.203130
     19          6           0       -4.776186   -2.092218   -1.045747
     20          6           0        2.198835   -1.859392    0.366713
     21          6           0        2.152087   -0.902415   -0.569921
     22          6           0       -3.549825   -1.579722   -1.731775
     23          6           0        3.063149   -0.670496   -1.714327
     24          6           0       -1.318336   -0.346623    3.809237
     25          6           0       -5.691881   -2.235368    1.319864
     26          6           0        2.699912    0.520167   -2.345023
     27          6           0        1.928448    1.148285    2.772355
     28          6           0        1.380214    0.938531   -1.721458
     29          6           0        4.247373   -1.504745   -1.937266
     30          6           0       -5.871804   -2.565739   -1.875598
     31          6           0        5.484342   -1.082166   -1.162203
     32          6           0        3.270003    1.184566   -3.626362
     33          6           0        0.467372    2.071218   -1.969879
     34          6           0        2.919426    1.899461    3.599028
     35          6           0       -0.618579    2.211178   -1.151863
     36          6           0       -6.826007   -3.382221   -1.592799
     37          6           0        6.659823   -1.929745   -1.467513
     38          6           0       -1.440520    3.552269   -1.234090
     39          6           0       -2.475596    3.408405   -0.281681
     40          6           0       -2.116608    2.119638    0.486124
     41          6           0       -1.361361    4.574478   -2.327938
     42          6           0       -3.503531    4.281826    0.102356
     43          6           0       -2.096926    5.652610   -2.402697
     44          1           0       -3.450795   -0.449454    1.024741
     45          1           0       -2.528138   -3.327677    1.013210
     46          1           0       -2.978325   -2.290891    2.662786
     47          1           0       -0.261452   -2.996915   -0.032681
     48          1           0       -2.020172   -0.388040   -0.851959
     49          1           0        1.362686   -0.486780    4.283679
     50          1           0        2.866096   -0.729631    3.227786
     51          1           0        2.980002   -2.755045    0.571250
     52          1           0       -2.186315   -0.908720    4.187959
     53          1           0       -0.731427    0.084285    4.550192
     54          1           0       -1.739422    0.633730    3.208100
     55          1           0       -5.277427   -1.961018    2.240438
     56          1           0       -5.544499   -3.329002    1.392028
     57          1           0       -6.812282   -2.023802    1.014837
     58          1           0        2.269128    1.228412    1.777157
     59          1           0        0.957054    1.756366    2.714310
     60          1           0        0.327525    0.357087   -0.062002
     61          1           0        4.403167   -1.400013   -2.982847
     62          1           0        3.777445   -2.526808   -1.826530
     63          1           0       -5.765905   -2.291581   -3.011603
     64          1           0        5.453214   -1.045524    0.017731
     65          1           0        5.723358    0.051594   -1.257772
     66          1           0        4.584952    0.920878   -3.542211
     67          1           0        3.293426    2.237386   -3.503398
     68          1           0        2.734026    0.910547   -4.639089
     69          1           0        0.530266    2.637297   -2.929657
     70          1           0       -7.107659   -3.702568   -0.527544
     71          1           0       -7.588673   -3.678994   -2.269641
     72          1           0        3.611294    3.648833    3.555323
     73          1           0       -0.539938    4.429258   -3.173104
     74          1           0       -4.334770    4.505395   -0.725226
     75          1           0       -4.020717    3.882753    0.850881
     76          1           0       -3.073621    5.170527    0.487225
     77          1           0        8.531274   -2.312205   -1.138340
     78          1           0       -1.949575    6.428616   -3.207100
     79          1           0       -2.888445    5.667304   -1.747037
 ---------------------------------------------------------------------

 SCF Done:  E(RB3LYP) =  -1947.84973088     A.U. after   22 cycles

 Excitation energies and oscillator strengths:

 Excited State   1:      Singlet-A      0.7373 eV 1681.51 nm  f=0.0004  <S**2>=0.000
     155 ->156         0.70467
 This state for optimization and/or second-order correction.
 Total Energy, E(TD-HF/TD-DFT) =  -1947.82263422
 Copying the excited state density for this state as the 1-particle RhoCI density.

 The electronic state is 1-A.
 Alpha  occ. eigenvalues --  -19.18406 -19.17209 -19.13367 -19.12802 -19.11667
 Alpha  occ. eigenvalues --  -19.08736 -14.38260 -14.37629 -14.32290 -14.31332
 Alpha  occ. eigenvalues --  -10.33108 -10.31239 -10.28449 -10.28238 -10.26536
 Alpha  occ. eigenvalues --  -10.26081 -10.25449 -10.24857 -10.24818 -10.24394
 Alpha  occ. eigenvalues --  -10.24230 -10.23907 -10.22558 -10.22140 -10.21643
 Alpha  occ. eigenvalues --  -10.21511 -10.21128 -10.20398 -10.19671 -10.19574
 Alpha  occ. eigenvalues --  -10.19380 -10.19377 -10.19373 -10.19327 -10.19286
 Alpha  occ. eigenvalues --  -10.19200 -10.18832 -10.17860 -10.17540 -10.17122
 Alpha  occ. eigenvalues --  -10.16975 -10.16143 -10.15708  -1.10093  -1.09528
 Alpha  occ. eigenvalues --   -1.02689  -1.02400  -1.01649  -0.99791  -0.98722
 Alpha  occ. eigenvalues --   -0.97585  -0.92387  -0.91797  -0.85240  -0.82008
 Alpha  occ. eigenvalues --   -0.81673  -0.80701  -0.79764  -0.79518  -0.78259
 Alpha  occ. eigenvalues --   -0.77298  -0.76324  -0.75760  -0.75137  -0.73171
 Alpha  occ. eigenvalues --   -0.70915  -0.70152  -0.69840  -0.69346  -0.67139
 Alpha  occ. eigenvalues --   -0.66284  -0.65652  -0.62870  -0.60286  -0.59995
 Alpha  occ. eigenvalues --   -0.58957  -0.58608  -0.58346  -0.57438  -0.56730
 Alpha  occ. eigenvalues --   -0.55228  -0.54726  -0.54649  -0.53312  -0.52930
 Alpha  occ. eigenvalues --   -0.51919  -0.51259  -0.50836  -0.50523  -0.49403
 Alpha  occ. eigenvalues --   -0.48747  -0.48650  -0.48368  -0.48046  -0.47523
 Alpha  occ. eigenvalues --   -0.47365  -0.47141  -0.46621  -0.46203  -0.45573
 Alpha  occ. eigenvalues --   -0.45299  -0.45107  -0.44566  -0.44248  -0.43980
 Alpha  occ. eigenvalues --   -0.43722  -0.43395  -0.43093  -0.42903  -0.42480
 Alpha  occ. eigenvalues --   -0.42179  -0.41706  -0.41592  -0.41537  -0.41105
 Alpha  occ. eigenvalues --   -0.40650  -0.40549  -0.40353  -0.40116  -0.39989
 Alpha  occ. eigenvalues --   -0.39626  -0.39562  -0.38634  -0.38456  -0.38003
 Alpha  occ. eigenvalues --   -0.37844  -0.37462  -0.37243  -0.36530  -0.36126
 Alpha  occ. eigenvalues --   -0.35874  -0.35680  -0.35231  -0.34962  -0.34480
 Alpha  occ. eigenvalues --   -0.33435  -0.32790  -0.32612  -0.32348  -0.31878
 Alpha  occ. eigenvalues --   -0.31072  -0.29921  -0.29693  -0.29094  -0.28999
 Alpha  occ. eigenvalues --   -0.28324  -0.27983  -0.25801  -0.25065  -0.23794
 Alpha  occ. eigenvalues --   -0.23617  -0.23363  -0.22906  -0.22261  -0.17662
 Alpha virt. eigenvalues --   -0.12377  -0.07531  -0.02860  -0.01828  -0.01546
 Alpha virt. eigenvalues --    0.00496   0.01133   0.02572   0.02663   0.02798
 Alpha virt. eigenvalues --    0.03280   0.03660   0.04248   0.04732   0.04796

 Mulliken charges:
               1
     1  O   -0.183487
     2  O   -0.183628
     3  O   -0.193817
     4  O   -0.242840
     5  O   -0.226448
     6  O   -0.215131
     7  N   -0.042925
     8  N   -0.255464
     9  N   -0.122512
    10  N   -0.328822
    11  C    0.146395
    12  C    0.146027
    13  C   -0.136806
    14  C   -0.107072
    15  C   -0.071831
    16  C   -0.100319
    17  C   -0.188062
    18  C    0.069367
    19  C   -0.086122
    20  C   -0.193569
    21  C    0.242814
    22  C    0.135920
    23  C   -0.127582
    24  C    0.092802
    25  C    0.166730
    26  C   -0.122530
    27  C   -0.016228
    28  C    0.098669
    29  C    0.187160
    30  C   -0.013569
    31  C   -0.042091
    32  C    0.008064
    33  C   -0.105916
    34  C    0.128215
    35  C    0.123653
    36  C   -0.060060
    37  C    0.145324
    38  C    0.017348
    39  C   -0.203363
    40  C    0.176470
    41  C   -0.051548
    42  C    0.159587
    43  C    0.018938
    44  H   -0.030651
    45  H   -0.037589
    46  H    0.019477
    47  H    0.163834
    48  H    0.173348
    49  H    0.028182
    50  H    0.000711
    51  H    0.070351
    52  H    0.005246
    53  H   -0.024061
    54  H    0.061029
    55  H   -0.017235
    56  H    0.024783
    57  H    0.068494
    58  H    0.009662
    59  H    0.048432
    60  H    0.178549
    61  H    0.006157
    62  H    0.038217
    63  H    0.020865
    64  H    0.071368
    65  H    0.056349
    66  H    0.041336
    67  H    0.027605
    68  H    0.086993
    69  H    0.014561
    70  H    0.002793
    71  H    0.004215
    72  H    0.149064
    73  H    0.013716
    74  H    0.054042
    75  H   -0.033384
    76  H    0.029561
    77  H    0.221071
    78  H    0.037824
    79  H   -0.026657
 Sum of Mulliken charges =  -0.00000

 Dipole moment (field-independent basis, Debye):
    X=              3.9218    Y=              3.2497    Z=             -1.8432  Tot=              5.4165
 Quadrupole moment (field-independent basis, Debye-Ang):
   XX=           -238.7631   YY=           -237.2639   ZZ=           -268.7448
   XY=              1.6527   XZ=            -22.6048   YZ=            -14.1213

 Normal termination of Gaussian 16 at Mon Jul 29 21:40:41 2019.
