 Gaussian 16, Revision A.03,
 Gaussian 16:  ES64L-G16RevA.03 25-Dec-2016

 --------------------------
 # td=(NStates=1) B3LYP/SVP
 --------------------------

 --
 TD
 --
 Symbolic Z-matrix:
 Charge =  0 Multiplicity = 1

                         Standard orientation:
 ---------------------------------------------------------------------
 Center     Atomic      Atomic             Coordinates (Angstroms)
 Number     Number       Type             X           Y           Z
 ---------------------------------------------------------------------
      1          8           0        5.410146    0.262632   -3.195459
      2          8           0       -3.228782   -2.942626    2.877426
      3          8           0       -3.449104   -0.660864    2.890114
      4          8           0       -1.444593    7.078087    1.729584
      5          8           0       -0.620979    7.176876   -0.444830
      6          8           0       -1.765131   -3.869884   -0.057908
      7          7           0        2.305646    0.753388    0.709389
      8          7           0        4.386579   -0.333524   -1.208115
      9          7           0       -1.758942    0.696558   -0.428628
     10          7           0       -2.550952   -1.820962   -0.455242
     11          6           0        4.702305   -1.208824   -0.042300
     12          6           0        4.414730   -0.546941    1.266195
     13          6           0        2.896147   -0.279549    1.399528
     14          6           0        1.905474   -0.862489    2.159315
     15          6           0        0.703587   -0.115849    1.913244
     16          6           0        1.008005    0.843529    0.894273
     17          6           0        6.229845   -1.397163   -0.175312
     18          6           0       -0.617059   -0.326205    2.645278
     19          6           0        6.731052   -0.888521   -1.340245
     20          6           0        0.232109    1.840186    0.153229
     21          6           0       -1.081690    1.860555   -0.180682
     22          6           0        5.492719   -0.152143   -1.979101
     23          6           0       -1.818164    2.913013   -0.848527
     24          6           0        2.022856   -2.004489    3.101609
     25          6           0        7.021882   -2.305908    0.797275
     26          6           0       -3.026332    2.462505   -1.274705
     27          6           0       -1.267140   -1.745020    2.443399
     28          6           0       -2.986603    1.049383   -0.931457
     29          6           0       -1.361452    4.414287   -0.971757
     30          6           0        8.017364   -0.653590   -1.978724
     31          6           0       -1.604902    4.995733    0.446360
     32          6           0       -4.186197    3.057152   -1.953350
     33          6           0       -3.871848    0.077580   -1.127323
     34          6           0       -2.822412   -1.613748    2.694695
     35          6           0       -3.723744   -1.338710   -1.052869
     36          6           0        9.170685   -0.860848   -1.391304
     37          6           0       -1.182543    6.506831    0.401606
     38          6           0       -4.587297   -2.481168   -1.522851
     39          6           0       -3.960586   -3.629924   -1.068027
     40          6           0       -2.690289   -3.246161   -0.557370
     41          6           0       -5.951818   -2.374518   -2.087727
     42          6           0       -4.276634   -5.085134   -1.367960
     43          6           0       -6.776070   -3.321877   -2.461529
     44          1           0        4.395591   -2.349156   -0.206912
     45          1           0        5.062834    0.460919    1.417674
     46          1           0        4.693787   -1.259581    2.044172
     47          1           0        2.750159    1.056707   -0.053551
     48          1           0        3.479089   -0.177001   -1.563631
     49          1           0       -0.457512   -0.024605    3.731511
     50          1           0       -1.532244    0.229615    2.402393
     51          1           0        0.575813    2.705814   -0.014198
     52          1           0        3.134618   -2.462280    3.080110
     53          1           0        1.742225   -1.534204    4.127877
     54          1           0        1.241967   -2.908770    3.065905
     55          1           0        6.271173   -2.905223    1.208440
     56          1           0        7.328681   -1.611479    1.730036
     57          1           0        7.869379   -2.834939    0.322208
     58          1           0       -1.136182   -2.058619    1.491893
     59          1           0       -0.812668   -2.516719    3.064470
     60          1           0       -1.613899   -0.231384   -0.167558
     61          1           0       -1.973154    4.725974   -1.791635
     62          1           0       -0.405077    4.440034   -1.367097
     63          1           0        7.999209   -0.390435   -3.050120
     64          1           0       -1.228870    4.362835    1.132504
     65          1           0       -2.685231    5.050351    0.543362
     66          1           0       -3.927211    4.157772   -2.075323
     67          1           0       -5.007983    2.922962   -1.240437
     68          1           0       -4.439280    2.621963   -2.754190
     69          1           0       -4.806988    0.520861   -1.767220
     70          1           0        9.227079   -1.336063   -0.398007
     71          1           0       10.284303   -0.912005   -1.979203
     72          1           0       -4.206834   -2.943318    2.983169
     73          1           0       -6.086524   -1.364541   -2.540745
     74          1           0       -5.292590   -5.480543   -0.985986
     75          1           0       -4.442118   -5.401021   -2.421260
     76          1           0       -3.430935   -5.852689   -0.969741
     77          1           0       -0.903315    8.083210    1.594944
     78          1           0       -7.534420   -3.278069   -3.156144
     79          1           0       -6.557539   -4.420200   -2.168265
 ---------------------------------------------------------------------

 SCF Done:  E(RB3LYP) =  -1947.80793872     A.U. after   17 cycles

 Excitation energies and oscillator strengths:

 Excited State   1:      Singlet-A      1.8762 eV  660.83 nm  f=0.3026  <S**2>=0.000
     155 ->156         0.69921
     155 <-156        -0.11331
 This state for optimization and/or second-order correction.
 Total Energy, E(TD-HF/TD-DFT) =  -1947.73899035
 Copying the excited state density for this state as the 1-particle RhoCI density.

 The electronic state is 1-A.
 Alpha  occ. eigenvalues --  -19.18079 -19.15966 -19.15534 -19.13227 -19.10309
 Alpha  occ. eigenvalues --  -19.09368 -14.37219 -14.36538 -14.35272 -14.29196
 Alpha  occ. eigenvalues --  -10.33876 -10.30753 -10.28863 -10.26714 -10.26069
 Alpha  occ. eigenvalues --  -10.24272 -10.23715 -10.23650 -10.23306 -10.22859
 Alpha  occ. eigenvalues --  -10.22792 -10.22463 -10.22382 -10.22229 -10.22083
 Alpha  occ. eigenvalues --  -10.21496 -10.21388 -10.21210 -10.21116 -10.21048
 Alpha  occ. eigenvalues --  -10.20967 -10.20944 -10.20781 -10.20606 -10.20195
 Alpha  occ. eigenvalues --  -10.20126 -10.20056 -10.20024 -10.19785 -10.19095
 Alpha  occ. eigenvalues --  -10.18939 -10.18634 -10.17103  -1.08810  -1.07304
 Alpha  occ. eigenvalues --   -1.01428  -1.00658  -1.00501  -0.99787  -0.99062
 Alpha  occ. eigenvalues --   -0.97731  -0.92753  -0.90488  -0.83939  -0.82787
 Alpha  occ. eigenvalues --   -0.82582  -0.81098  -0.80700  -0.80103  -0.78955
 Alpha  occ. eigenvalues --   -0.77573  -0.76321  -0.75446  -0.75049  -0.73606
 Alpha  occ. eigenvalues --   -0.71589  -0.71475  -0.69897  -0.69066  -0.68598
 Alpha  occ. eigenvalues --   -0.66171  -0.65819  -0.64436  -0.61519  -0.60980
 Alpha  occ. eigenvalues --   -0.59566  -0.58445  -0.58177  -0.57686  -0.57248
 Alpha  occ. eigenvalues --   -0.56871  -0.55767  -0.55570  -0.54565  -0.53597
 Alpha  occ. eigenvalues --   -0.52469  -0.51633  -0.50987  -0.50543  -0.49389
 Alpha  occ. eigenvalues --   -0.49101  -0.48765  -0.48403  -0.47887  -0.47664
 Alpha  occ. eigenvalues --   -0.47622  -0.47172  -0.46828  -0.46582  -0.46429
 Alpha  occ. eigenvalues --   -0.46069  -0.45637  -0.44996  -0.43937  -0.43657
 Alpha  occ. eigenvalues --   -0.43401  -0.43048  -0.42778  -0.42692  -0.42309
 Alpha  occ. eigenvalues --   -0.42134  -0.42022  -0.41639  -0.41586  -0.41172
 Alpha  occ. eigenvalues --   -0.40847  -0.40676  -0.40544  -0.40318  -0.39657
 Alpha  occ. eigenvalues --   -0.39301  -0.39152  -0.38890  -0.38768  -0.38534
 Alpha  occ. eigenvalues --   -0.37770  -0.37644  -0.37514  -0.37363  -0.36617
 Alpha  occ. eigenvalues --   -0.36421  -0.35944  -0.35322  -0.35165  -0.34561
 Alpha  occ. eigenvalues --   -0.33912  -0.33777  -0.32236  -0.32101  -0.32046
 Alpha  occ. eigenvalues --   -0.31842  -0.31367  -0.29941  -0.28741  -0.27973
 Alpha  occ. eigenvalues --   -0.27812  -0.26665  -0.26579  -0.24718  -0.24542
 Alpha  occ. eigenvalues --   -0.24308  -0.24233  -0.23986  -0.22711  -0.18994
 Alpha virt. eigenvalues --   -0.11466  -0.07010  -0.05663  -0.02377  -0.01160
 Alpha virt. eigenvalues --    0.00327   0.01229   0.01563   0.02335   0.02896
 Alpha virt. eigenvalues --    0.03350   0.03776   0.05128   0.05274   0.05401

 Mulliken charges:
               1
     1  O   -0.307189
     2  O   -0.233806
     3  O   -0.159591
     4  O   -0.338865
     5  O   -0.209226
     6  O   -0.187096
     7  N    0.050258
     8  N   -0.166611
     9  N   -0.031466
    10  N   -0.341033
    11  C    0.059672
    12  C    0.179982
    13  C   -0.139339
    14  C   -0.066400
    15  C   -0.095184
    16  C    0.053565
    17  C   -0.239958
    18  C    0.028235
    19  C   -0.010075
    20  C    0.005950
    21  C    0.090860
    22  C    0.146617
    23  C   -0.213823
    24  C   -0.016944
    25  C    0.096753
    26  C   -0.105628
    27  C    0.026960
    28  C    0.057594
    29  C    0.156372
    30  C    0.031781
    31  C    0.091199
    32  C    0.224427
    33  C   -0.123391
    34  C    0.147409
    35  C    0.080671
    36  C   -0.088344
    37  C    0.207642
    38  C    0.035050
    39  C   -0.134263
    40  C    0.154030
    41  C    0.019361
    42  C   -0.012387
    43  C   -0.020790
    44  H    0.071058
    45  H    0.047575
    46  H   -0.015095
    47  H    0.049493
    48  H    0.124431
    49  H    0.012140
    50  H    0.010837
    51  H   -0.101430
    52  H    0.023612
    53  H    0.035526
    54  H    0.063668
    55  H   -0.002398
    56  H    0.049645
    57  H    0.057884
    58  H    0.026382
    59  H    0.019826
    60  H    0.105250
    61  H   -0.004644
    62  H    0.000840
    63  H    0.024921
    64  H    0.022717
    65  H    0.036849
    66  H    0.020121
    67  H    0.029308
    68  H   -0.026093
    69  H   -0.013048
    70  H    0.014045
    71  H    0.053416
    72  H    0.168532
    73  H    0.000991
    74  H    0.035681
    75  H    0.032673
    76  H    0.056404
    77  H    0.236611
    78  H    0.009526
    79  H    0.019766
 Sum of Mulliken charges =  -0.00000

 Dipole moment (field-independent basis, Debye):
    X=             -1.2210    Y=              0.0467    Z=              1.4592  Tot=              1.9033
 Quadrupole moment (field-independent basis, Debye-Ang):
   XX=           -219.3633   YY=           -248.8233   ZZ=           -264.3306
   XY=            -10.2283   XZ=             38.2718   YZ=              4.3107

 Normal termination of Gaussian 16 at Sun Sep 22 21:41:30 2019.
