 Gaussian 16, Revision A.03,
 Gaussian 16:  ES64L-G16RevA.03 25-Dec-2016

 --------------------------
 # td=(NStates=1) B3LYP/SVP
 --------------------------

 --
 TD
 --
 Symbolic Z-matrix:
 Charge =  0 Multiplicity = 1

                         Standard orientation:
 ---------------------------------------------------------------------
 Center     Atomic      Atomic             Coordinates (Angstroms)
 Number     Number       Type             X           Y           Z
 ---------------------------------------------------------------------
      1          8           0        5.320197    0.329207   -3.257144
      2          8           0       -2.859473   -3.314633    3.239302
      3          8           0       -3.386846   -1.113037    3.096767
      4          8           0       -2.256881    7.232628    1.489867
      5          8           0       -0.946175    7.108244   -0.414884
      6          8           0       -1.617000   -4.109690   -0.012057
      7          7           0        2.284333    1.049668    0.833737
      8          7           0        4.314956   -0.135886   -1.203235
      9          7           0       -1.682735    0.685541   -0.454550
     10          7           0       -2.393951   -1.948873   -0.511659
     11          6           0        4.749593   -1.048592   -0.129227
     12          6           0        4.370323   -0.248901    1.287142
     13          6           0        2.913012    0.028139    1.517333
     14          6           0        1.978642   -0.714505    2.274933
     15          6           0        0.772920   -0.063815    1.988415
     16          6           0        0.872754    1.004512    0.982262
     17          6           0        6.191733   -1.286728   -0.279225
     18          6           0       -0.577016   -0.363153    2.653009
     19          6           0        6.561940   -0.626526   -1.384571
     20          6           0        0.054786    2.067175    0.491938
     21          6           0       -1.104083    1.864185   -0.186805
     22          6           0        5.343909   -0.008504   -2.050900
     23          6           0       -1.939336    2.938099   -0.810856
     24          6           0        2.205438   -1.810698    3.144131
     25          6           0        7.072187   -2.066133    0.667192
     26          6           0       -3.095751    2.285907   -1.213708
     27          6           0       -1.090204   -1.876790    2.678454
     28          6           0       -2.944991    0.849052   -1.119736
     29          6           0       -1.698146    4.400547   -0.838316
     30          6           0        7.909732   -0.344166   -2.061042
     31          6           0       -2.056589    5.241338    0.467508
     32          6           0       -4.259043    2.961830   -1.973146
     33          6           0       -3.813563   -0.160682   -1.464860
     34          6           0       -2.576656   -2.034548    3.002780
     35          6           0       -3.547257   -1.608386   -1.145087
     36          6           0        9.158366   -0.607356   -1.541345
     37          6           0       -1.710714    6.634068    0.409627
     38          6           0       -4.358883   -2.728688   -1.665065
     39          6           0       -3.712013   -3.869838   -1.194331
     40          6           0       -2.454671   -3.372501   -0.455633
     41          6           0       -5.528817   -2.609352   -2.441635
     42          6           0       -4.023304   -5.280124   -1.376181
     43          6           0       -6.408189   -3.472240   -2.764016
     44          1           0        4.116115   -2.032104   -0.127046
     45          1           0        4.932971    0.708389    1.114632
     46          1           0        4.948540   -0.843552    2.235695
     47          1           0        2.902338    1.561736    0.181776
     48          1           0        3.339587   -0.234838   -1.516408
     49          1           0       -0.735309    0.079600    3.605451
     50          1           0       -1.364025    0.380054    2.108397
     51          1           0        0.484814    3.023250    0.375592
     52          1           0        3.354822   -2.120277    2.976581
     53          1           0        1.974465   -1.468540    4.297489
     54          1           0        1.387132   -2.800014    2.928256
     55          1           0        6.534383   -3.075099    1.036137
     56          1           0        7.575123   -1.642386    1.540309
     57          1           0        7.897633   -2.674304    0.216657
     58          1           0       -0.855855   -2.481034    1.772055
     59          1           0       -0.491826   -2.431383    3.519571
     60          1           0       -1.167053   -0.238510   -0.268579
     61          1           0       -2.210596    4.857261   -1.608885
     62          1           0       -0.698550    4.461462   -1.073687
     63          1           0        7.659212   -0.169148   -2.977059
     64          1           0       -1.668095    4.808626    1.270154
     65          1           0       -3.119264    5.342126    0.722044
     66          1           0       -4.089542    4.053830   -2.192411
     67          1           0       -5.223658    2.560515   -1.459838
     68          1           0       -4.270830    2.465177   -2.863882
     69          1           0       -4.616217    0.127207   -1.991298
     70          1           0        9.419157   -0.800357   -0.467108
     71          1           0        9.986074   -0.604421   -2.327020
     72          1           0       -3.800237   -3.490642    3.600372
     73          1           0       -5.688036   -1.391069   -2.611659
     74          1           0       -4.832492   -5.855837   -0.689421
     75          1           0       -4.285285   -5.472068   -2.552678
     76          1           0       -3.101874   -5.897996   -1.111105
     77          1           0       -1.819542    8.053800    1.646710
     78          1           0       -7.353093   -3.142777   -3.502774
     79          1           0       -6.346446   -4.667326   -2.406116
 ---------------------------------------------------------------------

 SCF Done:  E(RB3LYP) =  -1947.83803868     A.U. after   16 cycles

 Excitation energies and oscillator strengths:

 Excited State   1:      Singlet-A      1.9087 eV  649.58 nm  f=0.3667  <S**2>=0.000
     155 ->156         0.70372
     155 <-156        -0.10625
 This state for optimization and/or second-order correction.
 Total Energy, E(TD-HF/TD-DFT) =  -1947.76789623
 Copying the excited state density for this state as the 1-particle RhoCI density.

 The electronic state is 1-A.
 Alpha  occ. eigenvalues --  -19.19274 -19.17427 -19.13317 -19.11573 -19.10640
 Alpha  occ. eigenvalues --  -19.10088 -14.38231 -14.36895 -14.36322 -14.29937
 Alpha  occ. eigenvalues --  -10.32452 -10.30669 -10.28798 -10.27188 -10.26174
 Alpha  occ. eigenvalues --  -10.24965 -10.24740 -10.23525 -10.23451 -10.23167
 Alpha  occ. eigenvalues --  -10.22904 -10.22320 -10.22203 -10.22053 -10.21449
 Alpha  occ. eigenvalues --  -10.21124 -10.21064 -10.20928 -10.20767 -10.20671
 Alpha  occ. eigenvalues --  -10.20561 -10.20429 -10.20427 -10.20405 -10.20245
 Alpha  occ. eigenvalues --  -10.19913 -10.19881 -10.19819 -10.19671 -10.19429
 Alpha  occ. eigenvalues --  -10.19290 -10.19119 -10.18366  -1.10712  -1.07475
 Alpha  occ. eigenvalues --   -1.03051  -1.01880  -1.01701  -0.97910  -0.97414
 Alpha  occ. eigenvalues --   -0.96891  -0.94703  -0.91531  -0.82576  -0.82563
 Alpha  occ. eigenvalues --   -0.81675  -0.81361  -0.80679  -0.78902  -0.77961
 Alpha  occ. eigenvalues --   -0.76563  -0.75748  -0.74838  -0.74253  -0.72827
 Alpha  occ. eigenvalues --   -0.71522  -0.70785  -0.69959  -0.69398  -0.68035
 Alpha  occ. eigenvalues --   -0.66352  -0.65516  -0.63332  -0.61813  -0.61529
 Alpha  occ. eigenvalues --   -0.60165  -0.59039  -0.58785  -0.58060  -0.56330
 Alpha  occ. eigenvalues --   -0.55713  -0.55222  -0.54437  -0.53959  -0.52632
 Alpha  occ. eigenvalues --   -0.51591  -0.51247  -0.50728  -0.50518  -0.50220
 Alpha  occ. eigenvalues --   -0.48800  -0.48602  -0.47760  -0.47485  -0.47132
 Alpha  occ. eigenvalues --   -0.46612  -0.46426  -0.45870  -0.45721  -0.45063
 Alpha  occ. eigenvalues --   -0.44775  -0.44529  -0.44198  -0.43923  -0.43624
 Alpha  occ. eigenvalues --   -0.43195  -0.42885  -0.42788  -0.42514  -0.42220
 Alpha  occ. eigenvalues --   -0.42019  -0.41723  -0.41265  -0.41162  -0.41065
 Alpha  occ. eigenvalues --   -0.40704  -0.40338  -0.40201  -0.39839  -0.39327
 Alpha  occ. eigenvalues --   -0.39181  -0.38845  -0.38650  -0.37898  -0.37717
 Alpha  occ. eigenvalues --   -0.37377  -0.37149  -0.37130  -0.36836  -0.36666
 Alpha  occ. eigenvalues --   -0.36294  -0.36047  -0.35507  -0.35213  -0.34522
 Alpha  occ. eigenvalues --   -0.33822  -0.33609  -0.32644  -0.31573  -0.31507
 Alpha  occ. eigenvalues --   -0.30602  -0.30544  -0.29071  -0.28724  -0.28675
 Alpha  occ. eigenvalues --   -0.27358  -0.26099  -0.25437  -0.25403  -0.24748
 Alpha  occ. eigenvalues --   -0.24456  -0.24072  -0.23591  -0.22492  -0.18610
 Alpha virt. eigenvalues --   -0.11051  -0.06455  -0.05984  -0.00695  -0.00400
 Alpha virt. eigenvalues --   -0.00114   0.00469   0.01725   0.02577   0.03428
 Alpha virt. eigenvalues --    0.03603   0.04429   0.04452   0.04673   0.05094

 Mulliken charges:
               1
     1  O   -0.264853
     2  O   -0.204438
     3  O   -0.249117
     4  O   -0.172071
     5  O   -0.229886
     6  O   -0.174470
     7  N   -0.108214
     8  N   -0.153634
     9  N   -0.107797
    10  N   -0.281504
    11  C    0.020282
    12  C    0.059079
    13  C   -0.069577
    14  C   -0.034488
    15  C   -0.086182
    16  C    0.068468
    17  C   -0.080265
    18  C    0.046834
    19  C   -0.111544
    20  C   -0.077208
    21  C    0.071217
    22  C    0.146764
    23  C   -0.119808
    24  C   -0.073185
    25  C    0.013753
    26  C   -0.154879
    27  C   -0.052780
    28  C    0.154356
    29  C    0.215702
    30  C    0.107955
    31  C    0.070945
    32  C    0.116449
    33  C   -0.041940
    34  C    0.153308
    35  C    0.097314
    36  C   -0.043914
    37  C    0.126046
    38  C    0.048025
    39  C   -0.160613
    40  C    0.162999
    41  C    0.012036
    42  C   -0.047497
    43  C   -0.146731
    44  H    0.047611
    45  H   -0.000216
    46  H    0.047652
    47  H    0.123309
    48  H    0.145862
    49  H   -0.003108
    50  H    0.026516
    51  H   -0.030601
    52  H    0.028645
    53  H    0.052392
    54  H    0.071542
    55  H    0.020213
    56  H    0.047822
    57  H    0.027789
    58  H    0.070928
    59  H    0.039720
    60  H    0.181805
    61  H   -0.028533
    62  H   -0.012898
    63  H   -0.052207
    64  H   -0.005575
    65  H    0.026751
    66  H    0.034650
    67  H    0.038009
    68  H    0.002384
    69  H   -0.101029
    70  H    0.041610
    71  H    0.045134
    72  H    0.207439
    73  H    0.025521
    74  H    0.058424
    75  H    0.054452
    76  H    0.036074
    77  H    0.169054
    78  H    0.054706
    79  H    0.063216
 Sum of Mulliken charges =  -0.00000

 Dipole moment (field-independent basis, Debye):
    X=             -0.3142    Y=              0.6660    Z=              3.0562  Tot=              3.1436
 Quadrupole moment (field-independent basis, Debye-Ang):
   XX=           -223.5510   YY=           -239.0089   ZZ=           -261.5066
   XY=            -10.3577   XZ=             30.2771   YZ=              7.2671

 Normal termination of Gaussian 16 at Mon Oct  7 12:21:14 2019.
