 Gaussian 16, Revision A.03,
 Gaussian 16:  ES64L-G16RevA.03 25-Dec-2016

 --------------------------
 # td=(NStates=1) B3LYP/SVP
 --------------------------

 --
 TD
 --
 Symbolic Z-matrix:
 Charge =  0 Multiplicity = 1

                         Standard orientation:
 ---------------------------------------------------------------------
 Center     Atomic      Atomic             Coordinates (Angstroms)
 Number     Number       Type             X           Y           Z
 ---------------------------------------------------------------------
      1          8           0        5.512912    0.094344   -3.291462
      2          8           0       -3.175104   -2.857397    3.249327
      3          8           0       -3.398650   -0.704226    3.217153
      4          8           0       -1.461479    7.184532    1.561636
      5          8           0       -0.634610    6.964432   -0.544861
      6          8           0       -1.898322   -3.947524    0.206020
      7          7           0        2.262895    0.737270    0.541723
      8          7           0        4.461572   -0.488907   -1.283387
      9          7           0       -1.736791    0.659058   -0.463149
     10          7           0       -2.617828   -1.828553   -0.394212
     11          6           0        4.771704   -1.131864   -0.015150
     12          6           0        4.309785   -0.458271    1.278882
     13          6           0        2.850923   -0.134019    1.376740
     14          6           0        1.850819   -0.827936    2.166249
     15          6           0        0.706560   -0.111410    1.820130
     16          6           0        0.974212    0.914908    0.866763
     17          6           0        6.314420   -1.374184   -0.215877
     18          6           0       -0.672253   -0.288119    2.531509
     19          6           0        6.654055   -0.759634   -1.333298
     20          6           0        0.161331    1.993763    0.206591
     21          6           0       -1.082336    1.808730   -0.171812
     22          6           0        5.527945   -0.312577   -2.183443
     23          6           0       -1.866208    2.912781   -0.945349
     24          6           0        1.989414   -1.819254    3.219065
     25          6           0        6.951172   -2.058059    0.912897
     26          6           0       -3.006843    2.388732   -1.411209
     27          6           0       -1.260875   -1.687553    2.529511
     28          6           0       -2.929173    0.917600   -1.114275
     29          6           0       -1.583148    4.341395   -0.862839
     30          6           0        8.076356   -0.686918   -1.964051
     31          6           0       -1.639765    5.085152    0.552678
     32          6           0       -4.293984    3.068400   -1.959547
     33          6           0       -3.884230   -0.025927   -1.496750
     34          6           0       -2.746413   -1.695652    3.046749
     35          6           0       -3.630051   -1.383455   -1.157172
     36          6           0        9.239243   -1.006193   -1.408292
     37          6           0       -1.154381    6.516974    0.464594
     38          6           0       -4.499897   -2.605573   -1.578666
     39          6           0       -3.856726   -3.669342   -1.093494
     40          6           0       -2.676700   -3.243542   -0.399344
     41          6           0       -5.741251   -2.415672   -2.368144
     42          6           0       -4.326803   -5.143693   -1.308204
     43          6           0       -6.631736   -3.361799   -2.760054
     44          1           0        4.394255   -2.232346    0.045136
     45          1           0        4.957800    0.515630    1.562931
     46          1           0        4.592025   -1.282214    1.972730
     47          1           0        2.715955    1.230321   -0.254400
     48          1           0        3.482506   -0.557117   -1.432142
     49          1           0       -0.526871   -0.030647    3.692472
     50          1           0       -1.400600    0.488063    1.924951
     51          1           0        0.603771    2.921813    0.211617
     52          1           0        3.106363   -1.838494    3.531442
     53          1           0        1.454032   -1.481424    4.087320
     54          1           0        1.649194   -3.036362    3.003389
     55          1           0        6.295120   -2.526733    1.519458
     56          1           0        7.346840   -1.132526    1.644495
     57          1           0        7.545650   -2.881630    0.631447
     58          1           0       -1.165510   -2.276835    1.493664
     59          1           0       -0.712411   -2.102105    3.383325
     60          1           0       -1.544920   -0.464426   -0.280501
     61          1           0       -2.242403    5.035140   -1.428556
     62          1           0       -0.748667    4.464691   -1.316444
     63          1           0        8.112990   -0.258850   -3.075787
     64          1           0       -0.760707    4.730647    1.429875
     65          1           0       -2.668981    5.088013    0.986269
     66          1           0       -3.916478    4.066591   -2.009136
     67          1           0       -5.110171    3.019531   -1.076079
     68          1           0       -4.687515    2.687260   -2.977210
     69          1           0       -4.852199    0.252476   -2.200072
     70          1           0        9.157874   -1.468305   -0.386641
     71          1           0       10.109824   -0.843789   -1.935259
     72          1           0       -4.136796   -2.792453    3.412063
     73          1           0       -5.965454   -1.307203   -2.843159
     74          1           0       -5.416686   -5.303853   -1.046301
     75          1           0       -4.200908   -5.509617   -2.556810
     76          1           0       -3.678653   -5.762549   -0.635453
     77          1           0       -1.238341    8.142025    1.340010
     78          1           0       -7.577773   -3.121949   -3.386553
     79          1           0       -6.490057   -4.342894   -2.373748
 ---------------------------------------------------------------------

 SCF Done:  E(RB3LYP) =  -1947.83271527     A.U. after   16 cycles

 Excitation energies and oscillator strengths:

 Excited State   1:      Singlet-A      2.0156 eV  615.11 nm  f=0.2901  <S**2>=0.000
     155 ->156         0.70355
 This state for optimization and/or second-order correction.
 Total Energy, E(TD-HF/TD-DFT) =  -1947.75864178
 Copying the excited state density for this state as the 1-particle RhoCI density.

 The electronic state is 1-A.
 Alpha  occ. eigenvalues --  -19.20400 -19.17595 -19.13249 -19.11169 -19.11041
 Alpha  occ. eigenvalues --  -19.09370 -14.38599 -14.36751 -14.34568 -14.30232
 Alpha  occ. eigenvalues --  -10.32836 -10.29154 -10.29013 -10.27162 -10.25296
 Alpha  occ. eigenvalues --  -10.24641 -10.24433 -10.24188 -10.23469 -10.22409
 Alpha  occ. eigenvalues --  -10.22332 -10.22241 -10.22041 -10.21820 -10.21716
 Alpha  occ. eigenvalues --  -10.21511 -10.21327 -10.21221 -10.21048 -10.20980
 Alpha  occ. eigenvalues --  -10.20775 -10.20718 -10.20693 -10.20617 -10.20159
 Alpha  occ. eigenvalues --  -10.20017 -10.19925 -10.19902 -10.19259 -10.18305
 Alpha  occ. eigenvalues --  -10.18236 -10.18026 -10.17805  -1.11717  -1.11490
 Alpha  occ. eigenvalues --   -1.04556  -1.02789  -1.01522  -0.99623  -0.98959
 Alpha  occ. eigenvalues --   -0.97749  -0.94135  -0.92543  -0.82925  -0.81834
 Alpha  occ. eigenvalues --   -0.81656  -0.80497  -0.80420  -0.79114  -0.77323
 Alpha  occ. eigenvalues --   -0.76850  -0.75701  -0.74704  -0.74531  -0.72599
 Alpha  occ. eigenvalues --   -0.71905  -0.70792  -0.69194  -0.68733  -0.68465
 Alpha  occ. eigenvalues --   -0.65802  -0.65517  -0.63944  -0.61025  -0.60475
 Alpha  occ. eigenvalues --   -0.60331  -0.59155  -0.58440  -0.57883  -0.56540
 Alpha  occ. eigenvalues --   -0.55908  -0.55185  -0.54705  -0.52639  -0.52370
 Alpha  occ. eigenvalues --   -0.51930  -0.50537  -0.50144  -0.50088  -0.49565
 Alpha  occ. eigenvalues --   -0.49298  -0.48672  -0.48099  -0.47665  -0.47451
 Alpha  occ. eigenvalues --   -0.47334  -0.47107  -0.46590  -0.45960  -0.45693
 Alpha  occ. eigenvalues --   -0.45241  -0.45015  -0.44834  -0.43967  -0.43779
 Alpha  occ. eigenvalues --   -0.43515  -0.43199  -0.43038  -0.42764  -0.42632
 Alpha  occ. eigenvalues --   -0.42215  -0.42101  -0.41776  -0.41559  -0.40952
 Alpha  occ. eigenvalues --   -0.40732  -0.40246  -0.39892  -0.39811  -0.39560
 Alpha  occ. eigenvalues --   -0.39480  -0.39001  -0.38487  -0.38242  -0.37995
 Alpha  occ. eigenvalues --   -0.37580  -0.37312  -0.36764  -0.36559  -0.35712
 Alpha  occ. eigenvalues --   -0.35529  -0.35215  -0.34849  -0.34693  -0.34354
 Alpha  occ. eigenvalues --   -0.33544  -0.33044  -0.32416  -0.31643  -0.30643
 Alpha  occ. eigenvalues --   -0.30517  -0.29954  -0.29001  -0.28626  -0.28373
 Alpha  occ. eigenvalues --   -0.27069  -0.26523  -0.26363  -0.25512  -0.24818
 Alpha  occ. eigenvalues --   -0.24388  -0.24257  -0.24111  -0.22698  -0.19210
 Alpha virt. eigenvalues --   -0.10778  -0.06033  -0.04758  -0.00784  -0.00311
 Alpha virt. eigenvalues --    0.01130   0.01956   0.02402   0.02693   0.03129
 Alpha virt. eigenvalues --    0.03403   0.04167   0.04336   0.04674   0.04800

 Mulliken charges:
               1
     1  O   -0.161838
     2  O   -0.087772
     3  O   -0.240905
     4  O   -0.166685
     5  O   -0.242873
     6  O   -0.190222
     7  N   -0.027351
     8  N   -0.223886
     9  N   -0.143676
    10  N   -0.321868
    11  C    0.025582
    12  C    0.162373
    13  C   -0.117521
    14  C   -0.064470
    15  C   -0.099369
    16  C    0.002027
    17  C   -0.187900
    18  C   -0.020997
    19  C   -0.094140
    20  C   -0.057179
    21  C    0.159895
    22  C    0.190973
    23  C   -0.103549
    24  C    0.019889
    25  C    0.162458
    26  C   -0.134365
    27  C   -0.040689
    28  C    0.124466
    29  C    0.175365
    30  C   -0.058418
    31  C   -0.081197
    32  C    0.084232
    33  C   -0.161164
    34  C    0.069225
    35  C    0.074857
    36  C    0.013806
    37  C    0.119464
    38  C    0.079804
    39  C   -0.180038
    40  C    0.158794
    41  C   -0.068136
    42  C   -0.005897
    43  C   -0.028173
    44  H    0.026983
    45  H    0.021826
    46  H   -0.014556
    47  H    0.126993
    48  H    0.106897
    49  H    0.017457
    50  H    0.041366
    51  H   -0.025160
    52  H    0.008710
    53  H    0.016784
    54  H    0.064652
    55  H   -0.034979
    56  H    0.065124
    57  H    0.027499
    58  H    0.109052
    59  H    0.005502
    60  H    0.226830
    61  H    0.012214
    62  H   -0.043454
    63  H    0.034151
    64  H    0.071701
    65  H    0.054467
    66  H   -0.002538
    67  H    0.060870
    68  H    0.054137
    69  H    0.038111
    70  H    0.011658
    71  H    0.003621
    72  H    0.173146
    73  H    0.029484
    74  H    0.049902
    75  H    0.058248
    76  H    0.040865
    77  H    0.199247
    78  H    0.048795
    79  H    0.001464
 Sum of Mulliken charges =  -0.00000

 Dipole moment (field-independent basis, Debye):
    X=             -1.9046    Y=              1.7999    Z=              1.8353  Tot=              3.1993
 Quadrupole moment (field-independent basis, Debye-Ang):
   XX=           -227.0255   YY=           -235.7745   ZZ=           -264.2915
   XY=             -9.9015   XZ=             35.5970   YZ=              5.5835

 Normal termination of Gaussian 16 at Sat Sep 14 10:13:55 2019.
