 Gaussian 16, Revision A.03,
 Gaussian 16:  ES64L-G16RevA.03 25-Dec-2016

 --------------------------
 # td=(NStates=1) B3LYP/SVP
 --------------------------

 --
 TD
 --
 Symbolic Z-matrix:
 Charge =  0 Multiplicity = 1

                         Standard orientation:
 ---------------------------------------------------------------------
 Center     Atomic      Atomic             Coordinates (Angstroms)
 Number     Number       Type             X           Y           Z
 ---------------------------------------------------------------------
      1          8           0        5.457371   -0.244099   -3.314689
      2          8           0       -2.989852   -2.894625    3.304671
      3          8           0       -3.550468   -0.678375    2.784645
      4          8           0       -0.942453    7.081640    1.688759
      5          8           0       -0.263164    7.019126   -0.482648
      6          8           0       -1.930694   -3.887657    0.080977
      7          7           0        2.272696    0.869945    0.485353
      8          7           0        4.432563   -0.606355   -1.277403
      9          7           0       -1.955610    0.737717   -0.440186
     10          7           0       -2.762773   -1.688945   -0.453954
     11          6           0        4.784008   -1.329508    0.035853
     12          6           0        4.339680   -0.500731    1.171305
     13          6           0        2.973794   -0.066303    1.349388
     14          6           0        1.924231   -0.716489    2.031961
     15          6           0        0.697667   -0.043716    1.794054
     16          6           0        0.945695    0.916845    0.734896
     17          6           0        6.316215   -1.552876   -0.083150
     18          6           0       -0.630633   -0.153394    2.463478
     19          6           0        6.748646   -0.969376   -1.340363
     20          6           0        0.248865    1.908138   -0.006080
     21          6           0       -1.075520    1.849403   -0.378581
     22          6           0        5.615117   -0.554632   -2.068787
     23          6           0       -1.924404    2.894940   -0.852224
     24          6           0        2.082830   -1.805372    3.078732
     25          6           0        7.051563   -2.137909    1.012661
     26          6           0       -3.184920    2.487952   -1.229839
     27          6           0       -1.239231   -1.634272    2.515544
     28          6           0       -3.117311    1.023357   -1.037474
     29          6           0       -1.416408    4.377547   -0.878276
     30          6           0        8.100803   -0.984060   -1.993052
     31          6           0       -1.365855    5.023732    0.470446
     32          6           0       -4.405206    3.196369   -1.866265
     33          6           0       -4.079780   -0.035720   -1.367685
     34          6           0       -2.706104   -1.624082    2.882438
     35          6           0       -3.837675   -1.345151   -1.048754
     36          6           0        9.360232   -0.999008   -1.476654
     37          6           0       -0.789473    6.438579    0.477748
     38          6           0       -4.781049   -2.501668   -1.523420
     39          6           0       -4.072825   -3.634803   -1.058921
     40          6           0       -2.870515   -3.100940   -0.430153
     41          6           0       -6.052865   -2.214477   -2.112167
     42          6           0       -4.491859   -5.022914   -1.121266
     43          6           0       -7.004088   -3.226176   -2.460181
     44          1           0        4.279865   -2.218991    0.237478
     45          1           0        4.938819    0.277824    1.305227
     46          1           0        4.521780   -1.055659    1.934813
     47          1           0        2.966663    1.437050   -0.110129
     48          1           0        3.502678   -0.637244   -1.719318
     49          1           0       -0.646740    0.129157    3.470352
     50          1           0       -1.466637    0.458967    1.849326
     51          1           0        0.591136    2.817203   -0.469126
     52          1           0        3.191948   -1.912420    3.127375
     53          1           0        1.639107   -1.491042    4.142210
     54          1           0        1.664231   -2.677569    2.645508
     55          1           0        6.486183   -2.798519    1.565452
     56          1           0        7.462283   -1.389535    1.778455
     57          1           0        7.912557   -2.747629    0.585602
     58          1           0       -1.250367   -2.160981    1.570778
     59          1           0       -0.849843   -2.296551    3.377231
     60          1           0       -1.831656   -0.239902   -0.102928
     61          1           0       -2.095408    4.785968   -1.704359
     62          1           0       -0.336634    4.491136   -1.213959
     63          1           0        8.130462   -0.757032   -2.969241
     64          1           0       -0.763236    4.300668    1.340869
     65          1           0       -2.570162    4.994575    0.787218
     66          1           0       -4.146946    4.355478   -2.074589
     67          1           0       -5.264531    3.122700   -1.222671
     68          1           0       -4.599919    2.714602   -2.794845
     69          1           0       -4.904449    0.422980   -1.942038
     70          1           0        9.518463   -1.078837   -0.320377
     71          1           0       10.385123   -1.077193   -2.125581
     72          1           0       -3.985813   -3.085614    3.525486
     73          1           0       -6.445914   -1.219520   -2.448736
     74          1           0       -5.521598   -5.256816   -0.753071
     75          1           0       -4.566641   -5.420997   -2.178170
     76          1           0       -3.630070   -5.746953   -0.458295
     77          1           0       -0.717875    8.010098    1.582323
     78          1           0       -7.899842   -2.931871   -2.921100
     79          1           0       -6.712823   -4.251858   -2.098834
 ---------------------------------------------------------------------

 SCF Done:  E(RB3LYP) =  -1947.83095388     A.U. after   19 cycles

 Excitation energies and oscillator strengths:

 Excited State   1:      Singlet-A      2.0543 eV  603.53 nm  f=0.4869  <S**2>=0.000
     154 ->156         0.11688
     155 ->156         0.69500
     155 <-156        -0.11095
 This state for optimization and/or second-order correction.
 Total Energy, E(TD-HF/TD-DFT) =  -1947.75545872
 Copying the excited state density for this state as the 1-particle RhoCI density.

 The electronic state is 1-A.
 Alpha  occ. eigenvalues --  -19.18525 -19.17208 -19.13795 -19.11028 -19.09279
 Alpha  occ. eigenvalues --  -19.09250 -14.38623 -14.35921 -14.35222 -14.29488
 Alpha  occ. eigenvalues --  -10.33615 -10.30867 -10.28592 -10.26557 -10.25065
 Alpha  occ. eigenvalues --  -10.24766 -10.24753 -10.24419 -10.24020 -10.23977
 Alpha  occ. eigenvalues --  -10.23068 -10.22765 -10.22437 -10.22356 -10.22179
 Alpha  occ. eigenvalues --  -10.22080 -10.21759 -10.21682 -10.21588 -10.21390
 Alpha  occ. eigenvalues --  -10.21360 -10.20975 -10.20586 -10.20441 -10.20349
 Alpha  occ. eigenvalues --  -10.20332 -10.20211 -10.19943 -10.19779 -10.19600
 Alpha  occ. eigenvalues --  -10.19183 -10.18917 -10.18805  -1.08996  -1.05386
 Alpha  occ. eigenvalues --   -1.00098  -0.98831  -0.98479  -0.97400  -0.96920
 Alpha  occ. eigenvalues --   -0.96264  -0.91480  -0.91231  -0.83399  -0.82505
 Alpha  occ. eigenvalues --   -0.82208  -0.80718  -0.80446  -0.80311  -0.77973
 Alpha  occ. eigenvalues --   -0.77637  -0.76469  -0.75835  -0.74484  -0.73004
 Alpha  occ. eigenvalues --   -0.72541  -0.71326  -0.69541  -0.68716  -0.67973
 Alpha  occ. eigenvalues --   -0.66969  -0.66769  -0.64354  -0.61227  -0.60479
 Alpha  occ. eigenvalues --   -0.59963  -0.58832  -0.58638  -0.57849  -0.57040
 Alpha  occ. eigenvalues --   -0.55710  -0.54823  -0.54585  -0.53971  -0.53611
 Alpha  occ. eigenvalues --   -0.52388  -0.52315  -0.51509  -0.50235  -0.49213
 Alpha  occ. eigenvalues --   -0.48536  -0.48233  -0.47858  -0.47766  -0.47437
 Alpha  occ. eigenvalues --   -0.46866  -0.46495  -0.46290  -0.45805  -0.45572
 Alpha  occ. eigenvalues --   -0.45253  -0.44803  -0.44672  -0.44156  -0.44057
 Alpha  occ. eigenvalues --   -0.43438  -0.43167  -0.42903  -0.42790  -0.42049
 Alpha  occ. eigenvalues --   -0.41970  -0.41890  -0.41449  -0.41297  -0.41026
 Alpha  occ. eigenvalues --   -0.40654  -0.40549  -0.40141  -0.39628  -0.39263
 Alpha  occ. eigenvalues --   -0.39099  -0.38766  -0.38610  -0.38493  -0.38198
 Alpha  occ. eigenvalues --   -0.37998  -0.37436  -0.37254  -0.36812  -0.36649
 Alpha  occ. eigenvalues --   -0.35724  -0.35358  -0.34927  -0.34754  -0.33770
 Alpha  occ. eigenvalues --   -0.33403  -0.32861  -0.32710  -0.32205  -0.31302
 Alpha  occ. eigenvalues --   -0.30943  -0.30035  -0.28998  -0.28656  -0.27738
 Alpha  occ. eigenvalues --   -0.26125  -0.25886  -0.25857  -0.24963  -0.24693
 Alpha  occ. eigenvalues --   -0.24196  -0.23498  -0.23085  -0.22077  -0.19141
 Alpha virt. eigenvalues --   -0.11065  -0.08308  -0.07376  -0.02523  -0.01015
 Alpha virt. eigenvalues --   -0.00658   0.00910   0.01130   0.02635   0.02951
 Alpha virt. eigenvalues --    0.03445   0.04080   0.04321   0.04678   0.05088

 Mulliken charges:
               1
     1  O   -0.297867
     2  O   -0.238800
     3  O   -0.286784
     4  O   -0.196666
     5  O   -0.242925
     6  O   -0.318677
     7  N   -0.147623
     8  N   -0.248180
     9  N   -0.088653
    10  N   -0.238477
    11  C    0.142864
    12  C    0.396357
    13  C   -0.109419
    14  C   -0.174981
    15  C   -0.030671
    16  C    0.142558
    17  C   -0.158733
    18  C    0.043862
    19  C   -0.008725
    20  C   -0.047527
    21  C    0.061371
    22  C    0.171030
    23  C   -0.110864
    24  C    0.106134
    25  C    0.092767
    26  C   -0.115911
    27  C   -0.049318
    28  C   -0.002443
    29  C    0.054121
    30  C    0.052699
    31  C   -0.117674
    32  C    0.095286
    33  C   -0.104039
    34  C    0.175963
    35  C    0.123289
    36  C   -0.109307
    37  C    0.189600
    38  C    0.086174
    39  C   -0.106744
    40  C    0.188259
    41  C   -0.100227
    42  C   -0.029074
    43  C   -0.004066
    44  H   -0.010323
    45  H   -0.066573
    46  H   -0.113656
    47  H    0.151832
    48  H    0.141667
    49  H   -0.009202
    50  H    0.057243
    51  H   -0.025542
    52  H   -0.011717
    53  H    0.051768
    54  H    0.039490
    55  H   -0.002208
    56  H    0.061242
    57  H    0.051058
    58  H    0.072617
    59  H    0.042189
    60  H    0.163536
    61  H    0.037163
    62  H    0.028186
    63  H   -0.021886
    64  H    0.095434
    65  H    0.071421
    66  H    0.036529
    67  H    0.034940
    68  H    0.034823
    69  H   -0.034678
    70  H    0.029307
    71  H    0.067380
    72  H    0.213089
    73  H    0.012357
    74  H    0.041350
    75  H    0.037734
    76  H    0.066762
    77  H    0.181171
    78  H    0.015523
    79  H    0.022019
 Sum of Mulliken charges =  -0.00000

 Dipole moment (field-independent basis, Debye):
    X=              0.8905    Y=              1.5724    Z=              3.9755  Tot=              4.3669
 Quadrupole moment (field-independent basis, Debye-Ang):
   XX=           -207.9828   YY=           -249.0250   ZZ=           -263.0858
   XY=            -13.5425   XZ=             37.8741   YZ=              0.0634

 Normal termination of Gaussian 16 at Tue Sep 24 20:05:56 2019.
