 Gaussian 16, Revision A.03,
 Gaussian 16:  ES64L-G16RevA.03 25-Dec-2016

 --------------------------
 # td=(NStates=1) B3LYP/SVP
 --------------------------

 --
 TD
 --
 Symbolic Z-matrix:
 Charge =  0 Multiplicity = 1

                         Standard orientation:
 ---------------------------------------------------------------------
 Center     Atomic      Atomic             Coordinates (Angstroms)
 Number     Number       Type             X           Y           Z
 ---------------------------------------------------------------------
      1          8           0       -3.010203   -1.821825   -2.655368
      2          8           0        2.919927    3.506490    2.639223
      3          8           0        3.558907    2.098018    4.140150
      4          8           0        7.667174   -1.674440   -0.369668
      5          8           0        6.825208   -3.132787   -1.767193
      6          8           0       -2.432947    1.933660    1.408884
      7          7           0       -0.240847   -2.299127    1.221509
      8          7           0       -2.553809   -1.290017   -0.455108
      9          7           0        1.148874    0.034128   -0.650557
     10          7           0       -1.026482    1.310156   -0.347604
     11          6           0       -3.343997   -1.268988    0.804571
     12          6           0       -2.656298   -2.188964    1.908119
     13          6           0       -1.230793   -1.893409    2.094551
     14          6           0       -0.590533   -0.850072    2.948074
     15          6           0        0.761989   -0.790917    2.629193
     16          6           0        1.020953   -1.638761    1.437375
     17          6           0       -4.567756   -1.950509    0.423252
     18          6           0        1.691444    0.140614    3.212214
     19          6           0       -4.731080   -2.106631   -0.906495
     20          6           0        2.086922   -1.843586    0.572148
     21          6           0        2.095269   -0.923567   -0.464677
     22          6           0       -3.328899   -1.804777   -1.503370
     23          6           0        2.992259   -0.814531   -1.586153
     24          6           0       -1.338940    0.104756    3.835150
     25          6           0       -5.785197   -1.839373    1.489446
     26          6           0        2.495495    0.197393   -2.440836
     27          6           0        1.869721    1.502464    2.501927
     28          6           0        1.263943    0.699249   -1.952618
     29          6           0        4.283700   -1.600557   -1.760569
     30          6           0       -5.735715   -2.744526   -1.712808
     31          6           0        5.470514   -1.203277   -1.018147
     32          6           0        3.237527    0.655572   -3.772895
     33          6           0        0.277626    1.577447   -2.381427
     34          6           0        2.832512    2.361354    3.213774
     35          6           0       -0.708946    1.972124   -1.599902
     36          6           0       -6.768332   -3.639324   -1.385414
     37          6           0        6.663318   -2.207239   -1.107695
     38          6           0       -1.580419    3.149122   -1.707923
     39          6           0       -2.349650    3.291737   -0.574117
     40          6           0       -1.972832    2.197548    0.329817
     41          6           0       -1.424647    4.150690   -2.799319
     42          6           0       -3.382320    4.211823   -0.189149
     43          6           0       -1.993869    5.359684   -3.024419
     44          1           0       -3.286737   -0.274092    1.158436
     45          1           0       -2.896262   -3.403027    1.615035
     46          1           0       -3.122632   -1.910160    2.825278
     47          1           0       -0.411000   -2.901386    0.280017
     48          1           0       -1.822629   -0.712120   -0.619299
     49          1           0        1.416939    0.241839    4.234401
     50          1           0        2.669941   -0.311456    3.419010
     51          1           0        2.932411   -2.465517    0.796609
     52          1           0       -2.285625   -0.191480    4.495701
     53          1           0       -0.718009    0.645047    4.757273
     54          1           0       -1.826680    0.988594    3.314149
     55          1           0       -5.463229   -0.802634    2.143642
     56          1           0       -5.774935   -2.703624    2.377159
     57          1           0       -6.852351   -1.919605    1.071699
     58          1           0        1.944084    1.427737    1.345454
     59          1           0        0.900176    1.979854    2.571632
     60          1           0        0.297579    0.307704   -0.325131
     61          1           0        4.395909   -1.550342   -2.974475
     62          1           0        3.970046   -2.722905   -1.684601
     63          1           0       -5.782511   -2.457950   -2.763395
     64          1           0        5.092125   -1.161492    0.066520
     65          1           0        5.757466   -0.082910   -1.109920
     66          1           0        4.282701    0.081566   -3.908834
     67          1           0        3.122891    1.864124   -4.024608
     68          1           0        2.463679    0.346599   -4.620649
     69          1           0        0.471498    2.212385   -3.308096
     70          1           0       -6.943635   -4.183166   -0.410672
     71          1           0       -7.504838   -3.859856   -2.151626
     72          1           0        3.712038    4.023529    3.109380
     73          1           0       -0.474595    3.885814   -3.480103
     74          1           0       -4.189850    3.953077   -1.147605
     75          1           0       -3.708730    4.195811    0.976525
     76          1           0       -3.009889    5.179363   -0.246973
     77          1           0        8.518071   -2.409930   -0.249972
     78          1           0       -1.749001    6.084627   -3.903009
     79          1           0       -2.960911    5.471651   -2.244941
 ---------------------------------------------------------------------

 SCF Done:  E(RB3LYP) =  -1947.75129595     A.U. after   20 cycles

 Excitation energies and oscillator strengths:

 Excited State   1:      Singlet-A      0.5656 eV 2192.27 nm  f=0.0040  <S**2>=0.000
     155 ->156         0.70478
 This state for optimization and/or second-order correction.
 Total Energy, E(TD-HF/TD-DFT) =  -1947.73051229
 Copying the excited state density for this state as the 1-particle RhoCI density.

 The electronic state is 1-A.
 Alpha  occ. eigenvalues --  -19.18612 -19.17978 -19.14405 -19.12751 -19.10824
 Alpha  occ. eigenvalues --  -19.08601 -14.37808 -14.36055 -14.31730 -14.30412
 Alpha  occ. eigenvalues --  -10.33020 -10.30356 -10.28190 -10.27138 -10.26812
 Alpha  occ. eigenvalues --  -10.25671 -10.24887 -10.24590 -10.23446 -10.23269
 Alpha  occ. eigenvalues --  -10.23246 -10.23130 -10.22654 -10.22609 -10.22510
 Alpha  occ. eigenvalues --  -10.22509 -10.22273 -10.22056 -10.22010 -10.21607
 Alpha  occ. eigenvalues --  -10.21399 -10.21007 -10.20916 -10.20891 -10.20553
 Alpha  occ. eigenvalues --  -10.19916 -10.19655 -10.19341 -10.19146 -10.18989
 Alpha  occ. eigenvalues --  -10.17775 -10.17564 -10.17141  -1.11563  -1.10773
 Alpha  occ. eigenvalues --   -1.04284  -1.01709  -1.01375  -0.99085  -0.99071
 Alpha  occ. eigenvalues --   -0.94115  -0.91713  -0.91330  -0.83976  -0.83072
 Alpha  occ. eigenvalues --   -0.81140  -0.80287  -0.80067  -0.79198  -0.78678
 Alpha  occ. eigenvalues --   -0.77019  -0.76149  -0.75179  -0.73661  -0.72280
 Alpha  occ. eigenvalues --   -0.70596  -0.69348  -0.68791  -0.67735  -0.67170
 Alpha  occ. eigenvalues --   -0.65507  -0.65158  -0.63524  -0.61085  -0.60351
 Alpha  occ. eigenvalues --   -0.60149  -0.58825  -0.58250  -0.56700  -0.56373
 Alpha  occ. eigenvalues --   -0.55726  -0.54740  -0.54285  -0.52757  -0.52287
 Alpha  occ. eigenvalues --   -0.52208  -0.51634  -0.51495  -0.49861  -0.49359
 Alpha  occ. eigenvalues --   -0.49208  -0.48753  -0.48502  -0.48082  -0.47919
 Alpha  occ. eigenvalues --   -0.47471  -0.47064  -0.46591  -0.46537  -0.45778
 Alpha  occ. eigenvalues --   -0.45615  -0.45304  -0.44522  -0.44000  -0.43769
 Alpha  occ. eigenvalues --   -0.43547  -0.42942  -0.42605  -0.41950  -0.41543
 Alpha  occ. eigenvalues --   -0.41195  -0.41071  -0.40876  -0.40484  -0.40444
 Alpha  occ. eigenvalues --   -0.39911  -0.39861  -0.39576  -0.39083  -0.38958
 Alpha  occ. eigenvalues --   -0.38785  -0.38647  -0.38361  -0.38100  -0.38003
 Alpha  occ. eigenvalues --   -0.37535  -0.37216  -0.36889  -0.36536  -0.36328
 Alpha  occ. eigenvalues --   -0.36072  -0.35814  -0.34638  -0.34488  -0.33851
 Alpha  occ. eigenvalues --   -0.33511  -0.33022  -0.32486  -0.32008  -0.31467
 Alpha  occ. eigenvalues --   -0.31088  -0.30008  -0.29785  -0.29244  -0.28539
 Alpha  occ. eigenvalues --   -0.27240  -0.26718  -0.25803  -0.24568  -0.23996
 Alpha  occ. eigenvalues --   -0.23870  -0.22789  -0.22714  -0.22107  -0.18295
 Alpha virt. eigenvalues --   -0.13639  -0.08346  -0.05047  -0.01856  -0.00440
 Alpha virt. eigenvalues --    0.00268   0.00527   0.01640   0.01701   0.01832
 Alpha virt. eigenvalues --    0.02565   0.03608   0.03742   0.03876   0.04314

 Mulliken charges:
               1
     1  O   -0.207794
     2  O   -0.171478
     3  O   -0.242674
     4  O   -0.281397
     5  O   -0.136358
     6  O   -0.180776
     7  N   -0.152242
     8  N   -0.204525
     9  N   -0.064819
    10  N   -0.419677
    11  C    0.114652
    12  C    0.132788
    13  C   -0.053430
    14  C   -0.044369
    15  C   -0.077257
    16  C    0.044564
    17  C   -0.103583
    18  C    0.132836
    19  C   -0.026604
    20  C   -0.108271
    21  C    0.134312
    22  C    0.130349
    23  C   -0.100963
    24  C   -0.061339
    25  C   -0.061369
    26  C   -0.080391
    27  C   -0.015409
    28  C    0.089105
    29  C    0.014231
    30  C   -0.016887
    31  C   -0.018487
    32  C   -0.024011
    33  C   -0.070996
    34  C    0.108156
    35  C    0.130702
    36  C   -0.060311
    37  C    0.144541
    38  C    0.087273
    39  C   -0.196140
    40  C    0.196066
    41  C   -0.056996
    42  C    0.030613
    43  C   -0.092716
    44  H    0.024640
    45  H    0.025153
    46  H   -0.011884
    47  H    0.164101
    48  H    0.086125
    49  H   -0.021203
    50  H   -0.015685
    51  H    0.005652
    52  H    0.010920
    53  H    0.014074
    54  H    0.055456
    55  H    0.056224
    56  H    0.041972
    57  H    0.054538
    58  H    0.056550
    59  H    0.027804
    60  H    0.104012
    61  H    0.028025
    62  H    0.044347
    63  H    0.012594
    64  H    0.042486
    65  H    0.062190
    66  H    0.072280
    67  H    0.053359
    68  H    0.048284
    69  H   -0.000525
    70  H    0.031000
    71  H    0.023872
    72  H    0.210880
    73  H    0.010804
    74  H    0.085976
    75  H    0.061526
    76  H    0.026927
    77  H    0.243704
    78  H    0.064074
    79  H    0.040826
 Sum of Mulliken charges =  -0.00000

 Dipole moment (field-independent basis, Debye):
    X=              2.6679    Y=              3.0217    Z=             -2.1335  Tot=              4.5607
 Quadrupole moment (field-independent basis, Debye-Ang):
   XX=           -230.1664   YY=           -237.6185   ZZ=           -269.8596
   XY=             -3.1389   XZ=            -14.7368   YZ=            -16.9336

 Normal termination of Gaussian 16 at Wed Jul 24 09:13:56 2019.
