 Gaussian 16, Revision A.03,
 Gaussian 16:  ES64L-G16RevA.03 25-Dec-2016

 --------------------------
 # td=(NStates=1) B3LYP/SVP
 --------------------------

 --
 TD
 --
 Symbolic Z-matrix:
 Charge =  0 Multiplicity = 1

                         Standard orientation:
 ---------------------------------------------------------------------
 Center     Atomic      Atomic             Coordinates (Angstroms)
 Number     Number       Type             X           Y           Z
 ---------------------------------------------------------------------
      1          8           0       -3.221218   -1.226056   -2.861850
      2          8           0        2.938904    3.201163    3.226432
      3          8           0        3.601351    1.498819    4.446139
      4          8           0        7.862026   -1.459427   -0.746116
      5          8           0        6.666720   -2.938166   -2.048160
      6          8           0       -2.734160    1.643726    1.360691
      7          7           0       -0.189658   -2.382585    0.923332
      8          7           0       -2.707979   -1.162393   -0.602375
      9          7           0        1.110178   -0.032901   -0.838292
     10          7           0       -0.988415    1.422778   -0.210274
     11          6           0       -3.380864   -1.330023    0.674287
     12          6           0       -2.602929   -2.413188    1.650269
     13          6           0       -1.261079   -2.084088    1.833183
     14          6           0       -0.533184   -1.304979    2.804081
     15          6           0        0.749945   -1.070804    2.515599
     16          6           0        0.925328   -1.812195    1.260844
     17          6           0       -4.710691   -1.886420    0.229519
     18          6           0        1.901091   -0.334462    3.184957
     19          6           0       -4.824568   -1.970733   -1.138361
     20          6           0        2.097081   -1.921293    0.387589
     21          6           0        2.083531   -0.974621   -0.678326
     22          6           0       -3.565081   -1.428778   -1.708757
     23          6           0        3.062266   -0.711317   -1.750151
     24          6           0       -1.335325   -0.511866    3.938107
     25          6           0       -5.720775   -2.069937    1.285713
     26          6           0        2.593825    0.428967   -2.394698
     27          6           0        1.823857    1.185376    2.910566
     28          6           0        1.471179    0.924362   -1.828355
     29          6           0        4.309900   -1.541392   -1.980221
     30          6           0       -5.891188   -2.471952   -1.973981
     31          6           0        5.525903   -1.011622   -1.211612
     32          6           0        3.198132    0.964420   -3.657143
     33          6           0        0.475804    1.958625   -2.017052
     34          6           0        2.808085    2.003685    3.684577
     35          6           0       -0.610371    2.192773   -1.209892
     36          6           0       -6.809538   -3.368822   -1.546422
     37          6           0        6.683873   -1.985276   -1.368989
     38          6           0       -1.485042    3.334791   -1.282971
     39          6           0       -2.393315    3.337564   -0.398508
     40          6           0       -2.054092    2.038927    0.395557
     41          6           0       -1.227687    4.435874   -2.263354
     42          6           0       -3.374853    4.329985    0.130429
     43          6           0       -1.951122    5.599712   -2.393767
     44          1           0       -3.444573   -0.389293    1.343515
     45          1           0       -2.698545   -3.386757    1.272828
     46          1           0       -3.106702   -2.441326    2.545015
     47          1           0       -0.478073   -2.819765   -0.051299
     48          1           0       -2.065624   -0.513789   -0.740787
     49          1           0        1.993858   -0.312994    4.361696
     50          1           0        2.979301   -0.649359    2.934472
     51          1           0        2.918715   -2.603280    0.525827
     52          1           0       -2.270714   -1.085529    4.195012
     53          1           0       -0.713310   -0.192857    4.818251
     54          1           0       -1.871992    0.374570    3.494773
     55          1           0       -5.627828   -1.297772    1.928800
     56          1           0       -5.699373   -3.064885    1.711559
     57          1           0       -6.680097   -1.947450    0.609947
     58          1           0        2.091080    1.484766    1.768217
     59          1           0        0.610629    1.350403    2.985969
     60          1           0        0.388013    0.393861   -0.239127
     61          1           0        4.416944   -1.493875   -3.079473
     62          1           0        4.042505   -2.555588   -1.691428
     63          1           0       -5.860437   -1.971686   -3.026612
     64          1           0        5.055361   -1.186834   -0.081510
     65          1           0        5.740172   -0.061804   -1.357002
     66          1           0        3.878113    0.422842   -4.290320
     67          1           0        3.675833    2.049374   -3.506366
     68          1           0        2.249367    1.283811   -4.440140
     69          1           0        0.798393    2.549985   -2.817682
     70          1           0       -6.627298   -3.852907   -0.569592
     71          1           0       -7.552913   -3.478055   -2.302835
     72          1           0        3.802747    3.559558    3.525283
     73          1           0       -0.051099    4.371100   -2.814450
     74          1           0       -4.177770    4.353379   -0.662431
     75          1           0       -3.840608    4.027462    0.941937
     76          1           0       -3.076890    5.313135    0.411913
     77          1           0        8.526292   -2.114014   -0.918992
     78          1           0       -1.696429    6.264110   -3.321484
     79          1           0       -2.973515    5.758947   -1.883609
 ---------------------------------------------------------------------

 SCF Done:  E(RB3LYP) =  -1947.82933525     A.U. after   18 cycles

 Excitation energies and oscillator strengths:

 Excited State   1:      Singlet-A      0.7686 eV 1613.13 nm  f=0.0063  <S**2>=0.000
     155 ->156         0.70525
 This state for optimization and/or second-order correction.
 Total Energy, E(TD-HF/TD-DFT) =  -1947.80108996
 Copying the excited state density for this state as the 1-particle RhoCI density.

 The electronic state is 1-A.
 Alpha  occ. eigenvalues --  -19.18784 -19.18339 -19.15779 -19.11875 -19.11665
 Alpha  occ. eigenvalues --  -19.08650 -14.38019 -14.36185 -14.31440 -14.30790
 Alpha  occ. eigenvalues --  -10.33998 -10.31311 -10.28124 -10.26659 -10.26184
 Alpha  occ. eigenvalues --  -10.25946 -10.24474 -10.23688 -10.23458 -10.23270
 Alpha  occ. eigenvalues --  -10.23190 -10.22482 -10.22470 -10.22389 -10.22313
 Alpha  occ. eigenvalues --  -10.21563 -10.21073 -10.21062 -10.20666 -10.20274
 Alpha  occ. eigenvalues --  -10.20219 -10.19863 -10.19650 -10.19525 -10.19520
 Alpha  occ. eigenvalues --  -10.18777 -10.18563 -10.18511 -10.18489 -10.18331
 Alpha  occ. eigenvalues --  -10.18125 -10.17614 -10.17499  -1.11832  -1.11057
 Alpha  occ. eigenvalues --   -1.02837  -1.01904  -1.00548  -1.00506  -0.99484
 Alpha  occ. eigenvalues --   -0.97370  -0.95201  -0.91382  -0.84206  -0.82642
 Alpha  occ. eigenvalues --   -0.81890  -0.81143  -0.79666  -0.79610  -0.79192
 Alpha  occ. eigenvalues --   -0.76839  -0.75777  -0.75248  -0.74412  -0.72820
 Alpha  occ. eigenvalues --   -0.71501  -0.70910  -0.69719  -0.69107  -0.67804
 Alpha  occ. eigenvalues --   -0.66532  -0.66085  -0.63655  -0.61133  -0.60706
 Alpha  occ. eigenvalues --   -0.59481  -0.59417  -0.59102  -0.57820  -0.56618
 Alpha  occ. eigenvalues --   -0.55988  -0.55529  -0.55128  -0.53225  -0.52732
 Alpha  occ. eigenvalues --   -0.52404  -0.51908  -0.50911  -0.50265  -0.50095
 Alpha  occ. eigenvalues --   -0.49734  -0.49525  -0.48933  -0.48565  -0.48317
 Alpha  occ. eigenvalues --   -0.47742  -0.47462  -0.47170  -0.46284  -0.45604
 Alpha  occ. eigenvalues --   -0.45310  -0.44960  -0.44707  -0.44482  -0.44309
 Alpha  occ. eigenvalues --   -0.43812  -0.43543  -0.42817  -0.42634  -0.42205
 Alpha  occ. eigenvalues --   -0.42050  -0.41673  -0.41548  -0.41114  -0.40955
 Alpha  occ. eigenvalues --   -0.40698  -0.40479  -0.40208  -0.40076  -0.39823
 Alpha  occ. eigenvalues --   -0.39556  -0.39219  -0.38756  -0.38505  -0.37868
 Alpha  occ. eigenvalues --   -0.37701  -0.37598  -0.36775  -0.36632  -0.36381
 Alpha  occ. eigenvalues --   -0.36195  -0.35550  -0.35484  -0.34994  -0.34245
 Alpha  occ. eigenvalues --   -0.33955  -0.33726  -0.32952  -0.32140  -0.31593
 Alpha  occ. eigenvalues --   -0.31202  -0.30840  -0.29998  -0.29161  -0.29076
 Alpha  occ. eigenvalues --   -0.27691  -0.26905  -0.25354  -0.24690  -0.24293
 Alpha  occ. eigenvalues --   -0.24242  -0.23620  -0.22790  -0.22309  -0.18444
 Alpha virt. eigenvalues --   -0.13118  -0.07001  -0.04442  -0.02010  -0.01599
 Alpha virt. eigenvalues --   -0.00116   0.01302   0.01838   0.02350   0.02988
 Alpha virt. eigenvalues --    0.03599   0.04496   0.04728   0.04986   0.05410

 Mulliken charges:
               1
     1  O   -0.230521
     2  O   -0.130607
     3  O   -0.244535
     4  O   -0.231995
     5  O   -0.160393
     6  O   -0.234226
     7  N   -0.070766
     8  N   -0.174917
     9  N   -0.113820
    10  N   -0.269901
    11  C    0.021533
    12  C    0.289116
    13  C   -0.098510
    14  C   -0.121443
    15  C   -0.008251
    16  C   -0.037383
    17  C   -0.201017
    18  C    0.056349
    19  C   -0.042753
    20  C   -0.068844
    21  C    0.077716
    22  C    0.131918
    23  C   -0.117628
    24  C    0.028710
    25  C    0.126395
    26  C   -0.056118
    27  C   -0.162063
    28  C    0.054319
    29  C    0.129927
    30  C   -0.068251
    31  C    0.018694
    32  C   -0.028188
    33  C   -0.062787
    34  C    0.146695
    35  C    0.159449
    36  C    0.007436
    37  C    0.166356
    38  C    0.084128
    39  C   -0.236490
    40  C    0.159273
    41  C   -0.066999
    42  C    0.182571
    43  C   -0.080510
    44  H    0.079507
    45  H   -0.048181
    46  H   -0.045947
    47  H    0.159384
    48  H    0.073495
    49  H    0.036847
    50  H    0.004680
    51  H    0.009990
    52  H   -0.008928
    53  H    0.024976
    54  H    0.044013
    55  H   -0.002512
    56  H    0.036960
    57  H    0.041511
    58  H    0.049275
    59  H    0.089135
    60  H    0.178440
    61  H    0.020060
    62  H    0.020673
    63  H    0.032833
    64  H    0.066615
    65  H    0.000379
    66  H    0.031665
    67  H    0.043105
    68  H    0.048307
    69  H   -0.054876
    70  H    0.030602
    71  H    0.019016
    72  H    0.184557
    73  H    0.039404
    74  H    0.030966
    75  H   -0.041088
    76  H    0.027478
    77  H    0.166002
    78  H    0.047239
    79  H    0.042749
 Sum of Mulliken charges =  -0.00000

 Dipole moment (field-independent basis, Debye):
    X=              3.6908    Y=              1.7144    Z=             -1.3089  Tot=              4.2748
 Quadrupole moment (field-independent basis, Debye-Ang):
   XX=           -230.7382   YY=           -237.5638   ZZ=           -271.8301
   XY=              3.5896   XZ=            -22.0134   YZ=             -9.5140

 Normal termination of Gaussian 16 at Wed Jul 31 01:28:44 2019.
