 Gaussian 16, Revision A.03,
 Gaussian 16:  ES64L-G16RevA.03 25-Dec-2016

 --------------------------
 # td=(NStates=1) B3LYP/SVP
 --------------------------

 --
 TD
 --
 Symbolic Z-matrix:
 Charge =  0 Multiplicity = 1

                         Standard orientation:
 ---------------------------------------------------------------------
 Center     Atomic      Atomic             Coordinates (Angstroms)
 Number     Number       Type             X           Y           Z
 ---------------------------------------------------------------------
      1          8           0        5.492574    0.162250   -3.212574
      2          8           0       -3.243372   -2.944197    3.053227
      3          8           0       -3.434308   -0.657514    2.848120
      4          8           0       -1.552746    7.099859    1.591167
      5          8           0       -0.839218    7.071322   -0.604140
      6          8           0       -1.714955   -4.055247   -0.110059
      7          7           0        2.370586    0.838840    0.667589
      8          7           0        4.521611   -0.312651   -1.166082
      9          7           0       -1.860880    0.716465   -0.293759
     10          7           0       -2.615117   -1.887850   -0.465187
     11          6           0        4.842189   -1.184045   -0.037278
     12          6           0        4.418272   -0.350074    1.228019
     13          6           0        2.948711   -0.151476    1.390980
     14          6           0        1.895414   -0.738801    2.099862
     15          6           0        0.690026   -0.136853    1.819057
     16          6           0        0.968053    0.910126    0.957252
     17          6           0        6.339506   -1.342029   -0.193035
     18          6           0       -0.644046   -0.344201    2.611724
     19          6           0        6.841540   -0.857149   -1.339482
     20          6           0        0.186048    1.893312    0.232978
     21          6           0       -1.081643    1.825727   -0.243825
     22          6           0        5.568322   -0.303716   -2.111992
     23          6           0       -1.905097    2.862815   -0.851887
     24          6           0        2.232141   -1.768392    3.227048
     25          6           0        7.229780   -2.049709    0.820825
     26          6           0       -3.015577    2.344642   -1.317023
     27          6           0       -1.280604   -1.766067    2.464201
     28          6           0       -3.060209    0.940139   -1.007009
     29          6           0       -1.516600    4.367324   -0.806429
     30          6           0        8.103375   -0.830128   -2.004302
     31          6           0       -1.752065    5.085702    0.519869
     32          6           0       -4.194501    3.101062   -1.979637
     33          6           0       -3.966161   -0.065072   -1.292886
     34          6           0       -2.742117   -1.743885    2.885909
     35          6           0       -3.720411   -1.430929   -1.080378
     36          6           0        9.247715   -0.855802   -1.374058
     37          6           0       -1.320034    6.528999    0.334973
     38          6           0       -4.506773   -2.577094   -1.593406
     39          6           0       -4.022106   -3.680781   -1.092193
     40          6           0       -2.686876   -3.267851   -0.535755
     41          6           0       -5.991514   -2.351947   -2.034682
     42          6           0       -4.473519   -5.179228   -1.333234
     43          6           0       -6.775824   -3.307258   -2.394173
     44          1           0        4.289529   -2.070897   -0.154716
     45          1           0        4.826657    0.689110    0.995526
     46          1           0        4.879464   -1.020851    2.017349
     47          1           0        2.782523    1.671925    0.065486
     48          1           0        3.551513   -0.277934   -1.410658
     49          1           0       -0.407501   -0.401333    3.653984
     50          1           0       -1.395375    0.363500    2.397210
     51          1           0        0.793573    2.756621    0.015369
     52          1           0        3.190727   -1.623872    3.777728
     53          1           0        1.430044   -1.725659    4.041953
     54          1           0        2.169406   -3.066169    2.927988
     55          1           0        6.702600   -2.690098    1.406523
     56          1           0        7.627599   -1.400513    1.711417
     57          1           0        8.084712   -2.700212    0.285987
     58          1           0       -1.343895   -2.540979    1.379631
     59          1           0       -0.913949   -2.567034    3.153132
     60          1           0       -1.665602   -0.411122   -0.292607
     61          1           0       -2.156857    4.779971   -1.851540
     62          1           0       -0.411445    4.659858   -1.091814
     63          1           0        8.055536   -0.630418   -3.024551
     64          1           0       -0.937046    4.529910    1.344497
     65          1           0       -2.837930    5.130567    0.733387
     66          1           0       -3.788350    4.183091   -2.167912
     67          1           0       -5.036501    2.922895   -1.306087
     68          1           0       -4.540475    2.660896   -3.002641
     69          1           0       -4.609666    0.271436   -1.862010
     70          1           0        9.433880   -1.009546   -0.369246
     71          1           0       10.263896   -0.656149   -1.969002
     72          1           0       -4.162193   -2.864336    3.265435
     73          1           0       -6.308999   -1.465401   -2.354227
     74          1           0       -5.281737   -5.486193   -0.615554
     75          1           0       -4.833293   -5.275557   -2.388178
     76          1           0       -3.508622   -5.905173   -1.181565
     77          1           0       -1.508803    8.089038    1.752756
     78          1           0       -7.805820   -2.912812   -2.922813
     79          1           0       -6.337304   -4.366119   -2.504278
 ---------------------------------------------------------------------

 SCF Done:  E(RB3LYP) =  -1947.78708535     A.U. after   17 cycles

 Excitation energies and oscillator strengths:

 Excited State   1:      Singlet-A      2.0988 eV  590.75 nm  f=0.4670  <S**2>=0.000
     155 ->156         0.70593
     155 <-156        -0.11960
 This state for optimization and/or second-order correction.
 Total Energy, E(TD-HF/TD-DFT) =  -1947.70995695
 Copying the excited state density for this state as the 1-particle RhoCI density.

 The electronic state is 1-A.
 Alpha  occ. eigenvalues --  -19.17883 -19.17552 -19.14599 -19.10721 -19.10208
 Alpha  occ. eigenvalues --  -19.09594 -14.39203 -14.35671 -14.34557 -14.29971
 Alpha  occ. eigenvalues --  -10.33199 -10.30095 -10.28858 -10.27138 -10.24440
 Alpha  occ. eigenvalues --  -10.24390 -10.23794 -10.23744 -10.23583 -10.23331
 Alpha  occ. eigenvalues --  -10.23058 -10.22915 -10.22673 -10.21981 -10.21955
 Alpha  occ. eigenvalues --  -10.21670 -10.21629 -10.21230 -10.21157 -10.20849
 Alpha  occ. eigenvalues --  -10.20464 -10.20437 -10.20185 -10.20088 -10.19891
 Alpha  occ. eigenvalues --  -10.19853 -10.19586 -10.19425 -10.19376 -10.19139
 Alpha  occ. eigenvalues --  -10.18927 -10.18835 -10.18043  -1.09215  -1.08916
 Alpha  occ. eigenvalues --   -1.03416  -1.01230  -0.98430  -0.97963  -0.97280
 Alpha  occ. eigenvalues --   -0.95302  -0.93931  -0.91728  -0.82763  -0.82171
 Alpha  occ. eigenvalues --   -0.82079  -0.80787  -0.80449  -0.79565  -0.78032
 Alpha  occ. eigenvalues --   -0.77613  -0.76107  -0.75436  -0.75269  -0.72248
 Alpha  occ. eigenvalues --   -0.71004  -0.70210  -0.69230  -0.68106  -0.67383
 Alpha  occ. eigenvalues --   -0.67238  -0.65997  -0.64380  -0.61802  -0.60978
 Alpha  occ. eigenvalues --   -0.59924  -0.58910  -0.58267  -0.57332  -0.56909
 Alpha  occ. eigenvalues --   -0.55946  -0.54838  -0.54661  -0.53996  -0.53535
 Alpha  occ. eigenvalues --   -0.52319  -0.51688  -0.51092  -0.50597  -0.49114
 Alpha  occ. eigenvalues --   -0.48903  -0.48346  -0.48240  -0.47969  -0.47204
 Alpha  occ. eigenvalues --   -0.46753  -0.46644  -0.45728  -0.45424  -0.45060
 Alpha  occ. eigenvalues --   -0.45003  -0.44521  -0.44396  -0.43750  -0.43575
 Alpha  occ. eigenvalues --   -0.43208  -0.42687  -0.42248  -0.41874  -0.41784
 Alpha  occ. eigenvalues --   -0.41634  -0.41226  -0.41049  -0.40770  -0.40514
 Alpha  occ. eigenvalues --   -0.40361  -0.39896  -0.39498  -0.39388  -0.39165
 Alpha  occ. eigenvalues --   -0.38933  -0.38659  -0.38534  -0.38181  -0.38042
 Alpha  occ. eigenvalues --   -0.37731  -0.37370  -0.36965  -0.36797  -0.36433
 Alpha  occ. eigenvalues --   -0.36178  -0.35821  -0.35182  -0.34204  -0.33772
 Alpha  occ. eigenvalues --   -0.33542  -0.33214  -0.32891  -0.32298  -0.31605
 Alpha  occ. eigenvalues --   -0.31261  -0.29688  -0.29251  -0.28513  -0.27396
 Alpha  occ. eigenvalues --   -0.26915  -0.26522  -0.25750  -0.25341  -0.24920
 Alpha  occ. eigenvalues --   -0.24792  -0.24602  -0.23801  -0.23392  -0.19300
 Alpha virt. eigenvalues --   -0.11235  -0.06153  -0.05374  -0.01196  -0.00388
 Alpha virt. eigenvalues --    0.00641   0.01213   0.01469   0.02299   0.02774
 Alpha virt. eigenvalues --    0.03106   0.03714   0.04110   0.04395   0.04997

 Mulliken charges:
               1
     1  O   -0.189680
     2  O   -0.118799
     3  O   -0.325433
     4  O   -0.271178
     5  O   -0.171452
     6  O   -0.307936
     7  N   -0.157969
     8  N   -0.238133
     9  N   -0.154495
    10  N   -0.274014
    11  C    0.131563
    12  C    0.181363
    13  C   -0.041454
    14  C   -0.095425
    15  C   -0.062716
    16  C    0.034379
    17  C   -0.188295
    18  C    0.179941
    19  C   -0.024359
    20  C   -0.068198
    21  C    0.122888
    22  C    0.146025
    23  C   -0.021092
    24  C   -0.030213
    25  C    0.058751
    26  C   -0.105182
    27  C   -0.138992
    28  C    0.037496
    29  C   -0.071482
    30  C    0.045006
    31  C   -0.021826
    32  C    0.062726
    33  C    0.091142
    34  C    0.130804
    35  C    0.102509
    36  C   -0.034158
    37  C    0.166093
    38  C    0.001804
    39  C   -0.144085
    40  C    0.182523
    41  C    0.058735
    42  C    0.017624
    43  C   -0.078672
    44  H    0.014473
    45  H    0.011222
    46  H    0.004747
    47  H    0.162949
    48  H    0.115558
    49  H   -0.003403
    50  H    0.017460
    51  H   -0.032854
    52  H    0.028721
    53  H    0.020616
    54  H    0.042000
    55  H   -0.024502
    56  H    0.042078
    57  H    0.059193
    58  H    0.140384
    59  H    0.013462
    60  H    0.213384
    61  H    0.049262
    62  H    0.040277
    63  H   -0.013344
    64  H    0.095523
    65  H    0.053030
    66  H    0.032787
    67  H    0.038575
    68  H    0.039824
    69  H   -0.167424
    70  H    0.002880
    71  H    0.038294
    72  H    0.166517
    73  H   -0.045369
    74  H    0.044533
    75  H    0.052588
    76  H    0.062631
    77  H    0.199341
    78  H    0.042643
    79  H    0.025811
 Sum of Mulliken charges =  -0.00000

 Dipole moment (field-independent basis, Debye):
    X=              0.2692    Y=              2.5110    Z=              2.5983  Tot=              3.6233
 Quadrupole moment (field-independent basis, Debye-Ang):
   XX=           -219.5670   YY=           -242.9031   ZZ=           -259.6243
   XY=            -10.5456   XZ=             31.0916   YZ=              7.6061

 Normal termination of Gaussian 16 at Wed Oct  9 17:25:32 2019.
