 Gaussian 16, Revision A.03,
 Gaussian 16:  ES64L-G16RevA.03 25-Dec-2016

 --------------------------
 # td=(NStates=1) B3LYP/SVP
 --------------------------

 --
 TD
 --
 Symbolic Z-matrix:
 Charge =  0 Multiplicity = 1

                         Standard orientation:
 ---------------------------------------------------------------------
 Center     Atomic      Atomic             Coordinates (Angstroms)
 Number     Number       Type             X           Y           Z
 ---------------------------------------------------------------------
      1          8           0        5.318393   -0.163514   -3.246635
      2          8           0       -3.428516   -2.706451    3.147587
      3          8           0       -3.565785   -0.519013    2.864898
      4          8           0       -1.274168    7.179100    1.502621
      5          8           0       -0.062825    6.969485   -0.371029
      6          8           0       -1.880395   -3.870426    0.262207
      7          7           0        2.412255    0.820283    0.783633
      8          7           0        4.287418   -0.718221   -1.216178
      9          7           0       -1.876259    0.792092   -0.306368
     10          7           0       -2.641071   -1.695840   -0.561119
     11          6           0        4.760095   -1.355625    0.063038
     12          6           0        4.366174   -0.577677    1.341102
     13          6           0        2.909006   -0.259038    1.408862
     14          6           0        1.875399   -0.819090    2.177917
     15          6           0        0.653056   -0.073884    1.917349
     16          6           0        1.023679    1.009049    0.971561
     17          6           0        6.212798   -1.555446   -0.138232
     18          6           0       -0.711342   -0.248625    2.468226
     19          6           0        6.579972   -1.052221   -1.379746
     20          6           0        0.295596    1.957892    0.194190
     21          6           0       -1.004607    1.889714   -0.266875
     22          6           0        5.327180   -0.607185   -2.122388
     23          6           0       -1.807476    2.893719   -0.966455
     24          6           0        2.039999   -1.964905    3.126214
     25          6           0        7.040918   -2.056707    0.914224
     26          6           0       -2.982812    2.491835   -1.377655
     27          6           0       -1.405235   -1.621737    2.515163
     28          6           0       -2.986855    1.043576   -1.018456
     29          6           0       -1.250254    4.337577   -1.008518
     30          6           0        7.855055   -0.926900   -2.006980
     31          6           0       -1.307450    5.035699    0.377842
     32          6           0       -4.052235    3.268071   -2.087679
     33          6           0       -3.954116    0.060080   -1.344357
     34          6           0       -2.889441   -1.462854    2.878852
     35          6           0       -3.719653   -1.361275   -1.238549
     36          6           0        9.112591   -1.103758   -1.526682
     37          6           0       -0.791754    6.521378    0.466420
     38          6           0       -4.598522   -2.485905   -1.545868
     39          6           0       -3.938054   -3.602637   -1.012153
     40          6           0       -2.767096   -3.122857   -0.412303
     41          6           0       -5.922902   -2.364998   -2.314862
     42          6           0       -4.507909   -5.049180   -1.023002
     43          6           0       -6.698527   -3.350576   -2.585954
     44          1           0        4.334594   -2.295296    0.152552
     45          1           0        5.082387    0.551714    1.191587
     46          1           0        4.721354   -1.171469    2.200645
     47          1           0        2.642561    1.351931    0.024018
     48          1           0        3.359741   -0.706143   -1.473799
     49          1           0       -0.706403    0.279696    3.421600
     50          1           0       -1.359858    0.356740    1.917455
     51          1           0        0.890598    2.792620   -0.103927
     52          1           0        3.148719   -2.195813    2.956766
     53          1           0        1.628838   -1.620783    4.093045
     54          1           0        1.486534   -2.778652    2.518536
     55          1           0        6.434564   -2.639898    1.491092
     56          1           0        7.491121   -1.346647    1.625775
     57          1           0        7.562933   -2.834199    0.433473
     58          1           0       -1.454049   -2.254696    1.599655
     59          1           0       -0.931244   -2.345671    3.204076
     60          1           0       -1.637404   -0.180913   -0.165974
     61          1           0       -1.804405    4.999477   -1.589116
     62          1           0       -0.276717    4.347462   -1.385558
     63          1           0        7.514755   -0.669131   -3.228943
     64          1           0       -0.394998    4.480779    1.082775
     65          1           0       -2.378184    4.975938    0.912068
     66          1           0       -3.594759    4.182339   -2.661559
     67          1           0       -4.945770    3.451689   -1.389068
     68          1           0       -4.402237    2.338494   -2.885841
     69          1           0       -4.925045    0.420947   -1.755718
     70          1           0        9.284584   -1.570539   -0.438883
     71          1           0        9.890139   -1.042511   -2.141219
     72          1           0       -4.338405   -2.497088    3.019726
     73          1           0       -6.163439   -1.326082   -2.575482
     74          1           0       -5.472252   -5.040637   -0.498614
     75          1           0       -4.648231   -5.266981   -2.029120
     76          1           0       -3.812066   -5.608315   -0.411836
     77          1           0       -0.830316    8.025370    1.482654
     78          1           0       -7.694323   -3.165299   -2.996114
     79          1           0       -6.365015   -4.413154   -2.439147
 ---------------------------------------------------------------------

 SCF Done:  E(RB3LYP) =  -1947.86319290     A.U. after   19 cycles

 Excitation energies and oscillator strengths:

 Excited State   1:      Singlet-A      1.8775 eV  660.38 nm  f=0.3490  <S**2>=0.000
     154 ->156         0.13407
     155 ->156         0.68063
     155 <-156        -0.12376
 This state for optimization and/or second-order correction.
 Total Energy, E(TD-HF/TD-DFT) =  -1947.79419765
 Copying the excited state density for this state as the 1-particle RhoCI density.

 The electronic state is 1-A.
 Alpha  occ. eigenvalues --  -19.19879 -19.15022 -19.13084 -19.11881 -19.10555
 Alpha  occ. eigenvalues --  -19.10489 -14.38255 -14.36838 -14.35594 -14.29267
 Alpha  occ. eigenvalues --  -10.32769 -10.29946 -10.28736 -10.26694 -10.25352
 Alpha  occ. eigenvalues --  -10.24729 -10.24663 -10.24437 -10.23961 -10.23601
 Alpha  occ. eigenvalues --  -10.23563 -10.23371 -10.23275 -10.22762 -10.21602
 Alpha  occ. eigenvalues --  -10.21147 -10.20942 -10.20783 -10.20779 -10.20779
 Alpha  occ. eigenvalues --  -10.20744 -10.20388 -10.20235 -10.20151 -10.20088
 Alpha  occ. eigenvalues --  -10.19921 -10.19727 -10.19657 -10.19617 -10.19470
 Alpha  occ. eigenvalues --  -10.18762 -10.18392 -10.18273  -1.12244  -1.09366
 Alpha  occ. eigenvalues --   -1.03065  -1.02403  -1.00142  -0.99442  -0.99101
 Alpha  occ. eigenvalues --   -0.96892  -0.94100  -0.91400  -0.83567  -0.83191
 Alpha  occ. eigenvalues --   -0.82242  -0.81505  -0.80725  -0.79639  -0.77817
 Alpha  occ. eigenvalues --   -0.77367  -0.76677  -0.75928  -0.74982  -0.72577
 Alpha  occ. eigenvalues --   -0.72017  -0.71320  -0.70174  -0.70127  -0.68687
 Alpha  occ. eigenvalues --   -0.67202  -0.66886  -0.64698  -0.61975  -0.61199
 Alpha  occ. eigenvalues --   -0.60735  -0.58635  -0.58145  -0.57567  -0.56978
 Alpha  occ. eigenvalues --   -0.56863  -0.55695  -0.55275  -0.54413  -0.53252
 Alpha  occ. eigenvalues --   -0.52042  -0.51475  -0.51047  -0.50145  -0.49787
 Alpha  occ. eigenvalues --   -0.49571  -0.48957  -0.48790  -0.48059  -0.47559
 Alpha  occ. eigenvalues --   -0.47308  -0.47195  -0.46938  -0.46631  -0.46274
 Alpha  occ. eigenvalues --   -0.45541  -0.45089  -0.44855  -0.44454  -0.44301
 Alpha  occ. eigenvalues --   -0.44007  -0.43747  -0.43364  -0.43278  -0.42734
 Alpha  occ. eigenvalues --   -0.42594  -0.42218  -0.42079  -0.41884  -0.41735
 Alpha  occ. eigenvalues --   -0.41489  -0.40964  -0.40758  -0.40420  -0.40317
 Alpha  occ. eigenvalues --   -0.39836  -0.39720  -0.39078  -0.38967  -0.38615
 Alpha  occ. eigenvalues --   -0.37972  -0.37775  -0.37091  -0.36893  -0.36780
 Alpha  occ. eigenvalues --   -0.35965  -0.35677  -0.35266  -0.35018  -0.34846
 Alpha  occ. eigenvalues --   -0.33524  -0.32986  -0.32828  -0.32393  -0.31632
 Alpha  occ. eigenvalues --   -0.31044  -0.30966  -0.29271  -0.28458  -0.28054
 Alpha  occ. eigenvalues --   -0.27292  -0.27257  -0.26994  -0.26040  -0.24530
 Alpha  occ. eigenvalues --   -0.24158  -0.23936  -0.23502  -0.22791  -0.19185
 Alpha virt. eigenvalues --   -0.11791  -0.07309  -0.06197  -0.00745   0.00052
 Alpha virt. eigenvalues --    0.00749   0.01458   0.02574   0.03037   0.03090
 Alpha virt. eigenvalues --    0.03879   0.04149   0.04530   0.04871   0.05257

 Mulliken charges:
               1
     1  O   -0.211116
     2  O   -0.193132
     3  O   -0.180377
     4  O   -0.131835
     5  O   -0.218854
     6  O   -0.321019
     7  N   -0.007297
     8  N   -0.196683
     9  N   -0.042144
    10  N   -0.296769
    11  C    0.170139
    12  C    0.059007
    13  C   -0.028758
    14  C   -0.190054
    15  C   -0.101695
    16  C   -0.002535
    17  C   -0.246626
    18  C    0.146344
    19  C   -0.081793
    20  C   -0.049767
    21  C    0.115171
    22  C    0.171907
    23  C   -0.093648
    24  C    0.097741
    25  C    0.228379
    26  C   -0.097542
    27  C   -0.009481
    28  C    0.057992
    29  C    0.210087
    30  C   -0.063651
    31  C   -0.130207
    32  C   -0.005668
    33  C   -0.103661
    34  C    0.102185
    35  C    0.079530
    36  C   -0.018239
    37  C    0.111597
    38  C   -0.017600
    39  C   -0.186363
    40  C    0.181369
    41  C    0.032059
    42  C    0.155405
    43  C   -0.019943
    44  H   -0.011247
    45  H    0.039726
    46  H    0.012672
    47  H    0.079039
    48  H    0.103772
    49  H    0.004685
    50  H   -0.029606
    51  H   -0.015430
    52  H   -0.004851
    53  H    0.055534
    54  H    0.068571
    55  H   -0.049450
    56  H    0.054096
    57  H    0.015293
    58  H    0.069321
    59  H    0.013417
    60  H    0.143131
    61  H   -0.026581
    62  H   -0.003735
    63  H    0.061997
    64  H    0.060871
    65  H    0.061389
    66  H    0.063852
    67  H    0.062121
    68  H    0.049544
    69  H   -0.015796
    70  H    0.039826
    71  H   -0.006781
    72  H    0.143656
    73  H   -0.011993
    74  H    0.027146
    75  H    0.029096
    76  H    0.026177
    77  H    0.170792
    78  H    0.023252
    79  H    0.024038
 Sum of Mulliken charges =  -0.00000

 Dipole moment (field-independent basis, Debye):
    X=             -0.7131    Y=              2.0753    Z=              2.2595  Tot=              3.1497
 Quadrupole moment (field-independent basis, Debye-Ang):
   XX=           -227.4851   YY=           -245.0413   ZZ=           -265.5878
   XY=            -14.5875   XZ=             39.5246   YZ=              8.4624

 Normal termination of Gaussian 16 at Thu Sep 19 03:55:56 2019.
