 Gaussian 16, Revision A.03,
 Gaussian 16:  ES64L-G16RevA.03 25-Dec-2016

 --------------------------
 # td=(NStates=1) B3LYP/SVP
 --------------------------

 --
 TD
 --
 Symbolic Z-matrix:
 Charge =  0 Multiplicity = 1

                         Standard orientation:
 ---------------------------------------------------------------------
 Center     Atomic      Atomic             Coordinates (Angstroms)
 Number     Number       Type             X           Y           Z
 ---------------------------------------------------------------------
      1          8           0       -3.184483   -1.410251   -2.822775
      2          8           0        3.003609    3.263954    2.997612
      3          8           0        3.711001    1.527107    4.284698
      4          8           0        7.750644   -1.410976   -0.697492
      5          8           0        6.781094   -3.078918   -1.894497
      6          8           0       -2.734092    1.666887    1.463993
      7          7           0       -0.260909   -2.413125    0.872396
      8          7           0       -2.623318   -1.280372   -0.621763
      9          7           0        1.074405   -0.051282   -0.756391
     10          7           0       -1.115240    1.397751   -0.256829
     11          6           0       -3.331193   -1.398674    0.618199
     12          6           0       -2.651749   -2.384543    1.665434
     13          6           0       -1.261461   -2.088497    1.770172
     14          6           0       -0.538895   -1.261788    2.906995
     15          6           0        0.768197   -1.178120    2.529092
     16          6           0        1.055120   -1.908798    1.300175
     17          6           0       -4.708232   -1.870858    0.275065
     18          6           0        1.890220   -0.471804    3.232673
     19          6           0       -4.852812   -1.989156   -1.128161
     20          6           0        2.130286   -1.867235    0.346837
     21          6           0        1.986303   -0.973148   -0.708318
     22          6           0       -3.493775   -1.529518   -1.658425
     23          6           0        2.978580   -0.705297   -1.882349
     24          6           0       -1.281619   -0.460756    3.931849
     25          6           0       -5.805086   -2.141021    1.254089
     26          6           0        2.502290    0.396643   -2.548279
     27          6           0        2.009148    1.032698    2.749560
     28          6           0        1.334092    0.886196   -1.833127
     29          6           0        4.197667   -1.574914   -2.130797
     30          6           0       -5.782583   -2.407394   -2.012476
     31          6           0        5.386115   -1.185974   -1.137319
     32          6           0        3.110359    1.129346   -3.674484
     33          6           0        0.471792    2.030350   -1.984905
     34          6           0        2.946267    1.904488    3.482900
     35          6           0       -0.668258    2.186453   -1.182901
     36          6           0       -7.105653   -2.992495   -1.707019
     37          6           0        6.674519   -2.036481   -1.309705
     38          6           0       -1.429888    3.485059   -1.187741
     39          6           0       -2.210296    3.418439   -0.186285
     40          6           0       -2.096402    2.173302    0.476843
     41          6           0       -1.218659    4.507299   -2.257259
     42          6           0       -3.319866    4.428653    0.267974
     43          6           0       -1.663463    5.787514   -2.264258
     44          1           0       -3.530045   -0.397545    1.300920
     45          1           0       -2.874951   -3.483689    1.382789
     46          1           0       -3.083512   -2.145531    2.666627
     47          1           0       -0.215135   -2.550803   -0.269399
     48          1           0       -2.100819   -0.363229   -0.606134
     49          1           0        1.731467   -0.541721    4.343617
     50          1           0        2.820472   -0.875640    3.058807
     51          1           0        2.757195   -2.839837    0.151025
     52          1           0       -2.107361   -1.160232    4.157765
     53          1           0       -0.823502   -0.396262    4.894943
     54          1           0       -1.566213    0.576519    3.462890
     55          1           0       -5.490356   -1.899572    2.270031
     56          1           0       -6.010667   -3.225452    1.269203
     57          1           0       -6.859154   -1.712600    1.099525
     58          1           0        2.215073    1.253446    1.524511
     59          1           0        0.943067    1.506980    3.020369
     60          1           0        0.286972    0.267176   -0.148548
     61          1           0        4.451343   -1.391149   -3.124361
     62          1           0        3.914342   -2.617879   -1.917056
     63          1           0       -5.645511   -2.218084   -2.924315
     64          1           0        4.917107   -1.260373   -0.130449
     65          1           0        5.320365   -0.134434   -1.027636
     66          1           0        4.108921    0.443537   -3.782605
     67          1           0        3.343027    2.246627   -3.347409
     68          1           0        2.484701    1.068255   -4.566443
     69          1           0        0.751716    2.690991   -2.759940
     70          1           0       -7.549240   -3.342514   -0.694364
     71          1           0       -7.787597   -3.176894   -2.484139
     72          1           0        3.868361    3.667245    3.207400
     73          1           0       -0.646179    4.010484   -3.208178
     74          1           0       -3.941629    4.500720   -0.609533
     75          1           0       -3.953041    4.020769    1.318220
     76          1           0       -2.902616    5.325650    0.451966
     77          1           0        8.403702   -2.130421   -0.879108
     78          1           0       -1.316256    6.439990   -2.970091
     79          1           0       -2.187167    6.172427   -1.529400
 ---------------------------------------------------------------------

 SCF Done:  E(RB3LYP) =  -1947.79296548     A.U. after   23 cycles

 Excitation energies and oscillator strengths:

 Excited State   1:      Singlet-A      0.4666 eV 2657.26 nm  f=0.0001  <S**2>=0.000
     155 ->156         0.70387
 This state for optimization and/or second-order correction.
 Total Energy, E(TD-HF/TD-DFT) =  -1947.77581875
 Copying the excited state density for this state as the 1-particle RhoCI density.

 The electronic state is 1-A.
 Alpha  occ. eigenvalues --  -19.19475 -19.15507 -19.15441 -19.13550 -19.12827
 Alpha  occ. eigenvalues --  -19.08204 -14.37952 -14.37441 -14.32583 -14.32055
 Alpha  occ. eigenvalues --  -10.34599 -10.31290 -10.29524 -10.27769 -10.26222
 Alpha  occ. eigenvalues --  -10.25976 -10.25564 -10.24161 -10.23649 -10.23572
 Alpha  occ. eigenvalues --  -10.23212 -10.22756 -10.22642 -10.22453 -10.22275
 Alpha  occ. eigenvalues --  -10.22205 -10.21850 -10.21653 -10.21550 -10.20880
 Alpha  occ. eigenvalues --  -10.20737 -10.20639 -10.20367 -10.20149 -10.19862
 Alpha  occ. eigenvalues --  -10.19630 -10.19502 -10.18900 -10.18167 -10.18052
 Alpha  occ. eigenvalues --  -10.17957 -10.17626 -10.17432  -1.11051  -1.08136
 Alpha  occ. eigenvalues --   -1.02429  -1.01836  -1.01096  -1.00114  -0.99085
 Alpha  occ. eigenvalues --   -0.95515  -0.93082  -0.91866  -0.84640  -0.83348
 Alpha  occ. eigenvalues --   -0.82164  -0.80466  -0.79696  -0.79269  -0.78429
 Alpha  occ. eigenvalues --   -0.77151  -0.76043  -0.75126  -0.74055  -0.72874
 Alpha  occ. eigenvalues --   -0.71417  -0.70148  -0.69677  -0.68761  -0.67829
 Alpha  occ. eigenvalues --   -0.65817  -0.65311  -0.64141  -0.61789  -0.60926
 Alpha  occ. eigenvalues --   -0.60553  -0.59999  -0.58826  -0.56762  -0.56204
 Alpha  occ. eigenvalues --   -0.56115  -0.55120  -0.54452  -0.54091  -0.52415
 Alpha  occ. eigenvalues --   -0.52153  -0.51918  -0.51170  -0.50248  -0.50010
 Alpha  occ. eigenvalues --   -0.49182  -0.49073  -0.48361  -0.47858  -0.47644
 Alpha  occ. eigenvalues --   -0.47401  -0.47233  -0.46884  -0.46622  -0.46389
 Alpha  occ. eigenvalues --   -0.45952  -0.45586  -0.45068  -0.44882  -0.44024
 Alpha  occ. eigenvalues --   -0.43646  -0.43335  -0.43275  -0.42711  -0.42428
 Alpha  occ. eigenvalues --   -0.41954  -0.41669  -0.41346  -0.40920  -0.40907
 Alpha  occ. eigenvalues --   -0.40379  -0.40254  -0.40038  -0.39938  -0.39753
 Alpha  occ. eigenvalues --   -0.39434  -0.39155  -0.38321  -0.37954  -0.37851
 Alpha  occ. eigenvalues --   -0.37783  -0.37218  -0.37015  -0.36900  -0.36775
 Alpha  occ. eigenvalues --   -0.36322  -0.36079  -0.35649  -0.34847  -0.34512
 Alpha  occ. eigenvalues --   -0.34175  -0.34155  -0.33223  -0.32621  -0.32004
 Alpha  occ. eigenvalues --   -0.31464  -0.31084  -0.30368  -0.30023  -0.29720
 Alpha  occ. eigenvalues --   -0.27756  -0.27583  -0.27168  -0.26069  -0.25145
 Alpha  occ. eigenvalues --   -0.23636  -0.23332  -0.22675  -0.20506  -0.17623
 Alpha virt. eigenvalues --   -0.13387  -0.08214  -0.05772  -0.02530  -0.01890
 Alpha virt. eigenvalues --   -0.00660  -0.00042   0.01340   0.01825   0.02352
 Alpha virt. eigenvalues --    0.03428   0.03975   0.04474   0.05043   0.05309

 Mulliken charges:
               1
     1  O   -0.226089
     2  O   -0.284691
     3  O   -0.168576
     4  O   -0.204905
     5  O   -0.201625
     6  O   -0.240351
     7  N   -0.168937
     8  N   -0.176641
     9  N   -0.075882
    10  N   -0.313095
    11  C   -0.025035
    12  C    0.196418
    13  C   -0.088262
    14  C   -0.151769
    15  C   -0.093143
    16  C   -0.023678
    17  C   -0.146797
    18  C    0.190650
    19  C    0.014393
    20  C   -0.093342
    21  C    0.043683
    22  C    0.101770
    23  C   -0.153847
    24  C    0.096219
    25  C    0.073974
    26  C   -0.097007
    27  C   -0.121905
    28  C    0.077831
    29  C    0.156656
    30  C    0.028181
    31  C   -0.011215
    32  C    0.030372
    33  C   -0.068065
    34  C    0.147352
    35  C    0.123253
    36  C   -0.069356
    37  C    0.205605
    38  C    0.046428
    39  C   -0.197323
    40  C    0.193674
    41  C   -0.063863
    42  C    0.086142
    43  C    0.091578
    44  H    0.083782
    45  H    0.007588
    46  H   -0.014654
    47  H    0.185318
    48  H    0.173096
    49  H    0.013893
    50  H   -0.027602
    51  H    0.037787
    52  H   -0.004939
    53  H   -0.011889
    54  H    0.080288
    55  H    0.003058
    56  H    0.028135
    57  H    0.046691
    58  H    0.072423
    59  H    0.062783
    60  H    0.186122
    61  H    0.001149
    62  H    0.031802
    63  H   -0.088769
    64  H    0.037467
    65  H    0.004297
    66  H    0.041524
    67  H    0.065258
    68  H    0.050188
    69  H   -0.043493
    70  H    0.031845
    71  H    0.011131
    72  H    0.181420
    73  H    0.043901
    74  H    0.031678
    75  H    0.071047
    76  H    0.010320
    77  H    0.178601
    78  H    0.011645
    79  H   -0.031668
 Sum of Mulliken charges =  -0.00000

 Dipole moment (field-independent basis, Debye):
    X=              2.7080    Y=              4.3054    Z=             -2.1107  Tot=              5.5068
 Quadrupole moment (field-independent basis, Debye-Ang):
   XX=           -241.0276   YY=           -238.5340   ZZ=           -266.5305
   XY=              1.8644   XZ=            -23.3704   YZ=            -18.1381

 Normal termination of Gaussian 16 at Mon Jul 29 07:13:39 2019.
