 Gaussian 16, Revision A.03,
 Gaussian 16:  ES64L-G16RevA.03 25-Dec-2016

 --------------------------
 # td=(NStates=1) B3LYP/SVP
 --------------------------

 --
 TD
 --
 Symbolic Z-matrix:
 Charge =  0 Multiplicity = 1

                         Standard orientation:
 ---------------------------------------------------------------------
 Center     Atomic      Atomic             Coordinates (Angstroms)
 Number     Number       Type             X           Y           Z
 ---------------------------------------------------------------------
      1          8           0        5.362634   -0.158984   -3.301293
      2          8           0       -3.141137   -2.934985    3.281810
      3          8           0       -3.428597   -0.730532    2.806901
      4          8           0       -0.890982    7.120731    1.651701
      5          8           0        0.294260    6.808804   -0.205881
      6          8           0       -2.124055   -3.923437   -0.070706
      7          7           0        2.348701    0.720515    0.657897
      8          7           0        4.293117   -0.612530   -1.292365
      9          7           0       -1.743771    0.820795   -0.443469
     10          7           0       -2.799427   -1.693651   -0.495183
     11          6           0        4.666822   -1.451162   -0.118020
     12          6           0        4.246531   -0.817558    1.178102
     13          6           0        2.884239   -0.378903    1.388925
     14          6           0        1.750574   -0.965720    2.078162
     15          6           0        0.630621   -0.185369    1.791261
     16          6           0        0.990953    0.787046    0.830214
     17          6           0        6.138199   -1.654815   -0.238899
     18          6           0       -0.678052   -0.278191    2.516319
     19          6           0        6.603648   -1.124850   -1.427145
     20          6           0        0.285372    1.968070    0.262079
     21          6           0       -1.005699    1.901087   -0.237080
     22          6           0        5.371062   -0.448947   -2.103624
     23          6           0       -1.695354    3.044404   -0.783540
     24          6           0        2.025682   -1.966656    3.137188
     25          6           0        6.824676   -2.416379    0.779518
     26          6           0       -2.910887    2.548357   -1.318100
     27          6           0       -1.270848   -1.728308    2.560466
     28          6           0       -2.906316    1.096359   -1.154668
     29          6           0       -1.204650    4.456361   -0.825252
     30          6           0        7.905071   -1.013228   -2.008649
     31          6           0       -1.300348    5.132477    0.542220
     32          6           0       -3.987412    3.350567   -1.942058
     33          6           0       -3.908113    0.243864   -1.479622
     34          6           0       -2.720353   -1.733708    2.913197
     35          6           0       -3.840272   -1.193900   -1.150298
     36          6           0        9.057060   -0.951324   -1.345244
     37          6           0       -0.595969    6.382203    0.636593
     38          6           0       -4.779908   -2.273892   -1.544826
     39          6           0       -4.230549   -3.425224   -1.112844
     40          6           0       -2.931589   -3.186646   -0.484401
     41          6           0       -6.067596   -1.982033   -2.170317
     42          6           0       -4.704709   -4.833184   -1.240318
     43          6           0       -6.961817   -2.781553   -2.573576
     44          1           0        4.135009   -2.379012   -0.550684
     45          1           0        4.763854    0.195623    1.348577
     46          1           0        4.424124   -1.490180    2.103620
     47          1           0        2.895240    1.240001   -0.157525
     48          1           0        3.351733   -0.601105   -1.678437
     49          1           0       -0.617863    0.326998    3.564027
     50          1           0       -1.527083    0.331028    1.963530
     51          1           0        1.083234    2.746686    0.009748
     52          1           0        3.055865   -2.077076    3.632135
     53          1           0        1.480462   -1.558304    4.009767
     54          1           0        1.788481   -3.099525    2.935984
     55          1           0        6.198004   -3.290827    1.385732
     56          1           0        7.082505   -1.832577    1.649541
     57          1           0        7.920052   -2.707343    0.372555
     58          1           0       -1.218755   -2.119682    1.692920
     59          1           0       -0.684908   -2.602205    3.155166
     60          1           0       -1.519512   -0.193138   -0.116499
     61          1           0       -1.678590    5.118340   -1.478434
     62          1           0       -0.014151    4.396598   -1.027327
     63          1           0        7.786788   -1.079994   -3.128809
     64          1           0       -1.051023    4.644527    1.431536
     65          1           0       -2.421580    5.528769    0.695409
     66          1           0       -3.836509    4.507185   -1.823621
     67          1           0       -4.840701    3.060097   -1.332894
     68          1           0       -4.041927    2.996074   -2.884668
     69          1           0       -4.731943    0.675503   -2.040134
     70          1           0        9.257696   -0.725567   -0.293308
     71          1           0        9.975954   -0.948747   -2.008683
     72          1           0       -3.975575   -2.993220    3.439593
     73          1           0       -6.428909   -1.043268   -2.309238
     74          1           0       -5.802193   -4.861534   -0.727532
     75          1           0       -4.858334   -5.313498   -2.285408
     76          1           0       -3.994327   -5.422970   -0.622347
     77          1           0       -0.389329    8.007016    1.694433
     78          1           0       -8.075174   -2.290350   -2.759228
     79          1           0       -6.838320   -3.958462   -2.282496
 ---------------------------------------------------------------------

 SCF Done:  E(RB3LYP) =  -1947.84011889     A.U. after   17 cycles

 Excitation energies and oscillator strengths:

 Excited State   1:      Singlet-A      1.8620 eV  665.86 nm  f=0.3913  <S**2>=0.000
     155 ->156         0.70471
     155 <-156        -0.12317
 This state for optimization and/or second-order correction.
 Total Energy, E(TD-HF/TD-DFT) =  -1947.77169127
 Copying the excited state density for this state as the 1-particle RhoCI density.

 The electronic state is 1-A.
 Alpha  occ. eigenvalues --  -19.19705 -19.17166 -19.12841 -19.10897 -19.10864
 Alpha  occ. eigenvalues --  -19.09472 -14.38374 -14.36166 -14.35938 -14.28954
 Alpha  occ. eigenvalues --  -10.31916 -10.30903 -10.28387 -10.27513 -10.25581
 Alpha  occ. eigenvalues --  -10.23948 -10.23539 -10.23460 -10.22531 -10.22486
 Alpha  occ. eigenvalues --  -10.22306 -10.22137 -10.22058 -10.21538 -10.21399
 Alpha  occ. eigenvalues --  -10.21231 -10.20629 -10.20583 -10.20555 -10.20464
 Alpha  occ. eigenvalues --  -10.20386 -10.20332 -10.20323 -10.20302 -10.20279
 Alpha  occ. eigenvalues --  -10.20085 -10.19725 -10.19669 -10.19371 -10.19133
 Alpha  occ. eigenvalues --  -10.18883 -10.18815 -10.18248  -1.10848  -1.10838
 Alpha  occ. eigenvalues --   -1.05668  -1.01671  -0.99368  -0.98334  -0.96747
 Alpha  occ. eigenvalues --   -0.96039  -0.94005  -0.91657  -0.82851  -0.82598
 Alpha  occ. eigenvalues --   -0.81720  -0.81233  -0.80719  -0.80219  -0.78540
 Alpha  occ. eigenvalues --   -0.77534  -0.76731  -0.76324  -0.74323  -0.72856
 Alpha  occ. eigenvalues --   -0.71415  -0.71022  -0.69760  -0.68908  -0.68555
 Alpha  occ. eigenvalues --   -0.67788  -0.66018  -0.63714  -0.61942  -0.61600
 Alpha  occ. eigenvalues --   -0.61337  -0.59735  -0.57684  -0.56984  -0.56248
 Alpha  occ. eigenvalues --   -0.55868  -0.55665  -0.54891  -0.54149  -0.53405
 Alpha  occ. eigenvalues --   -0.51300  -0.50966  -0.50716  -0.50050  -0.49410
 Alpha  occ. eigenvalues --   -0.49045  -0.48889  -0.48171  -0.47921  -0.47700
 Alpha  occ. eigenvalues --   -0.47404  -0.46981  -0.46549  -0.46308  -0.45803
 Alpha  occ. eigenvalues --   -0.45608  -0.45100  -0.44889  -0.44242  -0.44145
 Alpha  occ. eigenvalues --   -0.43668  -0.43048  -0.42813  -0.42686  -0.42495
 Alpha  occ. eigenvalues --   -0.42159  -0.41603  -0.41188  -0.40773  -0.40590
 Alpha  occ. eigenvalues --   -0.40447  -0.40381  -0.40148  -0.39934  -0.39554
 Alpha  occ. eigenvalues --   -0.39301  -0.39103  -0.39012  -0.38458  -0.38286
 Alpha  occ. eigenvalues --   -0.37589  -0.37516  -0.37195  -0.37023  -0.36698
 Alpha  occ. eigenvalues --   -0.36483  -0.35770  -0.35731  -0.34552  -0.34099
 Alpha  occ. eigenvalues --   -0.33755  -0.33509  -0.32101  -0.31500  -0.31168
 Alpha  occ. eigenvalues --   -0.31159  -0.30354  -0.28910  -0.28788  -0.26622
 Alpha  occ. eigenvalues --   -0.26507  -0.26466  -0.24960  -0.24743  -0.24463
 Alpha  occ. eigenvalues --   -0.24407  -0.24213  -0.24043  -0.22559  -0.18076
 Alpha virt. eigenvalues --   -0.10869  -0.06468  -0.05301  -0.00587   0.00144
 Alpha virt. eigenvalues --    0.00320   0.01115   0.01726   0.02873   0.02970
 Alpha virt. eigenvalues --    0.03303   0.03770   0.04290   0.04751   0.05040

 Mulliken charges:
               1
     1  O   -0.250887
     2  O   -0.078556
     3  O   -0.252912
     4  O   -0.156109
     5  O   -0.327471
     6  O   -0.129839
     7  N   -0.157740
     8  N   -0.216087
     9  N   -0.077947
    10  N   -0.340502
    11  C    0.131127
    12  C    0.184752
    13  C   -0.116622
    14  C   -0.064336
    15  C   -0.071341
    16  C    0.003832
    17  C   -0.146311
    18  C   -0.021151
    19  C   -0.068110
    20  C   -0.132570
    21  C    0.123636
    22  C    0.134998
    23  C   -0.065634
    24  C   -0.009319
    25  C    0.018149
    26  C   -0.186107
    27  C    0.102190
    28  C    0.149657
    29  C    0.116864
    30  C   -0.005222
    31  C    0.009260
    32  C    0.149461
    33  C   -0.118867
    34  C    0.117426
    35  C    0.081450
    36  C   -0.047927
    37  C    0.105405
    38  C    0.126802
    39  C   -0.218744
    40  C    0.168113
    41  C    0.029246
    42  C    0.012516
    43  C   -0.109635
    44  H    0.044560
    45  H    0.020507
    46  H    0.008584
    47  H    0.158222
    48  H    0.137097
    49  H    0.035689
    50  H    0.047061
    51  H    0.020793
    52  H    0.018520
    53  H    0.026762
    54  H    0.045139
    55  H    0.044090
    56  H    0.024140
    57  H    0.048620
    58  H   -0.041736
    59  H    0.031772
    60  H    0.185859
    61  H   -0.009227
    62  H    0.052710
    63  H    0.035893
    64  H    0.030462
    65  H    0.047513
    66  H    0.031856
    67  H    0.027131
    68  H    0.010474
    69  H   -0.033010
    70  H    0.031618
    71  H    0.034994
    72  H    0.108494
    73  H   -0.052345
    74  H    0.041788
    75  H    0.059282
    76  H    0.031046
    77  H    0.221365
    78  H    0.046647
    79  H    0.032692
 Sum of Mulliken charges =  -0.00000

 Dipole moment (field-independent basis, Debye):
    X=             -0.9344    Y=              0.8451    Z=              4.0240  Tot=              4.2167
 Quadrupole moment (field-independent basis, Debye-Ang):
   XX=           -224.3176   YY=           -241.0456   ZZ=           -261.7564
   XY=            -13.5022   XZ=             30.9839   YZ=              4.9570

 Normal termination of Gaussian 16 at Thu Oct 10 13:06:02 2019.
