 Gaussian 16, Revision A.03,
 Gaussian 16:  ES64L-G16RevA.03 25-Dec-2016

 --------------------------
 # td=(NStates=1) B3LYP/SVP
 --------------------------

 --
 TD
 --
 Symbolic Z-matrix:
 Charge =  0 Multiplicity = 1

                         Standard orientation:
 ---------------------------------------------------------------------
 Center     Atomic      Atomic             Coordinates (Angstroms)
 Number     Number       Type             X           Y           Z
 ---------------------------------------------------------------------
      1          8           0       -3.478739   -0.544768   -3.021310
      2          8           0        3.220032    2.207413    3.619395
      3          8           0        3.877580    0.228896    4.362558
      4          8           0        7.788969   -1.155247   -1.050777
      5          8           0        6.824492   -2.604615   -2.548020
      6          8           0       -2.703056    1.279921    1.722536
      7          7           0       -0.329977   -2.556666    0.380086
      8          7           0       -2.774750   -0.920401   -0.937879
      9          7           0        1.164032    0.211647   -0.734606
     10          7           0       -1.011981    1.520967    0.035291
     11          6           0       -3.376054   -1.496609    0.327650
     12          6           0       -2.636916   -2.675790    1.048766
     13          6           0       -1.239318   -2.407867    1.364710
     14          6           0       -0.554856   -1.902265    2.512549
     15          6           0        0.760767   -1.700970    2.131718
     16          6           0        0.921304   -2.090142    0.865810
     17          6           0       -4.752067   -1.855038   -0.142946
     18          6           0        1.941603   -1.175514    2.960793
     19          6           0       -4.909448   -1.662484   -1.479450
     20          6           0        1.928549   -1.983806   -0.165058
     21          6           0        2.072112   -0.797970   -0.851401
     22          6           0       -3.597950   -1.038667   -1.977746
     23          6           0        3.047422   -0.202715   -1.875492
     24          6           0       -1.193776   -1.481042    3.729785
     25          6           0       -5.791355   -2.437658    0.829418
     26          6           0        2.611849    1.053507   -2.240723
     27          6           0        2.033381    0.405796    2.898102
     28          6           0        1.381106    1.337122   -1.530599
     29          6           0        4.208816   -1.040946   -2.362107
     30          6           0       -6.031941   -1.965380   -2.362511
     31          6           0        5.485107   -0.721398   -1.458985
     32          6           0        3.250555    1.977585   -3.189239
     33          6           0        0.602695    2.516758   -1.567452
     34          6           0        3.105995    0.899723    3.724771
     35          6           0       -0.569067    2.613658   -0.692369
     36          6           0       -7.056372   -2.847390   -2.153732
     37          6           0        6.672174   -1.625362   -1.743843
     38          6           0       -1.374061    3.707194   -0.486490
     39          6           0       -2.370151    3.415998    0.527614
     40          6           0       -2.090952    1.948273    0.955938
     41          6           0       -1.262957    5.016703   -1.140080
     42          6           0       -3.419146    4.242205    1.142326
     43          6           0       -2.107937    6.035309   -1.051196
     44          1           0       -3.363064   -0.758899    1.110422
     45          1           0       -2.743134   -3.649853    0.428320
     46          1           0       -3.224194   -2.916127    1.861766
     47          1           0       -0.444399   -2.830842   -0.639803
     48          1           0       -2.120404   -0.202153   -0.832419
     49          1           0        1.625863   -1.570620    4.041169
     50          1           0        2.913844   -1.340981    2.728518
     51          1           0        2.817919   -2.790730   -0.055688
     52          1           0       -1.991416   -2.035769    4.136835
     53          1           0       -0.480274   -1.351207    4.746767
     54          1           0       -1.691147   -0.613403    3.704597
     55          1           0       -5.644227   -1.851652    1.835949
     56          1           0       -5.759430   -3.471228    1.176786
     57          1           0       -6.808401   -2.292191    0.433183
     58          1           0        2.333864    0.591896    1.641930
     59          1           0        1.191457    0.969976    3.206324
     60          1           0        0.389177    0.291283   -0.170745
     61          1           0        4.499791   -0.862805   -3.442373
     62          1           0        3.899205   -2.071228   -2.493812
     63          1           0       -6.002504   -1.394878   -3.372541
     64          1           0        5.143597   -0.706017   -0.305843
     65          1           0        5.857472    0.300955   -1.724049
     66          1           0        4.293185    1.679590   -3.586408
     67          1           0        3.311942    3.062295   -2.825817
     68          1           0        2.690702    1.985595   -4.257964
     69          1           0        0.864330    3.265921   -2.180939
     70          1           0       -7.141954   -3.367480   -1.148823
     71          1           0       -7.762411   -2.991789   -2.842553
     72          1           0        4.011337    2.473554    4.199281
     73          1           0       -0.452716    4.993367   -1.777785
     74          1           0       -4.393738    4.324532    0.463518
     75          1           0       -3.704787    3.637658    1.992952
     76          1           0       -3.263960    5.171541    1.603665
     77          1           0        8.417682   -1.966168   -1.104940
     78          1           0       -2.008001    6.925791   -1.493318
     79          1           0       -2.961366    5.915528   -0.222641
 ---------------------------------------------------------------------

 SCF Done:  E(RB3LYP) =  -1947.85928649     A.U. after   16 cycles

 Excitation energies and oscillator strengths:

 Excited State   1:      Singlet-A      0.9628 eV 1287.74 nm  f=0.0012  <S**2>=0.000
     155 ->156         0.70392
 This state for optimization and/or second-order correction.
 Total Energy, E(TD-HF/TD-DFT) =  -1947.82390403
 Copying the excited state density for this state as the 1-particle RhoCI density.

 The electronic state is 1-A.
 Alpha  occ. eigenvalues --  -19.19138 -19.18356 -19.14539 -19.14408 -19.11684
 Alpha  occ. eigenvalues --  -19.07593 -14.37039 -14.36502 -14.32068 -14.30634
 Alpha  occ. eigenvalues --  -10.34233 -10.30725 -10.29678 -10.27035 -10.26280
 Alpha  occ. eigenvalues --  -10.25633 -10.25439 -10.24627 -10.23587 -10.23230
 Alpha  occ. eigenvalues --  -10.22962 -10.22869 -10.22565 -10.22319 -10.22033
 Alpha  occ. eigenvalues --  -10.21477 -10.21344 -10.20685 -10.20452 -10.20363
 Alpha  occ. eigenvalues --  -10.20355 -10.20036 -10.19936 -10.19780 -10.19778
 Alpha  occ. eigenvalues --  -10.19524 -10.19387 -10.19274 -10.18027 -10.17925
 Alpha  occ. eigenvalues --  -10.17145 -10.17010 -10.16809  -1.10398  -1.07965
 Alpha  occ. eigenvalues --   -1.06058  -1.03347  -1.00216  -0.99793  -0.98543
 Alpha  occ. eigenvalues --   -0.96504  -0.92156  -0.91703  -0.83726  -0.82433
 Alpha  occ. eigenvalues --   -0.81009  -0.80620  -0.80101  -0.78926  -0.78357
 Alpha  occ. eigenvalues --   -0.77102  -0.76954  -0.75710  -0.73956  -0.72871
 Alpha  occ. eigenvalues --   -0.71609  -0.71333  -0.69508  -0.69440  -0.67938
 Alpha  occ. eigenvalues --   -0.67169  -0.65953  -0.63869  -0.61136  -0.60269
 Alpha  occ. eigenvalues --   -0.59846  -0.59336  -0.58415  -0.57896  -0.56667
 Alpha  occ. eigenvalues --   -0.56469  -0.55602  -0.55300  -0.53969  -0.53668
 Alpha  occ. eigenvalues --   -0.52729  -0.51307  -0.50535  -0.49955  -0.49492
 Alpha  occ. eigenvalues --   -0.48905  -0.48655  -0.48427  -0.48301  -0.47835
 Alpha  occ. eigenvalues --   -0.47687  -0.47594  -0.46935  -0.46703  -0.46090
 Alpha  occ. eigenvalues --   -0.45573  -0.45147  -0.44851  -0.44689  -0.44240
 Alpha  occ. eigenvalues --   -0.43553  -0.43165  -0.43118  -0.42702  -0.42434
 Alpha  occ. eigenvalues --   -0.42191  -0.42000  -0.41720  -0.41564  -0.41287
 Alpha  occ. eigenvalues --   -0.40959  -0.40752  -0.40369  -0.40200  -0.39864
 Alpha  occ. eigenvalues --   -0.39768  -0.39554  -0.39311  -0.38564  -0.38078
 Alpha  occ. eigenvalues --   -0.37998  -0.37755  -0.37655  -0.37519  -0.37119
 Alpha  occ. eigenvalues --   -0.36775  -0.35857  -0.35551  -0.34930  -0.34300
 Alpha  occ. eigenvalues --   -0.33816  -0.33174  -0.32475  -0.32385  -0.32080
 Alpha  occ. eigenvalues --   -0.31708  -0.30071  -0.29742  -0.29319  -0.29243
 Alpha  occ. eigenvalues --   -0.27672  -0.27139  -0.25610  -0.24744  -0.23868
 Alpha  occ. eigenvalues --   -0.23302  -0.23159  -0.22374  -0.22215  -0.19270
 Alpha virt. eigenvalues --   -0.13375  -0.08283  -0.03806  -0.03565  -0.01432
 Alpha virt. eigenvalues --   -0.00132   0.01887   0.02314   0.03296   0.03409
 Alpha virt. eigenvalues --    0.03780   0.04113   0.04391   0.04486   0.05168

 Mulliken charges:
               1
     1  O   -0.176551
     2  O   -0.180812
     3  O   -0.234404
     4  O   -0.240278
     5  O   -0.272795
     6  O   -0.147967
     7  N   -0.103909
     8  N   -0.169378
     9  N   -0.034063
    10  N   -0.404448
    11  C    0.098593
    12  C    0.188244
    13  C   -0.062778
    14  C   -0.072614
    15  C   -0.052960
    16  C   -0.017630
    17  C   -0.140247
    18  C    0.129914
    19  C   -0.065218
    20  C   -0.176087
    21  C    0.157795
    22  C    0.098819
    23  C   -0.098180
    24  C    0.097924
    25  C    0.037178
    26  C   -0.073330
    27  C   -0.070141
    28  C    0.112146
    29  C    0.085941
    30  C   -0.056680
    31  C   -0.046796
    32  C   -0.005325
    33  C   -0.026318
    34  C    0.113470
    35  C    0.148005
    36  C    0.008281
    37  C    0.193993
    38  C    0.017825
    39  C   -0.210919
    40  C    0.221408
    41  C    0.040213
    42  C    0.077738
    43  C    0.029558
    44  H    0.026617
    45  H   -0.009387
    46  H   -0.047988
    47  H    0.139497
    48  H    0.107316
    49  H    0.033977
    50  H   -0.034101
    51  H    0.052749
    52  H   -0.027939
    53  H    0.004331
    54  H   -0.019697
    55  H    0.021466
    56  H    0.033152
    57  H    0.032904
    58  H    0.078052
    59  H    0.028578
    60  H    0.113330
    61  H    0.019508
    62  H    0.029627
    63  H    0.025219
    64  H    0.085745
    65  H    0.061024
    66  H    0.031586
    67  H    0.049766
    68  H    0.054580
    69  H   -0.071473
    70  H    0.019205
    71  H   -0.013279
    72  H    0.195558
    73  H   -0.061228
    74  H    0.061662
    75  H    0.007447
    76  H    0.030972
    77  H    0.210558
    78  H   -0.013483
    79  H    0.026935
 Sum of Mulliken charges =  -0.00000

 Dipole moment (field-independent basis, Debye):
    X=              2.4740    Y=              4.0246    Z=              0.4920  Tot=              4.7497
 Quadrupole moment (field-independent basis, Debye-Ang):
   XX=           -244.4314   YY=           -232.6028   ZZ=           -268.4330
   XY=             11.0443   XZ=            -19.1682   YZ=             -3.7575

 Normal termination of Gaussian 16 at Wed Jul 31 04:18:48 2019.
