 Gaussian 16, Revision A.03,
 Gaussian 16:  ES64L-G16RevA.03 25-Dec-2016

 --------------------------
 # td=(NStates=1) B3LYP/SVP
 --------------------------

 --
 TD
 --
 Symbolic Z-matrix:
 Charge =  0 Multiplicity = 1

                         Standard orientation:
 ---------------------------------------------------------------------
 Center     Atomic      Atomic             Coordinates (Angstroms)
 Number     Number       Type             X           Y           Z
 ---------------------------------------------------------------------
      1          8           0        5.487988   -0.115019   -3.229530
      2          8           0       -3.124465   -2.869238    3.131113
      3          8           0       -3.309870   -0.572801    2.885571
      4          8           0       -1.881349    7.256268    1.440191
      5          8           0       -0.737002    6.966557   -0.510626
      6          8           0       -1.550110   -4.000091    0.009412
      7          7           0        2.344178    0.944002    0.513106
      8          7           0        4.433003   -0.552235   -1.179971
      9          7           0       -1.915336    0.669568   -0.439747
     10          7           0       -2.471348   -1.963667   -0.661229
     11          6           0        4.865374   -1.197109   -0.002541
     12          6           0        4.466875   -0.284704    1.217201
     13          6           0        2.956942   -0.053829    1.343057
     14          6           0        1.922986   -0.547321    2.168264
     15          6           0        0.680175    0.048936    1.691230
     16          6           0        0.945915    0.972886    0.670658
     17          6           0        6.379424   -1.331736   -0.126520
     18          6           0       -0.670337   -0.115833    2.414113
     19          6           0        6.691526   -0.788195   -1.221544
     20          6           0        0.157611    1.927825    0.026756
     21          6           0       -1.096760    1.882568   -0.537942
     22          6           0        5.582314   -0.326838   -2.014902
     23          6           0       -1.981085    2.855983   -0.887258
     24          6           0        2.125156   -1.579799    3.164441
     25          6           0        7.214307   -1.929545    1.017474
     26          6           0       -3.196487    2.266467   -1.292971
     27          6           0       -1.154303   -1.600348    2.496448
     28          6           0       -3.127421    0.886130   -0.960609
     29          6           0       -1.566154    4.330538   -1.020867
     30          6           0        7.993802   -0.602622   -1.959391
     31          6           0       -1.700090    5.030915    0.417148
     32          6           0       -4.285132    2.998958   -1.951189
     33          6           0       -4.074923   -0.158328   -1.173738
     34          6           0       -2.647019   -1.548326    2.915190
     35          6           0       -3.673411   -1.629126   -1.037688
     36          6           0        9.131241   -0.815035   -1.381260
     37          6           0       -1.452519    6.530463    0.341388
     38          6           0       -4.513422   -2.715992   -1.296840
     39          6           0       -3.796699   -3.955068   -1.088320
     40          6           0       -2.462391   -3.347444   -0.514764
     41          6           0       -5.900618   -2.585614   -1.929325
     42          6           0       -4.234098   -5.382438   -1.052893
     43          6           0       -6.763667   -3.531304   -2.326327
     44          1           0        4.411708   -2.158236    0.167117
     45          1           0        4.910937    0.714242    0.862310
     46          1           0        4.774146   -0.578980    2.209699
     47          1           0        2.900403    1.453166   -0.488742
     48          1           0        3.661748   -0.599948   -1.600214
     49          1           0       -0.403825    0.160641    3.554486
     50          1           0       -1.662424    0.404873    2.074240
     51          1           0        0.639450    2.928579   -0.139805
     52          1           0        3.279450   -1.582525    3.567869
     53          1           0        1.581866   -1.497005    4.178409
     54          1           0        1.734062   -2.590944    2.872432
     55          1           0        6.758316   -2.547378    1.697578
     56          1           0        7.647504   -0.938336    1.699963
     57          1           0        8.207381   -2.389901    0.540767
     58          1           0       -1.241248   -2.156793    1.508309
     59          1           0       -0.563217   -2.144820    3.420400
     60          1           0       -1.428637   -0.160277   -0.429355
     61          1           0       -2.187191    5.027032   -1.649951
     62          1           0       -0.539124    4.338772   -1.218918
     63          1           0        8.029845   -0.360729   -2.959896
     64          1           0       -1.025778    4.398246    1.232065
     65          1           0       -2.817847    4.889365    0.852816
     66          1           0       -4.098716    4.026788   -2.343632
     67          1           0       -5.247477    3.293878   -1.319477
     68          1           0       -4.986011    2.587195   -2.880865
     69          1           0       -5.194166   -0.034629   -1.417605
     70          1           0        9.227352   -1.410308   -0.280068
     71          1           0       10.019655   -0.578758   -1.818927
     72          1           0       -4.064832   -2.788070    3.200366
     73          1           0       -6.348453   -1.635110   -2.050443
     74          1           0       -5.090120   -5.580730   -0.495019
     75          1           0       -4.266081   -6.046759   -2.015454
     76          1           0       -3.254461   -5.735464   -0.591917
     77          1           0       -1.660179    8.016179    1.318325
     78          1           0       -7.814486   -3.288090   -2.715910
     79          1           0       -6.607237   -4.674954   -2.613973
 ---------------------------------------------------------------------

 SCF Done:  E(RB3LYP) =  -1947.74118769     A.U. after   16 cycles

 Excitation energies and oscillator strengths:

 Excited State   1:      Singlet-A      1.9658 eV  630.71 nm  f=0.3906  <S**2>=0.000
     154 ->156         0.14419
     155 ->156         0.68868
     155 <-156        -0.11900
 This state for optimization and/or second-order correction.
 Total Energy, E(TD-HF/TD-DFT) =  -1947.66894626
 Copying the excited state density for this state as the 1-particle RhoCI density.

 The electronic state is 1-A.
 Alpha  occ. eigenvalues --  -19.17723 -19.15992 -19.14217 -19.12903 -19.11482
 Alpha  occ. eigenvalues --  -19.10877 -14.39048 -14.35469 -14.34479 -14.28650
 Alpha  occ. eigenvalues --  -10.33372 -10.30848 -10.29246 -10.26981 -10.25160
 Alpha  occ. eigenvalues --  -10.24745 -10.24113 -10.23672 -10.23667 -10.23462
 Alpha  occ. eigenvalues --  -10.23183 -10.23176 -10.22497 -10.22494 -10.22421
 Alpha  occ. eigenvalues --  -10.21807 -10.21596 -10.21375 -10.21287 -10.21104
 Alpha  occ. eigenvalues --  -10.20997 -10.20410 -10.20305 -10.20294 -10.20206
 Alpha  occ. eigenvalues --  -10.20194 -10.20113 -10.20082 -10.19946 -10.19890
 Alpha  occ. eigenvalues --  -10.19573 -10.19325 -10.19302  -1.12607  -1.07937
 Alpha  occ. eigenvalues --   -1.04016  -1.03033  -1.00724  -1.00388  -0.98393
 Alpha  occ. eigenvalues --   -0.96179  -0.95308  -0.92665  -0.84608  -0.83044
 Alpha  occ. eigenvalues --   -0.81534  -0.79808  -0.79168  -0.78976  -0.77716
 Alpha  occ. eigenvalues --   -0.77045  -0.75512  -0.75153  -0.74252  -0.73031
 Alpha  occ. eigenvalues --   -0.72015  -0.70640  -0.69745  -0.69368  -0.68469
 Alpha  occ. eigenvalues --   -0.66442  -0.64848  -0.63595  -0.61820  -0.61433
 Alpha  occ. eigenvalues --   -0.60866  -0.59669  -0.57742  -0.57513  -0.56703
 Alpha  occ. eigenvalues --   -0.55316  -0.54833  -0.54408  -0.53880  -0.52972
 Alpha  occ. eigenvalues --   -0.52459  -0.51943  -0.51162  -0.50467  -0.49682
 Alpha  occ. eigenvalues --   -0.49514  -0.49102  -0.48538  -0.48186  -0.47577
 Alpha  occ. eigenvalues --   -0.47340  -0.46752  -0.46253  -0.46078  -0.45781
 Alpha  occ. eigenvalues --   -0.44769  -0.44600  -0.44218  -0.44142  -0.43586
 Alpha  occ. eigenvalues --   -0.43178  -0.42921  -0.42797  -0.42497  -0.42155
 Alpha  occ. eigenvalues --   -0.41914  -0.41691  -0.41568  -0.41339  -0.40984
 Alpha  occ. eigenvalues --   -0.40761  -0.40637  -0.40140  -0.39993  -0.39590
 Alpha  occ. eigenvalues --   -0.39574  -0.39085  -0.38708  -0.38395  -0.38039
 Alpha  occ. eigenvalues --   -0.37919  -0.37653  -0.36961  -0.36511  -0.36156
 Alpha  occ. eigenvalues --   -0.35855  -0.35413  -0.35340  -0.34693  -0.34122
 Alpha  occ. eigenvalues --   -0.34095  -0.33596  -0.32596  -0.32353  -0.32124
 Alpha  occ. eigenvalues --   -0.31570  -0.30854  -0.29374  -0.28613  -0.27603
 Alpha  occ. eigenvalues --   -0.27522  -0.27395  -0.26533  -0.25966  -0.25391
 Alpha  occ. eigenvalues --   -0.24074  -0.23919  -0.23601  -0.21976  -0.19003
 Alpha virt. eigenvalues --   -0.11282  -0.07580  -0.05771  -0.02318  -0.00648
 Alpha virt. eigenvalues --   -0.00428   0.00331   0.00717   0.01577   0.02294
 Alpha virt. eigenvalues --    0.03218   0.03623   0.04640   0.04909   0.05190

 Mulliken charges:
               1
     1  O   -0.232142
     2  O   -0.221153
     3  O   -0.190432
     4  O   -0.087134
     5  O   -0.203447
     6  O   -0.223166
     7  N   -0.237231
     8  N   -0.134359
     9  N   -0.058299
    10  N   -0.233732
    11  C    0.096930
    12  C    0.182825
    13  C   -0.048873
    14  C   -0.082771
    15  C   -0.033549
    16  C    0.120503
    17  C   -0.142143
    18  C   -0.029962
    19  C   -0.022186
    20  C   -0.111200
    21  C    0.058183
    22  C    0.151854
    23  C   -0.080523
    24  C   -0.004196
    25  C    0.030793
    26  C   -0.024749
    27  C   -0.091866
    28  C    0.155144
    29  C    0.163742
    30  C    0.057033
    31  C   -0.154861
    32  C   -0.043638
    33  C   -0.114231
    34  C    0.147672
    35  C    0.023488
    36  C   -0.031199
    37  C    0.159165
    38  C    0.001846
    39  C   -0.161656
    40  C    0.152696
    41  C    0.040655
    42  C    0.041390
    43  C   -0.121376
    44  H    0.013873
    45  H    0.002122
    46  H   -0.001324
    47  H    0.194587
    48  H    0.052511
    49  H    0.024110
    50  H    0.079150
    51  H    0.005371
    52  H    0.020703
    53  H    0.018905
    54  H    0.057006
    55  H    0.008206
    56  H    0.063715
    57  H    0.069953
    58  H    0.103508
    59  H    0.047134
    60  H    0.118411
    61  H    0.030164
    62  H    0.003765
    63  H   -0.018287
    64  H    0.086957
    65  H    0.054155
    66  H    0.012801
    67  H    0.028655
    68  H    0.040446
    69  H    0.008260
    70  H    0.025312
    71  H   -0.006414
    72  H    0.158497
    73  H   -0.020992
    74  H    0.026298
    75  H    0.044384
    76  H    0.039841
    77  H    0.074827
    78  H    0.029148
    79  H    0.040394
 Sum of Mulliken charges =  -0.00000

 Dipole moment (field-independent basis, Debye):
    X=              1.3992    Y=              2.0008    Z=              2.5875  Tot=              3.5575
 Quadrupole moment (field-independent basis, Debye-Ang):
   XX=           -212.9320   YY=           -247.5990   ZZ=           -263.7428
   XY=            -12.2821   XZ=             28.8941   YZ=              0.9914

 Normal termination of Gaussian 16 at Sat Sep 28 09:33:59 2019.
