 Gaussian 16, Revision A.03,
 Gaussian 16:  ES64L-G16RevA.03 25-Dec-2016

 --------------------------
 # td=(NStates=1) B3LYP/SVP
 --------------------------

 --
 TD
 --
 Symbolic Z-matrix:
 Charge =  0 Multiplicity = 1

                         Standard orientation:
 ---------------------------------------------------------------------
 Center     Atomic      Atomic             Coordinates (Angstroms)
 Number     Number       Type             X           Y           Z
 ---------------------------------------------------------------------
      1          8           0        5.557112   -0.125981   -3.391574
      2          8           0       -2.759335   -2.998640    3.432540
      3          8           0       -3.323210   -0.876893    3.138207
      4          8           0       -1.894081    7.075120    1.557266
      5          8           0       -0.668129    6.942160   -0.330764
      6          8           0       -1.845604   -4.030765    0.027221
      7          7           0        2.358108    0.828842    0.508969
      8          7           0        4.499336   -0.529123   -1.276674
      9          7           0       -1.777877    0.735318   -0.538140
     10          7           0       -2.600842   -1.905652   -0.462836
     11          6           0        4.859072   -1.258404   -0.025657
     12          6           0        4.443567   -0.298045    1.198812
     13          6           0        2.937370   -0.130545    1.266236
     14          6           0        1.896312   -0.608465    2.090142
     15          6           0        0.631274   -0.062200    1.663521
     16          6           0        1.016682    0.881973    0.730770
     17          6           0        6.406807   -1.271116   -0.108480
     18          6           0       -0.616954   -0.256582    2.484107
     19          6           0        6.718148   -0.819747   -1.327468
     20          6           0        0.190845    1.937912    0.011626
     21          6           0       -1.118656    1.831558   -0.411587
     22          6           0        5.494010   -0.375015   -2.215545
     23          6           0       -1.978765    2.947271   -0.892873
     24          6           0        2.197170   -1.658824    3.212630
     25          6           0        7.274578   -1.786387    0.959907
     26          6           0       -3.215521    2.412526   -1.398275
     27          6           0       -1.149914   -1.696169    2.491308
     28          6           0       -3.041673    0.959715   -1.093724
     29          6           0       -1.610557    4.341291   -0.806556
     30          6           0        8.028464   -0.641111   -1.924839
     31          6           0       -1.877569    5.055443    0.465616
     32          6           0       -4.386389    3.036885   -1.905341
     33          6           0       -3.997739   -0.067852   -1.274729
     34          6           0       -2.465944   -1.763616    3.116922
     35          6           0       -3.715731   -1.481543   -1.085931
     36          6           0        9.256420   -0.666567   -1.342376
     37          6           0       -1.321659    6.432936    0.444116
     38          6           0       -4.716111   -2.622742   -1.470012
     39          6           0       -3.973372   -3.782440   -1.075716
     40          6           0       -2.733423   -3.298519   -0.393381
     41          6           0       -5.996955   -2.376052   -2.149728
     42          6           0       -4.250564   -5.228938   -1.352811
     43          6           0       -6.795275   -3.345514   -2.571007
     44          1           0        4.570457   -2.222067    0.021419
     45          1           0        5.032056    0.671797    1.097910
     46          1           0        4.913102   -0.846652    2.049657
     47          1           0        2.732060    1.508449   -0.187155
     48          1           0        3.504568   -0.723469   -1.512584
     49          1           0       -0.646184    0.049632    3.495455
     50          1           0       -1.495425    0.326366    1.964678
     51          1           0        0.744885    2.906312   -0.362756
     52          1           0        3.286175   -1.819136    3.474860
     53          1           0        1.495872   -1.135870    3.907132
     54          1           0        1.816091   -2.790268    2.977876
     55          1           0        6.692844   -2.538108    1.537641
     56          1           0        7.628211   -0.931038    1.440920
     57          1           0        8.123462   -2.225956    0.601749
     58          1           0       -1.289645   -2.001530    1.509685
     59          1           0       -0.547907   -2.443014    3.108790
     60          1           0       -1.563926   -0.337009   -0.313950
     61          1           0       -1.982145    4.864179   -1.676089
     62          1           0       -0.622878    4.372484   -0.937934
     63          1           0        8.093457   -0.338347   -3.136939
     64          1           0       -1.288509    4.376497    1.155631
     65          1           0       -3.059806    5.087285    0.919648
     66          1           0       -4.044574    4.170237   -2.238220
     67          1           0       -5.156669    3.252167   -1.106295
     68          1           0       -4.772792    2.381109   -2.732120
     69          1           0       -4.866984    0.337407   -1.622614
     70          1           0        9.316222   -0.772696   -0.124051
     71          1           0       10.203197   -0.455254   -2.038937
     72          1           0       -3.689775   -2.849439    3.947076
     73          1           0       -6.318902   -1.337374   -2.192135
     74          1           0       -5.005897   -5.650236   -0.661151
     75          1           0       -4.667411   -5.313405   -2.464739
     76          1           0       -3.439995   -5.790296   -0.859844
     77          1           0       -1.535699    8.025973    1.465819
     78          1           0       -7.748258   -3.206251   -3.093798
     79          1           0       -6.622043   -4.434893   -2.355106
 ---------------------------------------------------------------------

 SCF Done:  E(RB3LYP) =  -1947.86285958     A.U. after   17 cycles

 Excitation energies and oscillator strengths:

 Excited State   1:      Singlet-A      2.0214 eV  613.36 nm  f=0.4443  <S**2>=0.000
     155 ->156         0.69816
     155 <-156        -0.12038
 This state for optimization and/or second-order correction.
 Total Energy, E(TD-HF/TD-DFT) =  -1947.78857530
 Copying the excited state density for this state as the 1-particle RhoCI density.

 The electronic state is 1-A.
 Alpha  occ. eigenvalues --  -19.17793 -19.17498 -19.15050 -19.11505 -19.10466
 Alpha  occ. eigenvalues --  -19.10329 -14.38554 -14.36750 -14.36211 -14.30077
 Alpha  occ. eigenvalues --  -10.32313 -10.29639 -10.29537 -10.26645 -10.24983
 Alpha  occ. eigenvalues --  -10.24809 -10.24586 -10.24168 -10.23354 -10.22927
 Alpha  occ. eigenvalues --  -10.22867 -10.22645 -10.22263 -10.22171 -10.21646
 Alpha  occ. eigenvalues --  -10.21591 -10.21318 -10.21219 -10.20918 -10.20841
 Alpha  occ. eigenvalues --  -10.20822 -10.20584 -10.20426 -10.19960 -10.19946
 Alpha  occ. eigenvalues --  -10.19747 -10.19405 -10.19333 -10.19254 -10.19227
 Alpha  occ. eigenvalues --  -10.19193 -10.19062 -10.17578  -1.12117  -1.08995
 Alpha  occ. eigenvalues --   -1.03448  -1.01848  -1.01252  -0.99596  -0.99182
 Alpha  occ. eigenvalues --   -0.97605  -0.94300  -0.91358  -0.84102  -0.82442
 Alpha  occ. eigenvalues --   -0.81713  -0.80949  -0.80242  -0.79410  -0.78004
 Alpha  occ. eigenvalues --   -0.76891  -0.76235  -0.75545  -0.74275  -0.72826
 Alpha  occ. eigenvalues --   -0.71537  -0.70934  -0.69229  -0.68724  -0.68205
 Alpha  occ. eigenvalues --   -0.67002  -0.65833  -0.63893  -0.60844  -0.60047
 Alpha  occ. eigenvalues --   -0.59337  -0.58071  -0.57728  -0.57310  -0.56455
 Alpha  occ. eigenvalues --   -0.55555  -0.55353  -0.54855  -0.53846  -0.53040
 Alpha  occ. eigenvalues --   -0.52747  -0.51408  -0.51000  -0.50407  -0.49788
 Alpha  occ. eigenvalues --   -0.49441  -0.48701  -0.48542  -0.47484  -0.47218
 Alpha  occ. eigenvalues --   -0.47190  -0.46919  -0.46593  -0.46545  -0.45793
 Alpha  occ. eigenvalues --   -0.45464  -0.45247  -0.44764  -0.44493  -0.44360
 Alpha  occ. eigenvalues --   -0.43709  -0.43457  -0.43321  -0.43060  -0.42811
 Alpha  occ. eigenvalues --   -0.42317  -0.42173  -0.41837  -0.41509  -0.41470
 Alpha  occ. eigenvalues --   -0.41162  -0.40739  -0.40490  -0.40391  -0.39852
 Alpha  occ. eigenvalues --   -0.39520  -0.39190  -0.39099  -0.38334  -0.38129
 Alpha  occ. eigenvalues --   -0.37915  -0.37636  -0.37168  -0.36818  -0.36585
 Alpha  occ. eigenvalues --   -0.35938  -0.35494  -0.34931  -0.34698  -0.34547
 Alpha  occ. eigenvalues --   -0.33942  -0.33251  -0.32530  -0.32113  -0.31637
 Alpha  occ. eigenvalues --   -0.31119  -0.30329  -0.30291  -0.28680  -0.28395
 Alpha  occ. eigenvalues --   -0.28035  -0.26245  -0.25962  -0.25516  -0.24768
 Alpha  occ. eigenvalues --   -0.24581  -0.23764  -0.23363  -0.22255  -0.18821
 Alpha virt. eigenvalues --   -0.11037  -0.06783  -0.04714  -0.00916  -0.00217
 Alpha virt. eigenvalues --    0.01310   0.01409   0.01625   0.02626   0.03094
 Alpha virt. eigenvalues --    0.03806   0.03933   0.04187   0.04650   0.04817

 Mulliken charges:
               1
     1  O   -0.186326
     2  O   -0.185120
     3  O   -0.274591
     4  O   -0.258051
     5  O   -0.126085
     6  O   -0.213110
     7  N   -0.041478
     8  N   -0.229205
     9  N   -0.064167
    10  N   -0.290849
    11  C    0.095328
    12  C    0.132609
    13  C   -0.021581
    14  C   -0.151472
    15  C   -0.045627
    16  C    0.002905
    17  C   -0.235260
    18  C    0.019397
    19  C   -0.068785
    20  C   -0.120109
    21  C    0.086854
    22  C    0.201792
    23  C   -0.136576
    24  C    0.004048
    25  C    0.200360
    26  C   -0.078539
    27  C    0.056256
    28  C    0.031401
    29  C    0.199756
    30  C   -0.065218
    31  C   -0.074154
    32  C    0.026072
    33  C   -0.026279
    34  C    0.088713
    35  C    0.099189
    36  C   -0.113974
    37  C    0.136713
    38  C    0.024918
    39  C   -0.208160
    40  C    0.165552
    41  C    0.018427
    42  C    0.091108
    43  C   -0.045322
    44  H    0.000931
    45  H    0.021483
    46  H    0.000594
    47  H    0.130059
    48  H    0.133591
    49  H    0.001858
    50  H    0.030763
    51  H    0.019599
    52  H    0.020224
    53  H    0.041267
    54  H    0.058180
    55  H    0.023487
    56  H    0.023004
    57  H    0.002887
    58  H    0.039188
    59  H    0.028549
    60  H    0.202296
    61  H   -0.004230
    62  H   -0.058119
    63  H    0.052978
    64  H    0.049202
    65  H    0.078026
    66  H    0.038391
    67  H    0.054411
    68  H    0.051420
    69  H   -0.088099
    70  H    0.028766
    71  H    0.053537
    72  H    0.211534
    73  H   -0.004581
    74  H    0.017129
    75  H    0.065319
    76  H    0.017300
    77  H    0.186157
    78  H    0.023669
    79  H    0.027871
 Sum of Mulliken charges =  -0.00000

 Dipole moment (field-independent basis, Debye):
    X=             -0.9295    Y=              2.2698    Z=              2.5600  Tot=              3.5453
 Quadrupole moment (field-independent basis, Debye-Ang):
   XX=           -227.8465   YY=           -244.5330   ZZ=           -262.7740
   XY=             -5.4348   XZ=             34.3975   YZ=             -1.9430

 Normal termination of Gaussian 16 at Wed Sep 25 07:14:14 2019.
