 Gaussian 16, Revision A.03,
 Gaussian 16:  ES64L-G16RevA.03 25-Dec-2016

 --------------------------
 # td=(NStates=1) B3LYP/SVP
 --------------------------

 --
 TD
 --
 Symbolic Z-matrix:
 Charge =  0 Multiplicity = 1

                         Standard orientation:
 ---------------------------------------------------------------------
 Center     Atomic      Atomic             Coordinates (Angstroms)
 Number     Number       Type             X           Y           Z
 ---------------------------------------------------------------------
      1          8           0        5.438319    0.305037   -3.106129
      2          8           0       -2.990113   -2.934780    3.125176
      3          8           0       -3.531744   -0.874342    2.618433
      4          8           0       -1.832709    7.058326    1.602454
      5          8           0       -1.080579    7.257711   -0.512396
      6          8           0       -1.582086   -4.017535   -0.051715
      7          7           0        2.328187    0.941228    0.579797
      8          7           0        4.477693   -0.378572   -1.166925
      9          7           0       -1.756646    0.592344   -0.447818
     10          7           0       -2.498337   -1.988710   -0.427003
     11          6           0        4.763448   -1.045471    0.070539
     12          6           0        4.454186   -0.087961    1.274104
     13          6           0        3.030039    0.028481    1.352001
     14          6           0        1.921491   -0.522972    2.121144
     15          6           0        0.777159    0.074027    1.794891
     16          6           0        0.993047    1.066925    0.861169
     17          6           0        6.355547   -1.330705   -0.183220
     18          6           0       -0.598040   -0.217884    2.469242
     19          6           0        6.802004   -0.889695   -1.345971
     20          6           0        0.190622    2.010401    0.187260
     21          6           0       -1.107557    1.806544   -0.325674
     22          6           0        5.516086   -0.273009   -2.051147
     23          6           0       -1.958382    2.813488   -0.872314
     24          6           0        2.158350   -1.563174    3.216394
     25          6           0        7.081346   -2.057254    0.910194
     26          6           0       -3.153149    2.209962   -1.276148
     27          6           0       -1.192891   -1.698587    2.383129
     28          6           0       -2.995457    0.868646   -1.034313
     29          6           0       -1.678743    4.281389   -1.047959
     30          6           0        8.009046   -0.747080   -1.936460
     31          6           0       -1.842574    5.037742    0.277294
     32          6           0       -4.398303    2.862039   -1.784783
     33          6           0       -3.889900   -0.158229   -1.293266
     34          6           0       -2.607346   -1.690546    2.762290
     35          6           0       -3.633070   -1.636889   -1.002797
     36          6           0        9.271637   -0.897050   -1.386362
     37          6           0       -1.532496    6.590721    0.315225
     38          6           0       -4.502473   -2.718815   -1.480110
     39          6           0       -3.753305   -3.805860   -1.128814
     40          6           0       -2.558654   -3.326545   -0.557002
     41          6           0       -5.941281   -2.575392   -1.859278
     42          6           0       -4.132806   -5.268399   -1.003837
     43          6           0       -6.641343   -3.550886   -2.390290
     44          1           0        4.078912   -1.998285    0.267671
     45          1           0        4.992921    0.913250    1.176225
     46          1           0        4.744564   -0.514576    2.272424
     47          1           0        2.956913    1.301926   -0.132333
     48          1           0        3.548304   -0.343279   -1.756889
     49          1           0       -0.567629    0.146774    3.500551
     50          1           0       -1.286333    0.450392    1.921929
     51          1           0        0.814400    2.936529    0.004495
     52          1           0        3.214577   -1.481947    3.483199
     53          1           0        1.667499   -1.389796    4.121133
     54          1           0        1.918263   -2.605015    2.724126
     55          1           0        6.420529   -2.722212    1.410595
     56          1           0        7.745205   -1.296955    1.480270
     57          1           0        7.933406   -2.828300    0.549914
     58          1           0       -1.099658   -2.026995    1.486021
     59          1           0       -0.572236   -2.454681    2.996930
     60          1           0       -1.403294   -0.337638   -0.271411
     61          1           0       -2.165051    4.557569   -1.906796
     62          1           0       -0.611484    4.315821   -1.424207
     63          1           0        7.962855   -0.498146   -3.061555
     64          1           0       -1.216162    4.494216    1.055852
     65          1           0       -2.910975    4.916497    0.557180
     66          1           0       -4.082581    3.799692   -2.155996
     67          1           0       -5.327970    2.961406   -1.138606
     68          1           0       -4.742022    2.336768   -2.794180
     69          1           0       -4.910919   -0.030930   -1.777900
     70          1           0        9.508172   -1.155134   -0.438067
     71          1           0       10.201166   -0.399242   -2.077276
     72          1           0       -3.976409   -2.852683    3.144530
     73          1           0       -6.327427   -1.403913   -1.744453
     74          1           0       -4.892086   -5.460058   -0.338729
     75          1           0       -4.684254   -5.542798   -1.994856
     76          1           0       -3.299699   -5.966211   -0.898125
     77          1           0       -1.984234    8.107020    1.526842
     78          1           0       -7.532351   -3.342688   -2.838609
     79          1           0       -6.577333   -4.633518   -2.313651
 ---------------------------------------------------------------------

 SCF Done:  E(RB3LYP) =  -1947.85621514     A.U. after   20 cycles

 Excitation energies and oscillator strengths:

 Excited State   1:      Singlet-A      1.8829 eV  658.47 nm  f=0.4659  <S**2>=0.000
     155 ->156         0.70780
     155 <-156        -0.15198
 This state for optimization and/or second-order correction.
 Total Energy, E(TD-HF/TD-DFT) =  -1947.78701928
 Copying the excited state density for this state as the 1-particle RhoCI density.

 The electronic state is 1-A.
 Alpha  occ. eigenvalues --  -19.17706 -19.15751 -19.14386 -19.11285 -19.10614
 Alpha  occ. eigenvalues --  -19.09049 -14.37939 -14.36691 -14.36101 -14.28754
 Alpha  occ. eigenvalues --  -10.32680 -10.30148 -10.29282 -10.27137 -10.25010
 Alpha  occ. eigenvalues --  -10.24386 -10.23686 -10.23512 -10.22760 -10.22727
 Alpha  occ. eigenvalues --  -10.22663 -10.22442 -10.22266 -10.22215 -10.22094
 Alpha  occ. eigenvalues --  -10.22071 -10.21148 -10.21099 -10.20910 -10.20827
 Alpha  occ. eigenvalues --  -10.20629 -10.20441 -10.20227 -10.20212 -10.19723
 Alpha  occ. eigenvalues --  -10.19596 -10.19345 -10.19134 -10.19118 -10.18552
 Alpha  occ. eigenvalues --  -10.18525 -10.18100 -10.18033  -1.10213  -1.07633
 Alpha  occ. eigenvalues --   -1.04170  -1.00633  -0.99169  -0.99035  -0.97951
 Alpha  occ. eigenvalues --   -0.96458  -0.94513  -0.91833  -0.83311  -0.83084
 Alpha  occ. eigenvalues --   -0.82389  -0.81031  -0.80825  -0.80112  -0.77364
 Alpha  occ. eigenvalues --   -0.76868  -0.76552  -0.76070  -0.74784  -0.72147
 Alpha  occ. eigenvalues --   -0.71180  -0.70970  -0.70325  -0.68846  -0.68198
 Alpha  occ. eigenvalues --   -0.67016  -0.66241  -0.64161  -0.62272  -0.60915
 Alpha  occ. eigenvalues --   -0.58936  -0.58342  -0.58193  -0.57539  -0.56784
 Alpha  occ. eigenvalues --   -0.56338  -0.56074  -0.54991  -0.54291  -0.52995
 Alpha  occ. eigenvalues --   -0.52519  -0.52130  -0.51263  -0.50207  -0.49550
 Alpha  occ. eigenvalues --   -0.48774  -0.48455  -0.48377  -0.48075  -0.47243
 Alpha  occ. eigenvalues --   -0.47041  -0.46798  -0.46446  -0.46299  -0.45503
 Alpha  occ. eigenvalues --   -0.45033  -0.44951  -0.44797  -0.44547  -0.43879
 Alpha  occ. eigenvalues --   -0.43666  -0.43534  -0.43319  -0.43220  -0.42564
 Alpha  occ. eigenvalues --   -0.41912  -0.41694  -0.41136  -0.41003  -0.40969
 Alpha  occ. eigenvalues --   -0.40671  -0.40629  -0.40110  -0.39995  -0.39618
 Alpha  occ. eigenvalues --   -0.39076  -0.38655  -0.38467  -0.38382  -0.37992
 Alpha  occ. eigenvalues --   -0.37846  -0.37764  -0.37482  -0.37105  -0.36852
 Alpha  occ. eigenvalues --   -0.36182  -0.35741  -0.35251  -0.35101  -0.34703
 Alpha  occ. eigenvalues --   -0.34569  -0.33473  -0.32877  -0.32864  -0.32305
 Alpha  occ. eigenvalues --   -0.30753  -0.29638  -0.29220  -0.28241  -0.27962
 Alpha  occ. eigenvalues --   -0.27319  -0.26622  -0.26153  -0.25848  -0.25336
 Alpha  occ. eigenvalues --   -0.24148  -0.23660  -0.23402  -0.22831  -0.18283
 Alpha virt. eigenvalues --   -0.11384  -0.07088  -0.06716  -0.01190   0.00014
 Alpha virt. eigenvalues --    0.00361   0.00775   0.01016   0.02747   0.02891
 Alpha virt. eigenvalues --    0.03803   0.03948   0.04425   0.05001   0.05231

 Mulliken charges:
               1
     1  O   -0.203292
     2  O   -0.187180
     3  O   -0.276001
     4  O   -0.283607
     5  O   -0.139701
     6  O   -0.275683
     7  N   -0.066743
     8  N   -0.227337
     9  N   -0.082134
    10  N   -0.197721
    11  C    0.039149
    12  C    0.185966
    13  C   -0.148535
    14  C   -0.146853
    15  C   -0.098459
    16  C    0.057490
    17  C   -0.170678
    18  C    0.052756
    19  C    0.058979
    20  C   -0.131062
    21  C    0.134636
    22  C    0.120692
    23  C   -0.149681
    24  C    0.116534
    25  C    0.031421
    26  C   -0.122121
    27  C    0.139631
    28  C    0.187150
    29  C    0.168793
    30  C   -0.072469
    31  C   -0.026121
    32  C    0.098825
    33  C   -0.129943
    34  C    0.141005
    35  C    0.000663
    36  C   -0.040755
    37  C    0.146219
    38  C    0.000806
    39  C   -0.147596
    40  C    0.112308
    41  C   -0.029395
    42  C    0.116250
    43  C   -0.000046
    44  H    0.052810
    45  H    0.021766
    46  H    0.014189
    47  H    0.102255
    48  H    0.170950
    49  H    0.008787
    50  H    0.012589
    51  H    0.013445
    52  H   -0.017045
    53  H    0.005191
    54  H    0.056780
    55  H    0.023068
    56  H    0.057443
    57  H    0.041515
    58  H   -0.023687
    59  H    0.031309
    60  H    0.141264
    61  H   -0.019777
    62  H    0.005674
    63  H    0.035963
    64  H    0.061044
    65  H    0.041700
    66  H   -0.014598
    67  H    0.057477
    68  H    0.029169
    69  H   -0.021428
    70  H   -0.015709
    71  H    0.055774
    72  H    0.174602
    73  H    0.049178
    74  H    0.005443
    75  H    0.012030
    76  H    0.033559
    77  H    0.217380
    78  H   -0.003843
    79  H    0.027571
 Sum of Mulliken charges =  -0.00000

 Dipole moment (field-independent basis, Debye):
    X=              0.2271    Y=              1.9002    Z=              1.8049  Tot=              2.6306
 Quadrupole moment (field-independent basis, Debye-Ang):
   XX=           -212.6239   YY=           -249.1507   ZZ=           -262.2051
   XY=            -10.6480   XZ=             32.5531   YZ=              5.8605

 Normal termination of Gaussian 16 at Sun Sep 22 15:57:21 2019.
