 Gaussian 16, Revision A.03,
 Gaussian 16:  ES64L-G16RevA.03 25-Dec-2016

 --------------------------
 # td=(NStates=1) B3LYP/SVP
 --------------------------

 --
 TD
 --
 Symbolic Z-matrix:
 Charge =  0 Multiplicity = 1

                         Standard orientation:
 ---------------------------------------------------------------------
 Center     Atomic      Atomic             Coordinates (Angstroms)
 Number     Number       Type             X           Y           Z
 ---------------------------------------------------------------------
      1          8           0       -3.040353   -1.145997   -2.957380
      2          8           0        2.888333    3.069973    3.145997
      3          8           0        3.765179    1.319151    4.295898
      4          8           0        7.687241   -1.411361   -0.841882
      5          8           0        6.678897   -3.116749   -1.908435
      6          8           0       -2.789626    1.476634    1.527004
      7          7           0       -0.246552   -2.502789    0.903735
      8          7           0       -2.677529   -1.154353   -0.632879
      9          7           0        1.062143    0.127210   -0.757395
     10          7           0       -1.105128    1.408376   -0.127647
     11          6           0       -3.360409   -1.451568    0.581018
     12          6           0       -2.682455   -2.453442    1.582699
     13          6           0       -1.195106   -2.106795    1.795735
     14          6           0       -0.482020   -1.423245    2.804038
     15          6           0        0.795129   -1.323507    2.469381
     16          6           0        0.989296   -1.953531    1.319983
     17          6           0       -4.741175   -1.882244    0.117248
     18          6           0        1.822466   -0.572272    3.170134
     19          6           0       -4.689617   -2.069886   -1.238502
     20          6           0        1.951841   -1.930930    0.206445
     21          6           0        1.945802   -0.937112   -0.738843
     22          6           0       -3.324937   -1.435343   -1.779434
     23          6           0        2.986900   -0.624219   -1.812599
     24          6           0       -1.170942   -0.720921    4.041488
     25          6           0       -5.808280   -2.181320    1.133498
     26          6           0        2.545003    0.532751   -2.406303
     27          6           0        1.949253    0.886881    2.861790
     28          6           0        1.354218    1.002683   -1.754930
     29          6           0        4.229267   -1.322592   -2.127132
     30          6           0       -5.662438   -2.399248   -2.169555
     31          6           0        5.432944   -0.990270   -1.413620
     32          6           0        3.152974    1.247561   -3.604158
     33          6           0        0.589120    2.135949   -1.861587
     34          6           0        2.906904    1.754348    3.604082
     35          6           0       -0.652037    2.270155   -1.235650
     36          6           0       -6.849606   -3.057942   -1.969525
     37          6           0        6.524823   -1.841361   -1.540791
     38          6           0       -1.427640    3.524507   -1.106218
     39          6           0       -2.423910    3.381206   -0.119916
     40          6           0       -2.128903    2.015691    0.557442
     41          6           0       -1.199924    4.707541   -1.942583
     42          6           0       -3.427449    4.395784    0.447238
     43          6           0       -1.855066    5.850810   -2.017732
     44          1           0       -3.468891   -0.523006    1.002276
     45          1           0       -2.625792   -3.518109    1.124238
     46          1           0       -3.487892   -2.565584    2.419897
     47          1           0       -0.456788   -2.726465    0.023646
     48          1           0       -1.977611   -0.452618   -0.697911
     49          1           0        1.747008   -0.622911    4.204306
     50          1           0        2.722537   -1.247341    3.064496
     51          1           0        2.768357   -2.538175    0.208081
     52          1           0       -1.977626   -1.253353    4.446110
     53          1           0       -0.430168   -0.361916    4.748079
     54          1           0       -1.679114    0.319648    3.745740
     55          1           0       -5.604998   -1.669805    2.164901
     56          1           0       -5.891524   -3.172847    1.416532
     57          1           0       -6.818305   -1.963754    0.595035
     58          1           0        2.050036    0.976684    1.855469
     59          1           0        0.834389    1.334533    3.070627
     60          1           0        0.324612    0.427851   -0.004323
     61          1           0        4.334077   -1.295044   -3.148886
     62          1           0        4.141642   -2.357074   -1.931071
     63          1           0       -5.534208   -2.078611   -3.201454
     64          1           0        5.266451   -0.593337   -0.280807
     65          1           0        5.785507    0.090005   -1.664088
     66          1           0        4.160928    0.928466   -4.077064
     67          1           0        3.372292    2.246992   -3.093449
     68          1           0        2.404884    1.459534   -4.295291
     69          1           0        0.811644    2.953409   -2.476412
     70          1           0       -7.116226   -3.604912   -0.962860
     71          1           0       -7.384369   -3.447857   -2.775527
     72          1           0        3.539534    3.622289    3.533027
     73          1           0       -0.157783    4.466175   -2.756362
     74          1           0       -3.968522    4.824889   -0.442052
     75          1           0       -4.021979    3.777082    1.064381
     76          1           0       -2.933284    5.139253    1.100383
     77          1           0        8.409221   -2.065479   -0.627584
     78          1           0       -1.611766    6.549267   -2.817795
     79          1           0       -2.838342    6.091097   -1.443437
 ---------------------------------------------------------------------

 SCF Done:  E(RB3LYP) =  -1947.81479666     A.U. after   19 cycles

 Excitation energies and oscillator strengths:

 Excited State   1:      Singlet-A      0.9919 eV 1250.02 nm  f=0.0027  <S**2>=0.000
     155 ->156         0.70189
 This state for optimization and/or second-order correction.
 Total Energy, E(TD-HF/TD-DFT) =  -1947.77834669
 Copying the excited state density for this state as the 1-particle RhoCI density.

 The electronic state is 1-A.
 Alpha  occ. eigenvalues --  -19.17420 -19.17381 -19.13543 -19.13271 -19.11741
 Alpha  occ. eigenvalues --  -19.08320 -14.38471 -14.36262 -14.32761 -14.31474
 Alpha  occ. eigenvalues --  -10.34609 -10.32400 -10.28575 -10.27673 -10.26786
 Alpha  occ. eigenvalues --  -10.26736 -10.26552 -10.24898 -10.24156 -10.23751
 Alpha  occ. eigenvalues --  -10.23137 -10.23014 -10.22913 -10.22265 -10.22090
 Alpha  occ. eigenvalues --  -10.21691 -10.21668 -10.21567 -10.21193 -10.21091
 Alpha  occ. eigenvalues --  -10.20870 -10.20857 -10.20507 -10.20223 -10.20068
 Alpha  occ. eigenvalues --  -10.19904 -10.18434 -10.18100 -10.18023 -10.17993
 Alpha  occ. eigenvalues --  -10.17902 -10.16760 -10.16669  -1.09319  -1.05728
 Alpha  occ. eigenvalues --   -1.01535  -1.00816  -0.99409  -0.99120  -0.98148
 Alpha  occ. eigenvalues --   -0.95387  -0.92558  -0.90996  -0.86962  -0.83787
 Alpha  occ. eigenvalues --   -0.83006  -0.82015  -0.80753  -0.80347  -0.79050
 Alpha  occ. eigenvalues --   -0.77772  -0.76829  -0.75734  -0.75154  -0.73706
 Alpha  occ. eigenvalues --   -0.71844  -0.71345  -0.70675  -0.69148  -0.68888
 Alpha  occ. eigenvalues --   -0.68023  -0.66637  -0.63933  -0.61801  -0.61534
 Alpha  occ. eigenvalues --   -0.60848  -0.60062  -0.59695  -0.58781  -0.57760
 Alpha  occ. eigenvalues --   -0.57305  -0.55863  -0.55620  -0.54688  -0.54443
 Alpha  occ. eigenvalues --   -0.52447  -0.51965  -0.51651  -0.51494  -0.50736
 Alpha  occ. eigenvalues --   -0.49998  -0.48808  -0.48519  -0.48281  -0.48186
 Alpha  occ. eigenvalues --   -0.47652  -0.47208  -0.46580  -0.46103  -0.45910
 Alpha  occ. eigenvalues --   -0.45520  -0.45152  -0.44991  -0.44762  -0.44307
 Alpha  occ. eigenvalues --   -0.44132  -0.43837  -0.43278  -0.43023  -0.42890
 Alpha  occ. eigenvalues --   -0.42220  -0.41588  -0.41383  -0.41263  -0.41163
 Alpha  occ. eigenvalues --   -0.40729  -0.40548  -0.40350  -0.40159  -0.39832
 Alpha  occ. eigenvalues --   -0.39532  -0.39052  -0.38753  -0.38579  -0.38316
 Alpha  occ. eigenvalues --   -0.38205  -0.37974  -0.37502  -0.37014  -0.36348
 Alpha  occ. eigenvalues --   -0.35870  -0.35665  -0.35305  -0.34686  -0.34244
 Alpha  occ. eigenvalues --   -0.33832  -0.33011  -0.32904  -0.32637  -0.31885
 Alpha  occ. eigenvalues --   -0.30705  -0.30175  -0.29210  -0.28823  -0.28471
 Alpha  occ. eigenvalues --   -0.28106  -0.27410  -0.25437  -0.25364  -0.24502
 Alpha  occ. eigenvalues --   -0.23930  -0.23515  -0.22979  -0.21715  -0.19956
 Alpha virt. eigenvalues --   -0.13836  -0.08069  -0.06197  -0.04168  -0.02430
 Alpha virt. eigenvalues --   -0.00436   0.01192   0.01276   0.02196   0.02823
 Alpha virt. eigenvalues --    0.03069   0.03612   0.04300   0.04668   0.05185

 Mulliken charges:
               1
     1  O   -0.272302
     2  O   -0.211538
     3  O   -0.185039
     4  O   -0.270972
     5  O   -0.313257
     6  O   -0.280237
     7  N   -0.022972
     8  N   -0.169376
     9  N   -0.128004
    10  N   -0.390471
    11  C    0.169972
    12  C    0.138410
    13  C   -0.069677
    14  C   -0.139438
    15  C   -0.063156
    16  C   -0.018747
    17  C   -0.180608
    18  C    0.158735
    19  C   -0.046510
    20  C   -0.059772
    21  C    0.129828
    22  C    0.144344
    23  C   -0.101634
    24  C    0.090591
    25  C    0.059342
    26  C   -0.122271
    27  C    0.004405
    28  C    0.170828
    29  C    0.217761
    30  C   -0.041714
    31  C   -0.040602
    32  C    0.094391
    33  C   -0.088139
    34  C    0.152830
    35  C    0.160395
    36  C   -0.056167
    37  C    0.210136
    38  C    0.003489
    39  C   -0.206959
    40  C    0.215205
    41  C   -0.035239
    42  C    0.101636
    43  C   -0.068011
    44  H   -0.000893
    45  H   -0.000444
    46  H    0.017894
    47  H    0.069368
    48  H    0.116959
    49  H   -0.035006
    50  H   -0.004710
    51  H   -0.030837
    52  H   -0.005135
    53  H   -0.009278
    54  H    0.039792
    55  H    0.036006
    56  H    0.014106
    57  H    0.050381
    58  H   -0.009749
    59  H    0.060606
    60  H    0.223511
    61  H   -0.002793
    62  H   -0.002736
    63  H    0.007155
    64  H    0.093005
    65  H    0.044982
    66  H    0.051071
    67  H    0.031942
    68  H    0.027600
    69  H   -0.048808
    70  H    0.019098
    71  H    0.005028
    72  H    0.164636
    73  H    0.031286
    74  H    0.049733
    75  H    0.019700
    76  H    0.049635
    77  H    0.213237
    78  H    0.030453
    79  H    0.043718
 Sum of Mulliken charges =  -0.00000

 Dipole moment (field-independent basis, Debye):
    X=              3.8717    Y=              4.3631    Z=             -0.4132  Tot=              5.8479
 Quadrupole moment (field-independent basis, Debye-Ang):
   XX=           -247.8977   YY=           -239.5426   ZZ=           -265.8141
   XY=             12.3548   XZ=            -18.9705   YZ=            -13.9303

 Normal termination of Gaussian 16 at Mon Jul 29 02:16:48 2019.
