 Gaussian 16, Revision A.03,
 Gaussian 16:  ES64L-G16RevA.03 25-Dec-2016

 --------------------------
 # td=(NStates=1) B3LYP/SVP
 --------------------------

 --
 TD
 --
 Symbolic Z-matrix:
 Charge =  0 Multiplicity = 1

                         Standard orientation:
 ---------------------------------------------------------------------
 Center     Atomic      Atomic             Coordinates (Angstroms)
 Number     Number       Type             X           Y           Z
 ---------------------------------------------------------------------
      1          8           0        5.320868   -0.286230   -3.287693
      2          8           0       -3.041159   -2.742537    3.308063
      3          8           0       -3.435418   -0.483556    3.165075
      4          8           0       -1.869324    7.104164    1.336182
      5          8           0       -0.738087    6.847196   -0.636518
      6          8           0       -1.595804   -4.011792    0.197461
      7          7           0        2.323661    1.078957    0.559720
      8          7           0        4.329142   -0.553069   -1.228816
      9          7           0       -1.748830    0.641240   -0.488421
     10          7           0       -2.491063   -1.974371   -0.524657
     11          6           0        4.709581   -1.017898    0.049594
     12          6           0        4.462422   -0.091220    1.310812
     13          6           0        3.021797    0.222542    1.451391
     14          6           0        2.071100   -0.347136    2.185512
     15          6           0        0.748054    0.126704    1.771745
     16          6           0        0.972886    1.074797    0.820207
     17          6           0        6.188205   -1.213519   -0.101273
     18          6           0       -0.532245   -0.013083    2.580245
     19          6           0        6.637475   -0.773957   -1.318376
     20          6           0        0.114823    2.055412    0.140497
     21          6           0       -1.167442    1.934610   -0.363152
     22          6           0        5.322014   -0.520508   -2.089740
     23          6           0       -2.065711    2.881866   -1.056226
     24          6           0        2.208052   -1.315686    3.308080
     25          6           0        7.003824   -1.799607    1.065760
     26          6           0       -3.166749    2.226665   -1.448805
     27          6           0       -1.229705   -1.497831    2.567097
     28          6           0       -2.963406    0.740050   -1.078883
     29          6           0       -1.701382    4.259438   -1.159164
     30          6           0        7.963274   -0.908531   -2.024284
     31          6           0       -1.886796    4.958372    0.227913
     32          6           0       -4.407751    2.752840   -2.100116
     33          6           0       -3.914748   -0.252874   -1.433581
     34          6           0       -2.655195   -1.368079    3.052465
     35          6           0       -3.601633   -1.599479   -1.151089
     36          6           0        9.129605   -0.986087   -1.548752
     37          6           0       -1.440739    6.360190    0.194258
     38          6           0       -4.447013   -2.836143   -1.378980
     39          6           0       -3.755250   -3.885330   -0.859257
     40          6           0       -2.502638   -3.461475   -0.396728
     41          6           0       -5.701840   -2.714523   -2.018111
     42          6           0       -3.973775   -5.440329   -0.990119
     43          6           0       -6.550369   -3.590862   -2.476982
     44          1           0        4.190580   -1.983159    0.313740
     45          1           0        5.116483    0.865091    1.064589
     46          1           0        4.753730   -0.642543    2.204743
     47          1           0        2.763370    1.735317   -0.207970
     48          1           0        3.510710   -0.633617   -1.790398
     49          1           0       -0.395906    0.293113    3.639887
     50          1           0       -1.253541    0.564254    2.160450
     51          1           0        0.635944    2.995486   -0.059077
     52          1           0        3.223352   -1.529584    3.490897
     53          1           0        1.678540   -0.946918    4.183187
     54          1           0        1.660128   -2.362898    3.122183
     55          1           0        6.437991   -2.355436    1.687124
     56          1           0        7.525767   -0.995618    1.704101
     57          1           0        7.809862   -2.368176    0.597467
     58          1           0       -1.221908   -2.096540    1.536948
     59          1           0       -0.677832   -2.184143    3.171125
     60          1           0       -1.545345   -0.316004   -0.028593
     61          1           0       -2.457662    4.795772   -1.757586
     62          1           0       -0.686218    4.485392   -1.525768
     63          1           0        7.970522   -0.928629   -3.034536
     64          1           0       -1.272062    4.542380    1.185481
     65          1           0       -3.003431    4.975693    0.300588
     66          1           0       -4.059861    3.972780   -2.265136
     67          1           0       -5.326407    2.745244   -1.369816
     68          1           0       -4.563130    2.280065   -2.965497
     69          1           0       -4.791398   -0.088393   -2.139416
     70          1           0        9.400251   -0.991485   -0.591113
     71          1           0       10.020721   -0.770791   -2.241939
     72          1           0       -3.961083   -2.627650    3.719889
     73          1           0       -5.949429   -1.700175   -2.389220
     74          1           0       -4.728096   -5.811577   -0.123611
     75          1           0       -4.007636   -5.911625   -2.109391
     76          1           0       -3.109059   -6.171394   -0.640786
     77          1           0       -1.192275    7.837258    1.343684
     78          1           0       -7.539886   -3.405123   -2.902968
     79          1           0       -6.307129   -4.789602   -2.560355
 ---------------------------------------------------------------------

 SCF Done:  E(RB3LYP) =  -1947.86870106     A.U. after   16 cycles

 Excitation energies and oscillator strengths:

 Excited State   1:      Singlet-A      1.9924 eV  622.29 nm  f=0.3036  <S**2>=0.000
     155 ->156         0.69464
 This state for optimization and/or second-order correction.
 Total Energy, E(TD-HF/TD-DFT) =  -1947.79548166
 Copying the excited state density for this state as the 1-particle RhoCI density.

 The electronic state is 1-A.
 Alpha  occ. eigenvalues --  -19.17792 -19.14873 -19.14477 -19.13282 -19.11497
 Alpha  occ. eigenvalues --  -19.09251 -14.37732 -14.37524 -14.35958 -14.28753
 Alpha  occ. eigenvalues --  -10.32758 -10.30985 -10.27738 -10.26770 -10.25702
 Alpha  occ. eigenvalues --  -10.25444 -10.25182 -10.23019 -10.22951 -10.22709
 Alpha  occ. eigenvalues --  -10.22643 -10.22175 -10.22148 -10.22144 -10.21867
 Alpha  occ. eigenvalues --  -10.21777 -10.21661 -10.21420 -10.21349 -10.21338
 Alpha  occ. eigenvalues --  -10.21111 -10.20347 -10.20336 -10.20274 -10.20078
 Alpha  occ. eigenvalues --  -10.20054 -10.19399 -10.19396 -10.19145 -10.18430
 Alpha  occ. eigenvalues --  -10.18288 -10.18098 -10.17601  -1.09296  -1.07100
 Alpha  occ. eigenvalues --   -1.03094  -1.02161  -1.00767  -0.97869  -0.97833
 Alpha  occ. eigenvalues --   -0.97139  -0.95750  -0.91568  -0.84559  -0.82561
 Alpha  occ. eigenvalues --   -0.81446  -0.80954  -0.80243  -0.79614  -0.78634
 Alpha  occ. eigenvalues --   -0.77901  -0.76436  -0.75381  -0.74266  -0.72729
 Alpha  occ. eigenvalues --   -0.71819  -0.71430  -0.69494  -0.68774  -0.68691
 Alpha  occ. eigenvalues --   -0.66551  -0.65941  -0.64216  -0.61134  -0.60553
 Alpha  occ. eigenvalues --   -0.58896  -0.57953  -0.57544  -0.57010  -0.56206
 Alpha  occ. eigenvalues --   -0.55593  -0.55210  -0.54941  -0.54253  -0.53692
 Alpha  occ. eigenvalues --   -0.51979  -0.51774  -0.51667  -0.51347  -0.49952
 Alpha  occ. eigenvalues --   -0.48796  -0.48526  -0.48243  -0.47727  -0.47579
 Alpha  occ. eigenvalues --   -0.47175  -0.46939  -0.46571  -0.46046  -0.45891
 Alpha  occ. eigenvalues --   -0.45848  -0.45185  -0.44935  -0.43888  -0.43780
 Alpha  occ. eigenvalues --   -0.43654  -0.43367  -0.43126  -0.42850  -0.42597
 Alpha  occ. eigenvalues --   -0.42363  -0.42137  -0.41682  -0.41349  -0.41200
 Alpha  occ. eigenvalues --   -0.40835  -0.40485  -0.40428  -0.40119  -0.39611
 Alpha  occ. eigenvalues --   -0.39547  -0.39315  -0.38894  -0.38829  -0.38526
 Alpha  occ. eigenvalues --   -0.38044  -0.37958  -0.37862  -0.37432  -0.36828
 Alpha  occ. eigenvalues --   -0.36227  -0.35514  -0.35370  -0.34924  -0.34735
 Alpha  occ. eigenvalues --   -0.34457  -0.33459  -0.33096  -0.32594  -0.31466
 Alpha  occ. eigenvalues --   -0.31270  -0.30427  -0.29579  -0.28841  -0.27925
 Alpha  occ. eigenvalues --   -0.27434  -0.27074  -0.26935  -0.24817  -0.24729
 Alpha  occ. eigenvalues --   -0.24264  -0.24133  -0.23636  -0.22695  -0.19602
 Alpha virt. eigenvalues --   -0.11213  -0.07180  -0.04612  -0.01252  -0.00434
 Alpha virt. eigenvalues --    0.00866   0.01612   0.02029   0.02409   0.02936
 Alpha virt. eigenvalues --    0.03711   0.04100   0.04477   0.04819   0.05051

 Mulliken charges:
               1
     1  O   -0.237841
     2  O   -0.282910
     3  O   -0.186085
     4  O   -0.257988
     5  O   -0.198400
     6  O   -0.183104
     7  N   -0.162938
     8  N   -0.077483
     9  N   -0.115554
    10  N   -0.351471
    11  C    0.091043
    12  C    0.171499
    13  C   -0.043113
    14  C   -0.142512
    15  C   -0.088973
    16  C    0.078479
    17  C   -0.211177
    18  C    0.117878
    19  C   -0.015323
    20  C   -0.097595
    21  C    0.116758
    22  C    0.049605
    23  C   -0.021083
    24  C    0.107883
    25  C    0.126723
    26  C   -0.162832
    27  C   -0.079006
    28  C    0.133450
    29  C    0.091936
    30  C    0.057098
    31  C   -0.044200
    32  C    0.084867
    33  C   -0.141326
    34  C    0.164390
    35  C    0.064652
    36  C   -0.016175
    37  C    0.134317
    38  C    0.123866
    39  C   -0.150734
    40  C    0.181672
    41  C   -0.018151
    42  C   -0.046887
    43  C   -0.084134
    44  H    0.022913
    45  H    0.009993
    46  H   -0.001062
    47  H    0.147392
    48  H    0.119503
    49  H    0.018245
    50  H   -0.031880
    51  H   -0.014021
    52  H   -0.022599
    53  H    0.012948
    54  H    0.042032
    55  H   -0.014184
    56  H    0.042946
    57  H    0.033657
    58  H    0.119366
    59  H    0.014288
    60  H    0.192293
    61  H    0.000734
    62  H    0.034885
    63  H   -0.031703
    64  H    0.091775
    65  H    0.047944
    66  H    0.030341
    67  H    0.063358
    68  H    0.013289
    69  H    0.005273
    70  H   -0.042751
    71  H    0.030551
    72  H    0.177641
    73  H   -0.006115
    74  H    0.048684
    75  H    0.059452
    76  H    0.036503
    77  H    0.189691
    78  H    0.030559
    79  H    0.048936
 Sum of Mulliken charges =  -0.00000

 Dipole moment (field-independent basis, Debye):
    X=             -0.8472    Y=              1.8124    Z=              1.9957  Tot=              2.8258
 Quadrupole moment (field-independent basis, Debye-Ang):
   XX=           -225.9129   YY=           -251.4162   ZZ=           -260.9341
   XY=              0.1624   XZ=             39.0074   YZ=              4.4370

 Normal termination of Gaussian 16 at Wed Oct  9 00:21:01 2019.
