 Gaussian 16, Revision A.03,
 Gaussian 16:  ES64L-G16RevA.03 25-Dec-2016

 --------------------------
 # td=(NStates=1) B3LYP/SVP
 --------------------------

 --
 TD
 --
 Symbolic Z-matrix:
 Charge =  0 Multiplicity = 1

                         Standard orientation:
 ---------------------------------------------------------------------
 Center     Atomic      Atomic             Coordinates (Angstroms)
 Number     Number       Type             X           Y           Z
 ---------------------------------------------------------------------
      1          8           0       -3.335250   -1.789966   -2.797993
      2          8           0        2.990773    3.433594    2.765445
      3          8           0        3.512426    1.882140    4.190132
      4          8           0        7.780770   -1.675984   -0.608062
      5          8           0        6.621968   -3.348037   -1.663813
      6          8           0       -2.714772    1.750691    1.242427
      7          7           0       -0.285629   -2.354752    1.066582
      8          7           0       -2.712833   -1.334471   -0.579990
      9          7           0        1.273067    0.113101   -0.697197
     10          7           0       -0.819243    1.438398   -0.240836
     11          6           0       -3.349367   -1.269052    0.649184
     12          6           0       -2.568260   -2.141048    1.818576
     13          6           0       -1.232962   -1.852839    2.010903
     14          6           0       -0.598986   -0.841528    2.857679
     15          6           0        0.771559   -0.807639    2.541407
     16          6           0        0.931278   -1.745929    1.418605
     17          6           0       -4.765395   -1.923929    0.441136
     18          6           0        1.876093   -0.021018    3.141284
     19          6           0       -4.943911   -2.069590   -0.897202
     20          6           0        2.063290   -1.865382    0.524267
     21          6           0        2.188759   -0.928969   -0.514402
     22          6           0       -3.564974   -1.697399   -1.623629
     23          6           0        2.999705   -0.850852   -1.636597
     24          6           0       -1.309753    0.029943    3.946749
     25          6           0       -5.793627   -2.118718    1.538028
     26          6           0        2.524501    0.264031   -2.487392
     27          6           0        1.986131    1.314571    2.614684
     28          6           0        1.462618    0.805370   -1.763513
     29          6           0        4.257855   -1.719874   -1.913076
     30          6           0       -6.001309   -2.653121   -1.750330
     31          6           0        5.405464   -1.312503   -1.030111
     32          6           0        3.167003    0.686518   -3.801019
     33          6           0        0.591663    1.863067   -2.160511
     34          6           0        2.847623    2.255007    3.300462
     35          6           0       -0.484452    2.148269   -1.405089
     36          6           0       -7.150953   -3.201644   -1.401415
     37          6           0        6.661974   -2.271853   -1.091302
     38          6           0       -1.346825    3.383238   -1.504415
     39          6           0       -2.166701    3.472104   -0.493779
     40          6           0       -1.953760    2.150858    0.305526
     41          6           0       -1.188504    4.300424   -2.669126
     42          6           0       -3.250984    4.419845   -0.028852
     43          6           0       -1.952293    5.384960   -2.998336
     44          1           0       -3.237241   -0.287346    1.085540
     45          1           0       -2.645714   -3.216100    1.442034
     46          1           0       -3.213302   -1.891705    2.741022
     47          1           0       -0.471203   -2.751473    0.157607
     48          1           0       -2.063363   -0.779941   -0.631660
     49          1           0        1.727320   -0.051780    4.211618
     50          1           0        2.761473   -0.658685    2.979527
     51          1           0        3.001640   -2.609961    0.831443
     52          1           0       -1.808741   -0.695557    4.648499
     53          1           0       -0.523423    0.533353    4.551354
     54          1           0       -2.142547    0.509284    3.438345
     55          1           0       -5.571440   -1.516486    2.439230
     56          1           0       -5.939628   -3.242117    1.861126
     57          1           0       -6.715438   -1.651569    1.089085
     58          1           0        2.296690    1.375890    1.570884
     59          1           0        0.794224    1.740722    2.746924
     60          1           0        0.553579    0.500965   -0.191570
     61          1           0        4.562798   -1.847940   -2.960903
     62          1           0        3.924931   -2.663949   -1.688154
     63          1           0       -5.724365   -2.529175   -2.861914
     64          1           0        4.933179   -1.137605   -0.037057
     65          1           0        6.095621   -0.385587   -1.344371
     66          1           0        3.824794   -0.113128   -4.142683
     67          1           0        3.837768    1.508061   -3.608787
     68          1           0        2.200509    0.960934   -4.438065
     69          1           0        0.792644    2.472309   -2.999929
     70          1           0       -7.437160   -3.254441   -0.379493
     71          1           0       -7.968013   -3.407722   -1.971664
     72          1           0        3.443144    3.852492    3.723126
     73          1           0       -0.269176    4.082827   -3.197439
     74          1           0       -4.066041    4.322944   -0.706734
     75          1           0       -3.787902    3.938606    0.756990
     76          1           0       -2.710066    5.372867    0.246234
     77          1           0        8.301882   -2.326515   -0.881918
     78          1           0       -1.559757    5.968582   -3.589257
     79          1           0       -2.907538    5.711598   -2.384362
 ---------------------------------------------------------------------

 SCF Done:  E(RB3LYP) =  -1947.77868525     A.U. after   21 cycles

 Excitation energies and oscillator strengths:

 Excited State   1:      Singlet-A      0.6890 eV 1799.51 nm  f=0.0049  <S**2>=0.000
     155 ->156         0.70522
 This state for optimization and/or second-order correction.
 Total Energy, E(TD-HF/TD-DFT) =  -1947.75336534
 Copying the excited state density for this state as the 1-particle RhoCI density.

 The electronic state is 1-A.
 Alpha  occ. eigenvalues --  -19.20349 -19.18992 -19.15081 -19.11855 -19.11832
 Alpha  occ. eigenvalues --  -19.09692 -14.37497 -14.36525 -14.32286 -14.30681
 Alpha  occ. eigenvalues --  -10.34360 -10.30504 -10.28358 -10.27823 -10.26250
 Alpha  occ. eigenvalues --  -10.25629 -10.25389 -10.24123 -10.23408 -10.23041
 Alpha  occ. eigenvalues --  -10.22586 -10.22184 -10.21873 -10.21516 -10.21470
 Alpha  occ. eigenvalues --  -10.20901 -10.20700 -10.20640 -10.20504 -10.20489
 Alpha  occ. eigenvalues --  -10.20323 -10.20135 -10.20066 -10.19290 -10.19213
 Alpha  occ. eigenvalues --  -10.19150 -10.19038 -10.18822 -10.18762 -10.18742
 Alpha  occ. eigenvalues --  -10.18589 -10.18374 -10.16874  -1.14035  -1.11733
 Alpha  occ. eigenvalues --   -1.03356  -1.02599  -1.02275  -1.01267  -0.99745
 Alpha  occ. eigenvalues --   -0.95509  -0.94312  -0.91325  -0.84398  -0.82592
 Alpha  occ. eigenvalues --   -0.81887  -0.80815  -0.80401  -0.79175  -0.78694
 Alpha  occ. eigenvalues --   -0.77206  -0.76316  -0.75443  -0.74659  -0.73170
 Alpha  occ. eigenvalues --   -0.70973  -0.70464  -0.70107  -0.69817  -0.68322
 Alpha  occ. eigenvalues --   -0.67349  -0.65842  -0.62881  -0.61585  -0.61457
 Alpha  occ. eigenvalues --   -0.60645  -0.59122  -0.58035  -0.57302  -0.57032
 Alpha  occ. eigenvalues --   -0.56820  -0.55282  -0.54997  -0.53206  -0.52338
 Alpha  occ. eigenvalues --   -0.52055  -0.51729  -0.51093  -0.51026  -0.50670
 Alpha  occ. eigenvalues --   -0.50442  -0.49591  -0.49165  -0.49027  -0.48079
 Alpha  occ. eigenvalues --   -0.47814  -0.47314  -0.47158  -0.46917  -0.46568
 Alpha  occ. eigenvalues --   -0.45559  -0.44963  -0.44630  -0.44621  -0.44424
 Alpha  occ. eigenvalues --   -0.43713  -0.43595  -0.43046  -0.42853  -0.42617
 Alpha  occ. eigenvalues --   -0.42449  -0.42037  -0.41837  -0.41817  -0.41573
 Alpha  occ. eigenvalues --   -0.41329  -0.41034  -0.40940  -0.40452  -0.40049
 Alpha  occ. eigenvalues --   -0.39691  -0.39138  -0.38992  -0.38677  -0.38340
 Alpha  occ. eigenvalues --   -0.38095  -0.37576  -0.37390  -0.37022  -0.36821
 Alpha  occ. eigenvalues --   -0.36069  -0.35583  -0.35116  -0.34894  -0.34686
 Alpha  occ. eigenvalues --   -0.34467  -0.34135  -0.32891  -0.32424  -0.32036
 Alpha  occ. eigenvalues --   -0.31768  -0.30545  -0.29765  -0.29305  -0.28345
 Alpha  occ. eigenvalues --   -0.27851  -0.26412  -0.25604  -0.25027  -0.24627
 Alpha  occ. eigenvalues --   -0.24208  -0.23838  -0.22883  -0.22113  -0.18301
 Alpha virt. eigenvalues --   -0.13094  -0.07188  -0.03985  -0.01956  -0.01385
 Alpha virt. eigenvalues --   -0.00679   0.00408   0.01846   0.02385   0.03021
 Alpha virt. eigenvalues --    0.03654   0.04342   0.04567   0.05149   0.05879

 Mulliken charges:
               1
     1  O   -0.200048
     2  O   -0.219754
     3  O   -0.211712
     4  O   -0.102000
     5  O   -0.228308
     6  O   -0.269018
     7  N   -0.113684
     8  N   -0.062616
     9  N    0.064871
    10  N   -0.375665
    11  C    0.023713
    12  C    0.089011
    13  C   -0.018473
    14  C   -0.144266
    15  C   -0.129117
    16  C   -0.010944
    17  C   -0.138015
    18  C    0.187298
    19  C   -0.090291
    20  C   -0.143312
    21  C    0.123253
    22  C    0.151353
    23  C   -0.129037
    24  C    0.111241
    25  C    0.042010
    26  C   -0.166130
    27  C   -0.034726
    28  C    0.032732
    29  C    0.191702
    30  C   -0.003193
    31  C   -0.078549
    32  C    0.117411
    33  C   -0.092398
    34  C    0.099568
    35  C    0.133399
    36  C    0.009815
    37  C    0.151175
    38  C    0.053988
    39  C   -0.263795
    40  C    0.220958
    41  C   -0.039144
    42  C    0.171610
    43  C    0.074838
    44  H    0.038746
    45  H   -0.010542
    46  H    0.003629
    47  H    0.125885
    48  H    0.019775
    49  H   -0.000350
    50  H   -0.014444
    51  H    0.069572
    52  H    0.010012
    53  H    0.014591
    54  H    0.044787
    55  H    0.021004
    56  H    0.058442
    57  H    0.047549
    58  H    0.029466
    59  H    0.075880
    60  H    0.113402
    61  H    0.008148
    62  H   -0.009954
    63  H    0.023439
    64  H    0.051822
    65  H    0.058169
    66  H    0.017159
    67  H    0.031821
    68  H    0.063184
    69  H   -0.041754
    70  H   -0.014267
    71  H   -0.006863
    72  H    0.230416
    73  H   -0.016942
    74  H    0.015724
    75  H   -0.006025
    76  H    0.057412
    77  H    0.114594
    78  H   -0.057470
    79  H    0.048226
 Sum of Mulliken charges =  -0.00000

 Dipole moment (field-independent basis, Debye):
    X=              3.9215    Y=              2.8087    Z=             -0.2332  Tot=              4.8292
 Quadrupole moment (field-independent basis, Debye-Ang):
   XX=           -236.6203   YY=           -246.1977   ZZ=           -260.6571
   XY=             -0.0227   XZ=            -22.7335   YZ=            -11.3889

 Normal termination of Gaussian 16 at Sun Jul 28 01:26:34 2019.
