 Gaussian 16, Revision A.03,
 Gaussian 16:  ES64L-G16RevA.03 25-Dec-2016

 --------------------------
 # td=(NStates=1) B3LYP/SVP
 --------------------------

 --
 TD
 --
 Symbolic Z-matrix:
 Charge =  0 Multiplicity = 1

                         Standard orientation:
 ---------------------------------------------------------------------
 Center     Atomic      Atomic             Coordinates (Angstroms)
 Number     Number       Type             X           Y           Z
 ---------------------------------------------------------------------
      1          8           0       -3.292780   -1.276802   -2.931604
      2          8           0        3.384936    2.906510    2.964135
      3          8           0        4.100888    1.008881    4.072331
      4          8           0        7.651219   -1.652661   -0.697788
      5          8           0        6.716646   -2.790446   -2.357978
      6          8           0       -2.738266    1.492837    1.474996
      7          7           0       -0.302345   -2.464199    0.880030
      8          7           0       -2.676332   -1.131987   -0.576022
      9          7           0        0.964709    0.022337   -0.828103
     10          7           0       -1.057991    1.470500   -0.177619
     11          6           0       -3.443312   -1.298893    0.672874
     12          6           0       -2.666698   -2.300528    1.572792
     13          6           0       -1.249850   -1.987450    1.834534
     14          6           0       -0.628984   -1.185369    2.784428
     15          6           0        0.732368   -1.169533    2.439074
     16          6           0        0.854533   -1.899863    1.214556
     17          6           0       -4.722763   -1.861251    0.134291
     18          6           0        1.899572   -0.508292    3.084910
     19          6           0       -4.798717   -2.070810   -1.201258
     20          6           0        1.984328   -1.830439    0.235969
     21          6           0        1.994495   -0.886843   -0.796768
     22          6           0       -3.455229   -1.473041   -1.683289
     23          6           0        2.963630   -0.602633   -1.696971
     24          6           0       -1.253954   -0.644011    3.981158
     25          6           0       -5.924763   -2.114459    1.057884
     26          6           0        2.571768    0.588640   -2.365408
     27          6           0        1.993558    0.977124    2.760615
     28          6           0        1.235579    1.008881   -1.792578
     29          6           0        4.200071   -1.353118   -2.081857
     30          6           0       -5.809470   -2.584536   -2.058419
     31          6           0        5.404439   -1.119053   -1.097743
     32          6           0        3.216567    1.337218   -3.451442
     33          6           0        0.459574    2.152830   -1.874616
     34          6           0        3.261653    1.512967    3.370251
     35          6           0       -0.682866    2.368997   -1.118800
     36          6           0       -6.814531   -3.370768   -1.676279
     37          6           0        6.659937   -1.995096   -1.502559
     38          6           0       -1.483968    3.655627   -1.058471
     39          6           0       -2.342327    3.387996   -0.051363
     40          6           0       -2.044969    2.049249    0.564613
     41          6           0       -1.374562    4.761058   -1.983594
     42          6           0       -3.424169    4.316240    0.532219
     43          6           0       -1.981122    5.971089   -1.916448
     44          1           0       -3.540687   -0.256448    1.146566
     45          1           0       -2.697756   -3.281379    0.992530
     46          1           0       -3.268464   -2.396912    2.576848
     47          1           0       -0.395018   -2.766271    0.015461
     48          1           0       -2.049105   -0.316879   -0.689760
     49          1           0        1.814707   -0.547592    4.149891
     50          1           0        2.818894   -0.870095    2.785986
     51          1           0        2.848485   -2.550800    0.375291
     52          1           0       -2.078758   -1.208038    4.414809
     53          1           0       -0.424107   -0.488256    4.765305
     54          1           0       -1.841318    0.493972    3.889287
     55          1           0       -5.912737   -1.549714    2.022878
     56          1           0       -5.763764   -3.162189    1.368996
     57          1           0       -6.833768   -2.029298    0.506831
     58          1           0        2.063415    1.050943    1.728492
     59          1           0        1.168779    1.793428    2.997712
     60          1           0        0.039982    0.079049   -0.353462
     61          1           0        4.603209   -0.957746   -3.122934
     62          1           0        4.174546   -2.448705   -2.218215
     63          1           0       -5.466872   -2.196331   -3.130348
     64          1           0        5.042021   -1.465576   -0.012769
     65          1           0        5.713910   -0.056634   -1.093095
     66          1           0        4.355870    0.873754   -3.578189
     67          1           0        3.242496    2.529166   -3.216982
     68          1           0        2.525989    0.984952   -4.335343
     69          1           0        0.923060    2.821251   -2.735360
     70          1           0       -6.953911   -3.772585   -0.594122
     71          1           0       -7.411577   -3.519142   -2.633021
     72          1           0        4.284478    2.948062    3.536787
     73          1           0       -0.791684    4.505563   -2.797575
     74          1           0       -4.000587    4.609413   -0.325921
     75          1           0       -4.060896    3.698009    1.114218
     76          1           0       -2.969605    5.181923    1.037851
     77          1           0        8.369499   -2.287418   -0.988425
     78          1           0       -1.894978    6.727530   -2.809827
     79          1           0       -2.690067    6.056295   -1.064966
 ---------------------------------------------------------------------

 SCF Done:  E(RB3LYP) =  -1947.89440352     A.U. after   21 cycles

 Excitation energies and oscillator strengths:

 Excited State   1:      Singlet-A      1.0225 eV 1212.60 nm  f=0.0062  <S**2>=0.000
     155 ->156         0.70310
 This state for optimization and/or second-order correction.
 Total Energy, E(TD-HF/TD-DFT) =  -1947.85682853
 Copying the excited state density for this state as the 1-particle RhoCI density.

 The electronic state is 1-A.
 Alpha  occ. eigenvalues --  -19.20285 -19.16946 -19.14874 -19.14788 -19.12133
 Alpha  occ. eigenvalues --  -19.08179 -14.37404 -14.36650 -14.33213 -14.31489
 Alpha  occ. eigenvalues --  -10.33466 -10.32323 -10.28507 -10.27034 -10.26924
 Alpha  occ. eigenvalues --  -10.25975 -10.25566 -10.24553 -10.23838 -10.23808
 Alpha  occ. eigenvalues --  -10.23282 -10.22951 -10.22790 -10.21975 -10.21947
 Alpha  occ. eigenvalues --  -10.21452 -10.21424 -10.21233 -10.20868 -10.20792
 Alpha  occ. eigenvalues --  -10.20744 -10.20345 -10.20333 -10.19638 -10.19501
 Alpha  occ. eigenvalues --  -10.19105 -10.18939 -10.18717 -10.18604 -10.18567
 Alpha  occ. eigenvalues --  -10.17774 -10.17720 -10.17432  -1.13208  -1.08155
 Alpha  occ. eigenvalues --   -1.04213  -1.01175  -0.99688  -0.98603  -0.98197
 Alpha  occ. eigenvalues --   -0.97654  -0.94076  -0.91064  -0.84248  -0.82577
 Alpha  occ. eigenvalues --   -0.82096  -0.81926  -0.80406  -0.79250  -0.78409
 Alpha  occ. eigenvalues --   -0.77239  -0.76375  -0.75642  -0.74419  -0.73085
 Alpha  occ. eigenvalues --   -0.71022  -0.70459  -0.69236  -0.68974  -0.68168
 Alpha  occ. eigenvalues --   -0.67219  -0.65974  -0.62904  -0.61254  -0.60676
 Alpha  occ. eigenvalues --   -0.59454  -0.59018  -0.57857  -0.57265  -0.56671
 Alpha  occ. eigenvalues --   -0.55645  -0.54727  -0.54359  -0.54170  -0.53171
 Alpha  occ. eigenvalues --   -0.52036  -0.51445  -0.50981  -0.50620  -0.50349
 Alpha  occ. eigenvalues --   -0.49774  -0.48898  -0.48620  -0.48476  -0.47874
 Alpha  occ. eigenvalues --   -0.47721  -0.47235  -0.46806  -0.46280  -0.46190
 Alpha  occ. eigenvalues --   -0.45184  -0.44936  -0.44668  -0.44529  -0.43820
 Alpha  occ. eigenvalues --   -0.43745  -0.43283  -0.42891  -0.42579  -0.42342
 Alpha  occ. eigenvalues --   -0.42216  -0.41971  -0.41621  -0.41178  -0.41001
 Alpha  occ. eigenvalues --   -0.40663  -0.40570  -0.40263  -0.40050  -0.39453
 Alpha  occ. eigenvalues --   -0.39384  -0.39087  -0.39008  -0.38283  -0.37880
 Alpha  occ. eigenvalues --   -0.37249  -0.37090  -0.36623  -0.36426  -0.36261
 Alpha  occ. eigenvalues --   -0.36169  -0.36011  -0.35830  -0.35308  -0.34873
 Alpha  occ. eigenvalues --   -0.34770  -0.34655  -0.33916  -0.32720  -0.32300
 Alpha  occ. eigenvalues --   -0.31721  -0.30500  -0.30193  -0.29942  -0.29538
 Alpha  occ. eigenvalues --   -0.29075  -0.26911  -0.26097  -0.24807  -0.24294
 Alpha  occ. eigenvalues --   -0.23679  -0.22961  -0.22718  -0.22085  -0.19398
 Alpha virt. eigenvalues --   -0.13118  -0.08049  -0.03284  -0.02511  -0.00900
 Alpha virt. eigenvalues --   -0.00244   0.00845   0.01282   0.02312   0.02949
 Alpha virt. eigenvalues --    0.03097   0.03899   0.04150   0.05394   0.05473

 Mulliken charges:
               1
     1  O   -0.304171
     2  O   -0.297032
     3  O   -0.219064
     4  O   -0.162217
     5  O   -0.180699
     6  O   -0.265835
     7  N    0.025361
     8  N   -0.249704
     9  N   -0.117107
    10  N   -0.318822
    11  C    0.081416
    12  C    0.164413
    13  C   -0.073229
    14  C   -0.022715
    15  C   -0.098787
    16  C   -0.083582
    17  C   -0.232349
    18  C    0.209022
    19  C   -0.036845
    20  C   -0.129078
    21  C    0.130141
    22  C    0.166770
    23  C    0.013635
    24  C   -0.008615
    25  C    0.088387
    26  C   -0.124224
    27  C   -0.007416
    28  C    0.071965
    29  C    0.032979
    30  C   -0.044506
    31  C   -0.086133
    32  C   -0.040440
    33  C   -0.110932
    34  C    0.160142
    35  C    0.138599
    36  C   -0.055156
    37  C    0.120014
    38  C    0.066593
    39  C   -0.255765
    40  C    0.202216
    41  C    0.006176
    42  C    0.144465
    43  C   -0.025643
    44  H    0.080370
    45  H   -0.013672
    46  H    0.007179
    47  H    0.063797
    48  H    0.154770
    49  H   -0.005835
    50  H   -0.032062
    51  H    0.030789
    52  H    0.009275
    53  H    0.015241
    54  H    0.049854
    55  H    0.016063
    56  H    0.025023
    57  H    0.030614
    58  H    0.007978
    59  H    0.070821
    60  H    0.190073
    61  H    0.028592
    62  H    0.034679
    63  H    0.042028
    64  H    0.066105
    65  H    0.044372
    66  H    0.056170
    67  H    0.078013
    68  H    0.080293
    69  H    0.018319
    70  H    0.052147
    71  H    0.037773
    72  H    0.192633
    73  H   -0.045173
    74  H    0.020074
    75  H    0.010145
    76  H    0.049830
    77  H    0.185506
    78  H    0.056545
    79  H    0.019439
 Sum of Mulliken charges =  -0.00000

 Dipole moment (field-independent basis, Debye):
    X=              4.5399    Y=              2.1276    Z=             -0.5386  Tot=              5.0426
 Quadrupole moment (field-independent basis, Debye-Ang):
   XX=           -237.7920   YY=           -241.8009   ZZ=           -267.6450
   XY=             -4.5527   XZ=            -22.0133   YZ=            -16.2758

 Normal termination of Gaussian 16 at Wed Jul 24 23:56:18 2019.
