 Gaussian 16, Revision A.03,
 Gaussian 16:  ES64L-G16RevA.03 25-Dec-2016

 --------------------------
 # td=(NStates=1) B3LYP/SVP
 --------------------------

 --
 TD
 --
 Symbolic Z-matrix:
 Charge =  0 Multiplicity = 1

                         Standard orientation:
 ---------------------------------------------------------------------
 Center     Atomic      Atomic             Coordinates (Angstroms)
 Number     Number       Type             X           Y           Z
 ---------------------------------------------------------------------
      1          8           0        5.283118   -0.134355   -3.241766
      2          8           0       -2.750565   -3.278653    3.176520
      3          8           0       -3.360503   -1.110144    2.934173
      4          8           0       -2.209929    7.383890    1.270464
      5          8           0       -0.684715    6.948639   -0.499492
      6          8           0       -1.398624   -3.978751   -0.255634
      7          7           0        2.284633    1.001222    0.601716
      8          7           0        4.298510   -0.594214   -1.257021
      9          7           0       -1.895557    0.644441   -0.450896
     10          7           0       -2.328820   -1.914702   -0.735246
     11          6           0        4.863705   -1.123352    0.109806
     12          6           0        4.440466   -0.076940    1.310183
     13          6           0        2.896689    0.035956    1.343072
     14          6           0        1.958817   -0.543395    2.090304
     15          6           0        0.659810   -0.056978    1.810860
     16          6           0        0.933351    0.974958    0.772186
     17          6           0        6.252360   -1.038773   -0.161442
     18          6           0       -0.621741   -0.365881    2.426437
     19          6           0        6.584206   -0.660594   -1.451566
     20          6           0        0.063327    1.905400    0.184657
     21          6           0       -1.238917    1.861412   -0.309794
     22          6           0        5.420635   -0.416746   -2.128187
     23          6           0       -2.036650    2.885491   -0.806548
     24          6           0        2.353475   -1.643853    3.228327
     25          6           0        7.159413   -1.566973    0.980000
     26          6           0       -3.300441    2.285547   -1.103310
     27          6           0       -1.019717   -1.826320    2.490845
     28          6           0       -3.100968    0.874253   -0.972530
     29          6           0       -1.841246    4.360753   -0.836532
     30          6           0        7.940507   -0.555483   -1.980331
     31          6           0       -1.901177    5.065627    0.551457
     32          6           0       -4.524347    2.973470   -1.778078
     33          6           0       -3.972241   -0.112078   -1.221910
     34          6           0       -2.421284   -1.923955    2.819063
     35          6           0       -3.538520   -1.577627   -1.195440
     36          6           0        9.125126   -0.467405   -1.462892
     37          6           0       -1.535984    6.581839    0.366651
     38          6           0       -4.375228   -2.671128   -1.427611
     39          6           0       -3.630321   -3.868540   -1.197888
     40          6           0       -2.334649   -3.391686   -0.679588
     41          6           0       -5.814722   -2.556262   -1.820402
     42          6           0       -4.014599   -5.308672   -1.242156
     43          6           0       -6.678842   -3.474074   -2.251190
     44          1           0        4.423025   -2.058802    0.140715
     45          1           0        5.096390    0.774076    0.906445
     46          1           0        4.888065   -0.450851    2.274952
     47          1           0        2.818456    1.616162    0.045934
     48          1           0        3.244993   -0.710322   -1.479385
     49          1           0       -0.691057    0.116633    3.569556
     50          1           0       -1.238409    0.305744    1.930630
     51          1           0        0.701961    2.957906    0.248368
     52          1           0        3.411270   -1.488144    3.689569
     53          1           0        1.568920   -1.670599    4.153320
     54          1           0        2.308209   -2.650909    2.764754
     55          1           0        6.696394   -2.197462    1.711137
     56          1           0        7.355643   -0.783943    1.633604
     57          1           0        8.020978   -1.990167    0.514927
     58          1           0       -0.789303   -2.363947    1.524882
     59          1           0       -0.336343   -2.429503    3.200572
     60          1           0       -1.596742   -0.286255   -0.215675
     61          1           0       -2.574699    4.686875   -1.624645
     62          1           0       -0.869623    4.472508   -1.218185
     63          1           0        7.819123   -0.610849   -3.207075
     64          1           0       -1.224538    4.453341    1.127975
     65          1           0       -2.858942    4.929492    1.113369
     66          1           0       -4.450457    4.154823   -1.541536
     67          1           0       -5.496978    2.673477   -1.380063
     68          1           0       -4.778636    2.728603   -2.847068
     69          1           0       -4.921547   -0.074255   -1.630209
     70          1           0        9.551728   -0.286856   -0.450628
     71          1           0       10.067198   -0.369552   -2.161601
     72          1           0       -3.722506   -3.226009    3.418611
     73          1           0       -6.370960   -1.566221   -1.968758
     74          1           0       -4.706167   -5.603236   -0.413323
     75          1           0       -4.240070   -5.481364   -2.252648
     76          1           0       -2.970753   -5.784777   -0.990217
     77          1           0       -2.007733    8.295613    1.083564
     78          1           0       -7.641371   -3.434531   -2.608682
     79          1           0       -6.528898   -4.716878   -1.985896
 ---------------------------------------------------------------------

 SCF Done:  E(RB3LYP) =  -1947.82788685     A.U. after   17 cycles

 Excitation energies and oscillator strengths:

 Excited State   1:      Singlet-A      1.8140 eV  683.50 nm  f=0.3496  <S**2>=0.000
     154 ->156         0.11812
     155 ->156         0.69534
     155 <-156        -0.12657
 This state for optimization and/or second-order correction.
 Total Energy, E(TD-HF/TD-DFT) =  -1947.76122505
 Copying the excited state density for this state as the 1-particle RhoCI density.

 The electronic state is 1-A.
 Alpha  occ. eigenvalues --  -19.20151 -19.15208 -19.14148 -19.12270 -19.11982
 Alpha  occ. eigenvalues --  -19.09081 -14.38520 -14.35253 -14.33685 -14.28595
 Alpha  occ. eigenvalues --  -10.34344 -10.31417 -10.27040 -10.26876 -10.24196
 Alpha  occ. eigenvalues --  -10.24038 -10.24031 -10.23625 -10.23077 -10.23068
 Alpha  occ. eigenvalues --  -10.22778 -10.22644 -10.22443 -10.22013 -10.22000
 Alpha  occ. eigenvalues --  -10.21526 -10.21440 -10.21258 -10.21209 -10.21079
 Alpha  occ. eigenvalues --  -10.20849 -10.20574 -10.20548 -10.20417 -10.20416
 Alpha  occ. eigenvalues --  -10.20319 -10.20140 -10.20068 -10.19949 -10.19874
 Alpha  occ. eigenvalues --  -10.19391 -10.19312 -10.18271  -1.09106  -1.05175
 Alpha  occ. eigenvalues --   -1.04950  -1.04223  -0.99980  -0.99887  -0.99031
 Alpha  occ. eigenvalues --   -0.96349  -0.91991  -0.91436  -0.82933  -0.82240
 Alpha  occ. eigenvalues --   -0.81498  -0.81125  -0.79684  -0.79145  -0.77909
 Alpha  occ. eigenvalues --   -0.77289  -0.76999  -0.75912  -0.74460  -0.72868
 Alpha  occ. eigenvalues --   -0.71760  -0.70506  -0.70131  -0.68862  -0.68473
 Alpha  occ. eigenvalues --   -0.68180  -0.66378  -0.64178  -0.61889  -0.60786
 Alpha  occ. eigenvalues --   -0.60442  -0.58328  -0.57924  -0.57594  -0.57106
 Alpha  occ. eigenvalues --   -0.56364  -0.56200  -0.55402  -0.53931  -0.53194
 Alpha  occ. eigenvalues --   -0.52089  -0.51479  -0.50371  -0.50149  -0.49503
 Alpha  occ. eigenvalues --   -0.49042  -0.48790  -0.48624  -0.48033  -0.46810
 Alpha  occ. eigenvalues --   -0.46697  -0.46420  -0.46287  -0.46057  -0.45492
 Alpha  occ. eigenvalues --   -0.45418  -0.44963  -0.44683  -0.44636  -0.44110
 Alpha  occ. eigenvalues --   -0.43884  -0.43379  -0.42939  -0.42486  -0.42184
 Alpha  occ. eigenvalues --   -0.42017  -0.41785  -0.41318  -0.41178  -0.40945
 Alpha  occ. eigenvalues --   -0.40587  -0.40231  -0.39974  -0.39945  -0.39810
 Alpha  occ. eigenvalues --   -0.39693  -0.39306  -0.39222  -0.38935  -0.38811
 Alpha  occ. eigenvalues --   -0.38361  -0.38144  -0.37876  -0.37076  -0.36705
 Alpha  occ. eigenvalues --   -0.36602  -0.35725  -0.35549  -0.35073  -0.35021
 Alpha  occ. eigenvalues --   -0.32992  -0.32811  -0.32615  -0.32475  -0.32130
 Alpha  occ. eigenvalues --   -0.30972  -0.29911  -0.29041  -0.28734  -0.28367
 Alpha  occ. eigenvalues --   -0.27093  -0.25941  -0.25522  -0.25424  -0.24840
 Alpha  occ. eigenvalues --   -0.24523  -0.24290  -0.23705  -0.22120  -0.18440
 Alpha virt. eigenvalues --   -0.11315  -0.07371  -0.06206  -0.02797  -0.01019
 Alpha virt. eigenvalues --   -0.00482   0.00830   0.01733   0.02529   0.03649
 Alpha virt. eigenvalues --    0.04393   0.04790   0.05106   0.05216   0.05665

 Mulliken charges:
               1
     1  O   -0.146089
     2  O   -0.271031
     3  O   -0.255316
     4  O   -0.179544
     5  O   -0.265360
     6  O   -0.150548
     7  N   -0.011059
     8  N   -0.342959
     9  N   -0.036691
    10  N   -0.331353
    11  C    0.121710
    12  C    0.115748
    13  C   -0.049971
    14  C   -0.115925
    15  C   -0.101171
    16  C    0.022941
    17  C   -0.225242
    18  C    0.103758
    19  C    0.003173
    20  C   -0.174758
    21  C    0.136244
    22  C    0.118392
    23  C   -0.135229
    24  C   -0.011344
    25  C    0.165517
    26  C   -0.111422
    27  C    0.008220
    28  C    0.195296
    29  C    0.140984
    30  C    0.020123
    31  C    0.028894
    32  C    0.035219
    33  C   -0.077128
    34  C    0.178702
    35  C    0.020474
    36  C   -0.114959
    37  C    0.196805
    38  C    0.065296
    39  C   -0.231438
    40  C    0.156835
    41  C   -0.020665
    42  C    0.104530
    43  C   -0.086186
    44  H    0.012718
    45  H    0.022073
    46  H    0.021248
    47  H    0.098610
    48  H    0.155631
    49  H    0.027370
    50  H   -0.025403
    51  H    0.032233
    52  H    0.029627
    53  H    0.046016
    54  H    0.041372
    55  H   -0.000200
    56  H    0.001094
    57  H    0.036666
    58  H    0.086218
    59  H    0.049387
    60  H    0.124928
    61  H    0.019762
    62  H   -0.000074
    63  H    0.049689
    64  H    0.027353
    65  H    0.029353
    66  H    0.039601
    67  H    0.012871
    68  H    0.040791
    69  H   -0.074147
    70  H    0.024988
    71  H    0.039168
    72  H    0.185517
    73  H    0.023381
    74  H    0.054845
    75  H    0.029437
    76  H    0.032705
    77  H    0.179110
    78  H    0.006008
    79  H    0.026577
 Sum of Mulliken charges =  -0.00000

 Dipole moment (field-independent basis, Debye):
    X=              0.0583    Y=              2.2804    Z=              3.7973  Tot=              4.4298
 Quadrupole moment (field-independent basis, Debye-Ang):
   XX=           -213.0964   YY=           -241.1711   ZZ=           -265.5381
   XY=            -10.0847   XZ=             36.0917   YZ=              5.5729

 Normal termination of Gaussian 16 at Fri Sep 27 12:46:26 2019.
