 Gaussian 16, Revision A.03,
 Gaussian 16:  ES64L-G16RevA.03 25-Dec-2016

 --------------------------
 # td=(NStates=1) B3LYP/SVP
 --------------------------

 --
 TD
 --
 Symbolic Z-matrix:
 Charge =  0 Multiplicity = 1

                         Standard orientation:
 ---------------------------------------------------------------------
 Center     Atomic      Atomic             Coordinates (Angstroms)
 Number     Number       Type             X           Y           Z
 ---------------------------------------------------------------------
      1          8           0        5.418234   -0.151494   -3.313631
      2          8           0       -2.898804   -2.847030    3.318527
      3          8           0       -3.419401   -0.711571    2.853505
      4          8           0       -1.718208    7.189876    1.510698
      5          8           0       -0.699474    7.085091   -0.451241
      6          8           0       -1.784453   -3.949345    0.024034
      7          7           0        2.465092    0.925516    0.502258
      8          7           0        4.414817   -0.663529   -1.198311
      9          7           0       -1.866054    0.586958   -0.383943
     10          7           0       -2.680393   -1.927885   -0.455427
     11          6           0        4.789856   -1.234484    0.000423
     12          6           0        4.421013   -0.227708    1.246912
     13          6           0        3.018115   -0.032529    1.284177
     14          6           0        1.971387   -0.556608    2.095496
     15          6           0        0.724717    0.011203    1.762039
     16          6           0        1.087684    1.050451    0.734071
     17          6           0        6.357910   -1.409611   -0.127771
     18          6           0       -0.531185   -0.132896    2.506719
     19          6           0        6.741671   -0.906061   -1.387568
     20          6           0        0.207083    1.965776    0.018648
     21          6           0       -1.199862    1.821940   -0.314953
     22          6           0        5.464604   -0.555983   -2.185750
     23          6           0       -2.008798    2.835275   -0.917026
     24          6           0        2.166883   -1.627114    3.156283
     25          6           0        7.129775   -1.921652    0.971035
     26          6           0       -3.170212    2.320894   -1.327259
     27          6           0       -1.140123   -1.478554    2.546565
     28          6           0       -3.098423    0.834068   -1.005359
     29          6           0       -1.443948    4.313922   -0.938833
     30          6           0        8.048300   -0.841087   -2.022122
     31          6           0       -1.692669    5.062229    0.365244
     32          6           0       -4.348271    2.986943   -2.036107
     33          6           0       -4.043865   -0.047057   -1.321489
     34          6           0       -2.598732   -1.590478    2.905686
     35          6           0       -3.755775   -1.500036   -1.014475
     36          6           0        9.290284   -0.805122   -1.327657
     37          6           0       -1.277629    6.478778    0.336262
     38          6           0       -4.636475   -2.673915   -1.441009
     39          6           0       -3.876756   -3.764060   -1.064139
     40          6           0       -2.627512   -3.313634   -0.493550
     41          6           0       -6.013391   -2.532588   -1.930173
     42          6           0       -4.305076   -5.212858   -1.099534
     43          6           0       -6.955948   -3.437959   -2.318938
     44          1           0        4.228343   -2.243833   -0.020306
     45          1           0        4.944316    0.652685    1.335568
     46          1           0        4.539841   -0.656745    2.162098
     47          1           0        2.796681    1.632114   -0.129745
     48          1           0        3.613189   -0.908309   -1.758520
     49          1           0       -0.439023    0.059868    3.491365
     50          1           0       -1.194524    0.677703    2.278283
     51          1           0        0.455159    2.908876   -0.079174
     52          1           0        3.218582   -1.595785    3.736393
     53          1           0        1.181961   -1.513416    3.960768
     54          1           0        2.118610   -2.686969    2.647047
     55          1           0        6.724914   -2.699337    1.686500
     56          1           0        7.483648   -1.193752    1.664788
     57          1           0        7.987853   -2.281094    0.620956
     58          1           0       -0.945868   -1.944212    1.620488
     59          1           0       -0.538005   -2.051052    3.227317
     60          1           0       -1.611192   -0.357374   -0.321763
     61          1           0       -1.848824    4.987114   -1.956307
     62          1           0       -0.411740    4.460610   -1.127319
     63          1           0        8.031668   -0.625440   -3.024920
     64          1           0       -1.267703    4.579702    1.120891
     65          1           0       -2.810099    5.090815    0.641877
     66          1           0       -3.780577    3.877192   -2.456341
     67          1           0       -5.181986    3.040222   -1.436372
     68          1           0       -4.501475    2.480144   -3.120523
     69          1           0       -4.924519    0.082136   -1.896003
     70          1           0        9.449458   -0.978949   -0.178859
     71          1           0       10.036789   -0.482499   -2.023516
     72          1           0       -3.852911   -3.057014    3.478179
     73          1           0       -6.224498   -1.350066   -2.191968
     74          1           0       -5.160403   -5.497285   -0.546871
     75          1           0       -4.176153   -5.671492   -2.119896
     76          1           0       -3.660881   -5.811881   -0.574728
     77          1           0       -1.209563    8.122256    1.376774
     78          1           0       -7.999352   -3.120417   -2.516859
     79          1           0       -6.756891   -4.573082   -2.291540
 ---------------------------------------------------------------------

 SCF Done:  E(RB3LYP) =  -1947.82374969     A.U. after   16 cycles

 Excitation energies and oscillator strengths:

 Excited State   1:      Singlet-A      1.8362 eV  675.21 nm  f=0.3796  <S**2>=0.000
     155 ->156         0.70517
     155 <-156        -0.10546
 This state for optimization and/or second-order correction.
 Total Energy, E(TD-HF/TD-DFT) =  -1947.75626953
 Copying the excited state density for this state as the 1-particle RhoCI density.

 The electronic state is 1-A.
 Alpha  occ. eigenvalues --  -19.16330 -19.16209 -19.14231 -19.11867 -19.11218
 Alpha  occ. eigenvalues --  -19.10787 -14.38254 -14.35551 -14.34894 -14.28720
 Alpha  occ. eigenvalues --  -10.31984 -10.30401 -10.29373 -10.26388 -10.25773
 Alpha  occ. eigenvalues --  -10.24277 -10.23877 -10.23785 -10.23033 -10.22786
 Alpha  occ. eigenvalues --  -10.22685 -10.22309 -10.22287 -10.22094 -10.21148
 Alpha  occ. eigenvalues --  -10.21068 -10.21015 -10.20983 -10.20910 -10.20850
 Alpha  occ. eigenvalues --  -10.20813 -10.20718 -10.20550 -10.20494 -10.19987
 Alpha  occ. eigenvalues --  -10.19780 -10.19513 -10.19187 -10.18914 -10.18775
 Alpha  occ. eigenvalues --  -10.17837 -10.17230 -10.16788  -1.10577  -1.07166
 Alpha  occ. eigenvalues --   -1.04617  -1.04104  -0.98621  -0.98514  -0.98016
 Alpha  occ. eigenvalues --   -0.96800  -0.94876  -0.93556  -0.82837  -0.82001
 Alpha  occ. eigenvalues --   -0.81777  -0.81136  -0.79950  -0.79631  -0.78707
 Alpha  occ. eigenvalues --   -0.76961  -0.76432  -0.75719  -0.74490  -0.71931
 Alpha  occ. eigenvalues --   -0.71437  -0.69784  -0.69749  -0.68480  -0.67687
 Alpha  occ. eigenvalues --   -0.67270  -0.66171  -0.64677  -0.61074  -0.60801
 Alpha  occ. eigenvalues --   -0.59450  -0.58936  -0.57615  -0.57575  -0.57039
 Alpha  occ. eigenvalues --   -0.56019  -0.55287  -0.55119  -0.53924  -0.53448
 Alpha  occ. eigenvalues --   -0.52474  -0.51650  -0.50835  -0.50433  -0.49747
 Alpha  occ. eigenvalues --   -0.49461  -0.48811  -0.48233  -0.48099  -0.47725
 Alpha  occ. eigenvalues --   -0.47233  -0.46535  -0.46330  -0.46067  -0.45653
 Alpha  occ. eigenvalues --   -0.45387  -0.45097  -0.44824  -0.44296  -0.44196
 Alpha  occ. eigenvalues --   -0.43501  -0.43219  -0.43100  -0.42589  -0.42425
 Alpha  occ. eigenvalues --   -0.42209  -0.42203  -0.41975  -0.41599  -0.41289
 Alpha  occ. eigenvalues --   -0.41091  -0.40668  -0.40359  -0.40173  -0.39639
 Alpha  occ. eigenvalues --   -0.39368  -0.39143  -0.39045  -0.38937  -0.38355
 Alpha  occ. eigenvalues --   -0.37962  -0.37848  -0.37489  -0.36924  -0.36734
 Alpha  occ. eigenvalues --   -0.35999  -0.35573  -0.35190  -0.34725  -0.34610
 Alpha  occ. eigenvalues --   -0.34060  -0.33555  -0.32014  -0.31715  -0.31434
 Alpha  occ. eigenvalues --   -0.30921  -0.30609  -0.29221  -0.28457  -0.27731
 Alpha  occ. eigenvalues --   -0.27143  -0.26807  -0.26466  -0.26370  -0.24668
 Alpha  occ. eigenvalues --   -0.24280  -0.23774  -0.23168  -0.22569  -0.17905
 Alpha virt. eigenvalues --   -0.10638  -0.06914  -0.06377  -0.01073  -0.00279
 Alpha virt. eigenvalues --    0.00428   0.01852   0.02189   0.02942   0.03392
 Alpha virt. eigenvalues --    0.04108   0.04459   0.04949   0.05050   0.05220

 Mulliken charges:
               1
     1  O   -0.188552
     2  O   -0.212754
     3  O   -0.213576
     4  O   -0.313732
     5  O   -0.151347
     6  O   -0.135858
     7  N   -0.034259
     8  N   -0.200913
     9  N   -0.066091
    10  N   -0.236510
    11  C    0.057460
    12  C    0.335170
    13  C   -0.112274
    14  C   -0.099294
    15  C   -0.088398
    16  C    0.004351
    17  C   -0.152675
    18  C    0.154189
    19  C   -0.061940
    20  C    0.032396
    21  C    0.037475
    22  C    0.139881
    23  C   -0.017493
    24  C   -0.054417
    25  C    0.141619
    26  C   -0.174743
    27  C    0.040976
    28  C    0.181588
    29  C   -0.003697
    30  C   -0.002416
    31  C    0.084572
    32  C    0.114721
    33  C   -0.105495
    34  C    0.136831
    35  C   -0.002335
    36  C   -0.043309
    37  C    0.122742
    38  C    0.041319
    39  C   -0.234666
    40  C    0.126597
    41  C   -0.053428
    42  C    0.158092
    43  C   -0.056098
    44  H    0.035791
    45  H   -0.026974
    46  H   -0.060598
    47  H    0.113268
    48  H    0.124352
    49  H   -0.039695
    50  H   -0.010304
    51  H   -0.081932
    52  H    0.038912
    53  H    0.055155
    54  H    0.056165
    55  H    0.023743
    56  H    0.015922
    57  H   -0.015184
    58  H    0.032364
    59  H   -0.006760
    60  H    0.114050
    61  H    0.040688
    62  H    0.013051
    63  H   -0.017283
    64  H   -0.000634
    65  H    0.054463
    66  H    0.020750
    67  H    0.036716
    68  H    0.036292
    69  H   -0.044683
    70  H    0.049832
    71  H    0.028622
    72  H    0.191257
    73  H    0.029836
    74  H    0.011778
    75  H    0.029062
    76  H   -0.037250
    77  H    0.211184
    78  H    0.038274
    79  H    0.046060
 Sum of Mulliken charges =  -0.00000

 Dipole moment (field-independent basis, Debye):
    X=              1.1525    Y=              0.0957    Z=              1.9559  Tot=              2.2722
 Quadrupole moment (field-independent basis, Debye-Ang):
   XX=           -218.6138   YY=           -249.0478   ZZ=           -260.6304
   XY=              2.2651   XZ=             31.3988   YZ=             -0.9420

 Normal termination of Gaussian 16 at Sat Sep 28 16:49:02 2019.
