 Gaussian 16, Revision A.03,
 Gaussian 16:  ES64L-G16RevA.03 25-Dec-2016

 --------------------------
 # td=(NStates=1) B3LYP/SVP
 --------------------------

 --
 TD
 --
 Symbolic Z-matrix:
 Charge =  0 Multiplicity = 1

                         Standard orientation:
 ---------------------------------------------------------------------
 Center     Atomic      Atomic             Coordinates (Angstroms)
 Number     Number       Type             X           Y           Z
 ---------------------------------------------------------------------
      1          8           0       -3.259286   -1.054625   -2.994328
      2          8           0        2.998982    2.831013    3.334836
      3          8           0        3.483670    0.916419    4.725206
      4          8           0        7.816745   -1.480463   -0.720006
      5          8           0        6.628026   -2.948868   -2.056095
      6          8           0       -2.671637    1.385492    1.492258
      7          7           0       -0.252287   -2.345596    0.502242
      8          7           0       -2.709738   -1.112062   -0.725698
      9          7           0        1.194021    0.177800   -0.846173
     10          7           0       -0.951076    1.416896   -0.114425
     11          6           0       -3.345830   -1.443765    0.534365
     12          6           0       -2.655727   -2.610975    1.379884
     13          6           0       -1.189735   -2.261678    1.493078
     14          6           0       -0.542619   -1.595729    2.595053
     15          6           0        0.896653   -1.455603    2.336968
     16          6           0        0.993986   -2.048002    0.968003
     17          6           0       -4.775648   -1.949160    0.044131
     18          6           0        1.875878   -0.754922    3.108523
     19          6           0       -4.754343   -1.954875   -1.326955
     20          6           0        2.074342   -1.826839    0.028575
     21          6           0        2.141998   -0.712871   -0.807990
     22          6           0       -3.520059   -1.338115   -1.880353
     23          6           0        3.146550   -0.356446   -1.893065
     24          6           0       -1.306575   -1.044786    3.791740
     25          6           0       -5.914673   -2.224333    1.006797
     26          6           0        2.653902    0.827828   -2.506238
     27          6           0        1.908814    0.708192    2.847542
     28          6           0        1.382617    1.192504   -1.682522
     29          6           0        4.309533   -1.089067   -2.191813
     30          6           0       -5.792055   -2.205458   -2.207437
     31          6           0        5.535255   -0.905985   -1.328767
     32          6           0        3.316213    1.612686   -3.602592
     33          6           0        0.594898    2.308196   -1.881009
     34          6           0        2.858789    1.539013    3.768689
     35          6           0       -0.617811    2.435294   -0.997932
     36          6           0       -6.938605   -2.990160   -1.854633
     37          6           0        6.657812   -1.884751   -1.426037
     38          6           0       -1.520860    3.590238   -0.817309
     39          6           0       -2.272735    3.374894    0.204670
     40          6           0       -1.957153    1.970776    0.678236
     41          6           0       -1.329311    4.843680   -1.625272
     42          6           0       -3.339444    4.186261    0.844079
     43          6           0       -2.227139    5.933874   -1.696147
     44          1           0       -3.222881   -0.592222    1.102574
     45          1           0       -2.798729   -3.617002    0.900407
     46          1           0       -3.127679   -2.761876    2.444575
     47          1           0       -0.497420   -2.851906   -0.301266
     48          1           0       -1.964791   -0.367229   -0.936288
     49          1           0        1.971144   -0.992761    4.254898
     50          1           0        2.785915   -1.049592    2.761950
     51          1           0        2.552294   -2.897848   -0.179374
     52          1           0       -1.966076   -2.004470    4.173693
     53          1           0       -0.637437   -0.756362    4.496303
     54          1           0       -2.145380   -0.265249    3.338971
     55          1           0       -5.687685   -1.767482    1.929463
     56          1           0       -5.766866   -3.286028    1.359890
     57          1           0       -6.895399   -2.026103    0.591438
     58          1           0        1.972801    0.710537    1.672013
     59          1           0        0.932874    1.163650    3.045665
     60          1           0        0.438564    0.295012   -0.141685
     61          1           0        4.591661   -1.043720   -3.371603
     62          1           0        4.048704   -2.281122   -2.367341
     63          1           0       -5.637792   -1.947756   -3.325010
     64          1           0        5.283993   -0.860484   -0.346793
     65          1           0        5.806849    0.301072   -1.510383
     66          1           0        4.136493    1.201516   -4.028722
     67          1           0        3.687430    2.522472   -3.047817
     68          1           0        2.447102    2.140513   -4.317966
     69          1           0        0.953155    3.284339   -2.365627
     70          1           0       -7.364109   -3.595969   -0.955563
     71          1           0       -7.822260   -3.151585   -2.587347
     72          1           0        3.475830    3.071303    4.060857
     73          1           0       -0.633434    4.706288   -2.259350
     74          1           0       -4.192669    4.208982    0.201021
     75          1           0       -3.856939    3.646753    1.832628
     76          1           0       -3.058997    5.128815    1.199761
     77          1           0        8.308487   -2.490859   -1.009206
     78          1           0       -2.000707    6.581451   -2.580299
     79          1           0       -3.135997    6.274410   -1.126624
 ---------------------------------------------------------------------

 SCF Done:  E(RB3LYP) =  -1947.75057077     A.U. after   17 cycles

 Excitation energies and oscillator strengths:

 Excited State   1:      Singlet-A      0.9589 eV 1292.93 nm  f=0.0006  <S**2>=0.000
     155 ->156         0.70313
 This state for optimization and/or second-order correction.
 Total Energy, E(TD-HF/TD-DFT) =  -1947.71533036
 Copying the excited state density for this state as the 1-particle RhoCI density.

 The electronic state is 1-A.
 Alpha  occ. eigenvalues --  -19.20547 -19.19906 -19.15277 -19.13976 -19.12859
 Alpha  occ. eigenvalues --  -19.09274 -14.38163 -14.37020 -14.32107 -14.32029
 Alpha  occ. eigenvalues --  -10.34242 -10.34020 -10.28734 -10.27496 -10.26914
 Alpha  occ. eigenvalues --  -10.26350 -10.25758 -10.23871 -10.23256 -10.23058
 Alpha  occ. eigenvalues --  -10.22823 -10.22637 -10.22588 -10.22363 -10.22360
 Alpha  occ. eigenvalues --  -10.21959 -10.21556 -10.21053 -10.20982 -10.20912
 Alpha  occ. eigenvalues --  -10.20749 -10.20562 -10.20549 -10.20038 -10.20011
 Alpha  occ. eigenvalues --  -10.19970 -10.19916 -10.19278 -10.18596 -10.17998
 Alpha  occ. eigenvalues --  -10.17721 -10.17557 -10.17058  -1.11674  -1.08323
 Alpha  occ. eigenvalues --   -1.03273  -1.02911  -1.02319  -0.99470  -0.98788
 Alpha  occ. eigenvalues --   -0.96909  -0.93890  -0.90526  -0.84353  -0.82676
 Alpha  occ. eigenvalues --   -0.81950  -0.81057  -0.80073  -0.79066  -0.77838
 Alpha  occ. eigenvalues --   -0.76539  -0.75456  -0.74944  -0.73709  -0.72831
 Alpha  occ. eigenvalues --   -0.71299  -0.69836  -0.69200  -0.68787  -0.67881
 Alpha  occ. eigenvalues --   -0.66621  -0.65437  -0.63407  -0.61440  -0.60224
 Alpha  occ. eigenvalues --   -0.59596  -0.59336  -0.58665  -0.57379  -0.56310
 Alpha  occ. eigenvalues --   -0.56149  -0.55575  -0.55355  -0.53581  -0.52476
 Alpha  occ. eigenvalues --   -0.52225  -0.50961  -0.50922  -0.50376  -0.49633
 Alpha  occ. eigenvalues --   -0.49508  -0.49108  -0.48657  -0.48451  -0.47991
 Alpha  occ. eigenvalues --   -0.47664  -0.46809  -0.46469  -0.45943  -0.45762
 Alpha  occ. eigenvalues --   -0.45509  -0.45229  -0.44890  -0.44715  -0.44088
 Alpha  occ. eigenvalues --   -0.43967  -0.43022  -0.42752  -0.42301  -0.42243
 Alpha  occ. eigenvalues --   -0.42190  -0.41880  -0.41805  -0.41508  -0.41240
 Alpha  occ. eigenvalues --   -0.41120  -0.41008  -0.40816  -0.40468  -0.39931
 Alpha  occ. eigenvalues --   -0.39538  -0.39259  -0.38772  -0.38503  -0.38120
 Alpha  occ. eigenvalues --   -0.37766  -0.37641  -0.37447  -0.36872  -0.36307
 Alpha  occ. eigenvalues --   -0.35994  -0.35138  -0.34841  -0.34626  -0.34256
 Alpha  occ. eigenvalues --   -0.33166  -0.32662  -0.32513  -0.32176  -0.31798
 Alpha  occ. eigenvalues --   -0.31092  -0.30418  -0.30385  -0.30064  -0.28662
 Alpha  occ. eigenvalues --   -0.28302  -0.26834  -0.26473  -0.24859  -0.24518
 Alpha  occ. eigenvalues --   -0.23858  -0.22321  -0.22083  -0.21127  -0.18543
 Alpha virt. eigenvalues --   -0.12514  -0.07713  -0.04932  -0.03407  -0.03085
 Alpha virt. eigenvalues --   -0.02903   0.00517   0.01227   0.02088   0.02346
 Alpha virt. eigenvalues --    0.02403   0.03918   0.04389   0.04956   0.05265

 Mulliken charges:
               1
     1  O   -0.185426
     2  O   -0.113106
     3  O   -0.294978
     4  O   -0.296044
     5  O   -0.248899
     6  O   -0.208424
     7  N   -0.009132
     8  N   -0.300886
     9  N    0.020350
    10  N   -0.345666
    11  C    0.165350
    12  C    0.149131
    13  C   -0.104726
    14  C   -0.169548
    15  C   -0.110124
    16  C   -0.072807
    17  C   -0.174994
    18  C    0.158552
    19  C   -0.032672
    20  C   -0.144949
    21  C    0.108665
    22  C    0.135450
    23  C   -0.022115
    24  C    0.054925
    25  C    0.156963
    26  C   -0.135521
    27  C   -0.053815
    28  C    0.105728
    29  C   -0.081237
    30  C   -0.040814
    31  C    0.056486
    32  C    0.111886
    33  C   -0.113355
    34  C    0.196622
    35  C    0.054665
    36  C   -0.127836
    37  C    0.207180
    38  C    0.036548
    39  C   -0.191355
    40  C    0.192136
    41  C    0.096645
    42  C    0.070313
    43  C   -0.046638
    44  H   -0.005428
    45  H   -0.013878
    46  H    0.014373
    47  H    0.098072
    48  H    0.156994
    49  H    0.034665
    50  H   -0.048442
    51  H    0.055213
    52  H    0.018050
    53  H   -0.011695
    54  H    0.073734
    55  H   -0.008302
    56  H    0.020212
    57  H    0.042802
    58  H    0.040035
    59  H    0.032990
    60  H    0.194731
    61  H    0.035455
    62  H    0.049348
    63  H    0.044368
    64  H    0.013569
    65  H    0.060115
    66  H   -0.001861
    67  H    0.033514
    68  H    0.056812
    69  H    0.036040
    70  H    0.040945
    71  H    0.019752
    72  H    0.132071
    73  H   -0.092999
    74  H    0.030741
    75  H    0.042017
    76  H    0.022591
    77  H    0.242602
    78  H    0.034371
    79  H    0.053895
 Sum of Mulliken charges =  -0.00000

 Dipole moment (field-independent basis, Debye):
    X=              2.0573    Y=              4.2244    Z=             -1.0553  Tot=              4.8158
 Quadrupole moment (field-independent basis, Debye-Ang):
   XX=           -245.4663   YY=           -231.0440   ZZ=           -271.4949
   XY=              5.0439   XZ=            -23.7940   YZ=             -8.3844

 Normal termination of Gaussian 16 at Fri Jul 26 05:06:48 2019.
