 Gaussian 16, Revision A.03,
 Gaussian 16:  ES64L-G16RevA.03 25-Dec-2016

 --------------------------
 # td=(NStates=1) B3LYP/SVP
 --------------------------

 --
 TD
 --
 Symbolic Z-matrix:
 Charge =  0 Multiplicity = 1

                         Standard orientation:
 ---------------------------------------------------------------------
 Center     Atomic      Atomic             Coordinates (Angstroms)
 Number     Number       Type             X           Y           Z
 ---------------------------------------------------------------------
      1          8           0        5.386959    0.081337   -3.275895
      2          8           0       -3.211769   -2.781467    3.131710
      3          8           0       -3.487737   -0.583961    2.915177
      4          8           0       -1.752506    7.162202    1.590767
      5          8           0       -0.640222    7.075924   -0.443652
      6          8           0       -1.907455   -4.002584    0.227021
      7          7           0        2.310409    0.856944    0.663411
      8          7           0        4.391189   -0.479601   -1.203329
      9          7           0       -1.843299    0.730698   -0.406853
     10          7           0       -2.597174   -1.864192   -0.518170
     11          6           0        4.784649   -1.073216    0.063235
     12          6           0        4.377784   -0.490288    1.409178
     13          6           0        2.866664   -0.188959    1.447752
     14          6           0        1.884098   -0.774288    2.226899
     15          6           0        0.629563   -0.176562    1.908283
     16          6           0        0.974447    0.874043    0.881330
     17          6           0        6.285732   -1.328552   -0.078680
     18          6           0       -0.613717   -0.334241    2.669093
     19          6           0        6.587955   -0.890715   -1.344290
     20          6           0        0.182919    1.895873    0.261625
     21          6           0       -1.045777    1.783362   -0.348032
     22          6           0        5.449996   -0.355164   -2.126964
     23          6           0       -1.794236    2.928553   -0.937693
     24          6           0        2.079281   -1.844854    3.370423
     25          6           0        7.106112   -2.068475    0.921554
     26          6           0       -2.880825    2.378552   -1.442399
     27          6           0       -1.305246   -1.679383    2.549431
     28          6           0       -2.964107    0.971905   -1.081393
     29          6           0       -1.264862    4.349233   -0.813106
     30          6           0        7.852698   -0.776496   -2.125182
     31          6           0       -1.543036    5.016915    0.393384
     32          6           0       -4.098498    3.069721   -2.100585
     33          6           0       -3.790521   -0.035147   -1.500177
     34          6           0       -2.720666   -1.589289    2.878327
     35          6           0       -3.579646   -1.451886   -1.143387
     36          6           0        9.102348   -0.883309   -1.732445
     37          6           0       -1.303332    6.569299    0.428277
     38          6           0       -4.631030   -2.623337   -1.515687
     39          6           0       -3.924054   -3.710307   -1.061217
     40          6           0       -2.692594   -3.266516   -0.428271
     41          6           0       -5.834320   -2.440466   -2.182094
     42          6           0       -4.282999   -5.247176   -1.190949
     43          6           0       -6.593507   -3.320598   -2.777470
     44          1           0        4.378737   -2.163621    0.078128
     45          1           0        4.838173    0.563079    1.575376
     46          1           0        4.725084   -1.217241    2.207746
     47          1           0        2.787279    1.324156    0.043108
     48          1           0        3.397317   -0.169350   -1.498856
     49          1           0       -0.376358   -0.259102    3.826079
     50          1           0       -1.178416    0.581028    2.171786
     51          1           0        0.770914    2.854639    0.171063
     52          1           0        3.007958   -1.921722    3.760438
     53          1           0        1.495731   -1.524231    4.167349
     54          1           0        1.707390   -2.874579    2.994276
     55          1           0        6.631081   -2.853997    1.493775
     56          1           0        7.521185   -1.458919    1.671462
     57          1           0        7.918479   -2.610202    0.428678
     58          1           0       -1.089262   -2.212887    1.579859
     59          1           0       -1.006958   -2.328627    3.354743
     60          1           0       -1.716709   -0.329013   -0.439727
     61          1           0       -1.630870    5.091471   -1.645927
     62          1           0       -0.214958    4.245250   -0.814057
     63          1           0        7.886156   -0.611617   -3.188218
     64          1           0       -1.118533    4.514048    1.250860
     65          1           0       -2.634606    4.952579    0.736097
     66          1           0       -3.801741    4.057524   -2.419900
     67          1           0       -5.004322    2.900368   -1.452671
     68          1           0       -4.384282    2.498234   -2.917575
     69          1           0       -4.707859    0.325298   -2.163506
     70          1           0        9.516077   -1.210532   -0.677350
     71          1           0        9.953026   -0.582330   -2.403685
     72          1           0       -4.177965   -2.544305    3.111657
     73          1           0       -5.992558   -1.262252   -2.175227
     74          1           0       -5.284229   -5.381458   -0.776851
     75          1           0       -4.386387   -5.312192   -2.369210
     76          1           0       -3.495410   -5.702137   -0.772588
     77          1           0       -1.187539    8.023179    1.468613
     78          1           0       -7.498216   -2.971174   -3.179471
     79          1           0       -6.381071   -4.477311   -2.975308
 ---------------------------------------------------------------------

 SCF Done:  E(RB3LYP) =  -1947.88228306     A.U. after   16 cycles

 Excitation energies and oscillator strengths:

 Excited State   1:      Singlet-A      1.9339 eV  641.12 nm  f=0.3381  <S**2>=0.000
     155 ->156         0.70454
 This state for optimization and/or second-order correction.
 Total Energy, E(TD-HF/TD-DFT) =  -1947.81121440
 Copying the excited state density for this state as the 1-particle RhoCI density.

 The electronic state is 1-A.
 Alpha  occ. eigenvalues --  -19.20217 -19.17413 -19.14561 -19.11778 -19.10433
 Alpha  occ. eigenvalues --  -19.10430 -14.38199 -14.36110 -14.35919 -14.30864
 Alpha  occ. eigenvalues --  -10.33419 -10.30197 -10.28691 -10.28026 -10.25577
 Alpha  occ. eigenvalues --  -10.24769 -10.24062 -10.23845 -10.23350 -10.23177
 Alpha  occ. eigenvalues --  -10.22936 -10.22791 -10.21403 -10.21002 -10.20839
 Alpha  occ. eigenvalues --  -10.20792 -10.20738 -10.20692 -10.20658 -10.20620
 Alpha  occ. eigenvalues --  -10.20590 -10.20276 -10.20246 -10.20204 -10.19892
 Alpha  occ. eigenvalues --  -10.19615 -10.19564 -10.19553 -10.19382 -10.19211
 Alpha  occ. eigenvalues --  -10.19180 -10.19102 -10.18400  -1.10016  -1.09546
 Alpha  occ. eigenvalues --   -1.02060  -1.01670  -1.01468  -1.00687  -0.98817
 Alpha  occ. eigenvalues --   -0.96335  -0.95079  -0.93507  -0.83986  -0.82117
 Alpha  occ. eigenvalues --   -0.81862  -0.81557  -0.81378  -0.79640  -0.79156
 Alpha  occ. eigenvalues --   -0.77645  -0.76954  -0.76215  -0.74955  -0.72130
 Alpha  occ. eigenvalues --   -0.72050  -0.71333  -0.69965  -0.69723  -0.68394
 Alpha  occ. eigenvalues --   -0.67373  -0.66600  -0.64695  -0.61627  -0.60271
 Alpha  occ. eigenvalues --   -0.59592  -0.59131  -0.58842  -0.58124  -0.56938
 Alpha  occ. eigenvalues --   -0.56592  -0.55915  -0.54904  -0.53367  -0.53186
 Alpha  occ. eigenvalues --   -0.52408  -0.51325  -0.50904  -0.50717  -0.50189
 Alpha  occ. eigenvalues --   -0.49530  -0.49074  -0.48269  -0.48081  -0.47361
 Alpha  occ. eigenvalues --   -0.47065  -0.46865  -0.46612  -0.46413  -0.46050
 Alpha  occ. eigenvalues --   -0.45774  -0.45390  -0.45013  -0.44705  -0.44259
 Alpha  occ. eigenvalues --   -0.44137  -0.43691  -0.43548  -0.43312  -0.42914
 Alpha  occ. eigenvalues --   -0.42391  -0.42204  -0.41837  -0.41601  -0.41411
 Alpha  occ. eigenvalues --   -0.41381  -0.41026  -0.40657  -0.40564  -0.40073
 Alpha  occ. eigenvalues --   -0.39784  -0.39631  -0.39076  -0.39036  -0.38713
 Alpha  occ. eigenvalues --   -0.38412  -0.38215  -0.37968  -0.36504  -0.36342
 Alpha  occ. eigenvalues --   -0.35624  -0.35325  -0.34989  -0.34775  -0.34472
 Alpha  occ. eigenvalues --   -0.34398  -0.33997  -0.33615  -0.32791  -0.31843
 Alpha  occ. eigenvalues --   -0.30999  -0.29967  -0.29615  -0.29277  -0.28726
 Alpha  occ. eigenvalues --   -0.26935  -0.26252  -0.26135  -0.25986  -0.25552
 Alpha  occ. eigenvalues --   -0.25148  -0.24218  -0.23898  -0.23253  -0.18600
 Alpha virt. eigenvalues --   -0.10843  -0.06615  -0.05873  -0.01308  -0.00742
 Alpha virt. eigenvalues --    0.01028   0.01355   0.01833   0.02940   0.03142
 Alpha virt. eigenvalues --    0.03877   0.04244   0.04484   0.04950   0.05506

 Mulliken charges:
               1
     1  O   -0.227254
     2  O   -0.151503
     3  O   -0.300099
     4  O   -0.217420
     5  O   -0.217792
     6  O   -0.235851
     7  N   -0.008117
     8  N   -0.261510
     9  N   -0.002289
    10  N   -0.198928
    11  C    0.084264
    12  C    0.167177
    13  C   -0.103710
    14  C   -0.140636
    15  C   -0.087545
    16  C    0.032501
    17  C   -0.141230
    18  C    0.018928
    19  C   -0.062689
    20  C   -0.168695
    21  C    0.081758
    22  C    0.186252
    23  C   -0.069988
    24  C    0.169282
    25  C    0.124134
    26  C   -0.182969
    27  C    0.037176
    28  C    0.032619
    29  C    0.191641
    30  C    0.033322
    31  C   -0.043275
    32  C    0.160964
    33  C   -0.128831
    34  C    0.111393
    35  C    0.027042
    36  C   -0.111248
    37  C    0.161502
    38  C    0.037666
    39  C   -0.248390
    40  C    0.174338
    41  C   -0.028606
    42  C    0.145324
    43  C   -0.043123
    44  H    0.034851
    45  H    0.014827
    46  H    0.012478
    47  H    0.047111
    48  H    0.149159
    49  H    0.025621
    50  H    0.051582
    51  H    0.005968
    52  H   -0.030601
    53  H   -0.012950
    54  H    0.048887
    55  H    0.011218
    56  H    0.017474
    57  H    0.031476
    58  H    0.094299
    59  H    0.009207
    60  H    0.166741
    61  H    0.033165
    62  H   -0.017343
    63  H    0.009283
    64  H    0.025531
    65  H    0.027277
    66  H    0.014232
    67  H    0.032578
    68  H   -0.010118
    69  H    0.013856
    70  H    0.017861
    71  H    0.030059
    72  H    0.178736
    73  H    0.020665
    74  H    0.032956
    75  H    0.044731
    76  H    0.003219
    77  H    0.203368
    78  H    0.012597
    79  H    0.054415
 Sum of Mulliken charges =  -0.00000

 Dipole moment (field-independent basis, Debye):
    X=              0.1349    Y=              0.7627    Z=              2.4858  Tot=              2.6037
 Quadrupole moment (field-independent basis, Debye-Ang):
   XX=           -226.1332   YY=           -246.7759   ZZ=           -262.1144
   XY=             -5.1280   XZ=             41.5727   YZ=              5.7083

 Normal termination of Gaussian 16 at Sun Sep 22 18:36:34 2019.
