 Gaussian 16, Revision A.03,
 Gaussian 16:  ES64L-G16RevA.03 25-Dec-2016

 --------------------------
 # td=(NStates=1) B3LYP/SVP
 --------------------------

 --
 TD
 --
 Symbolic Z-matrix:
 Charge =  0 Multiplicity = 1

                         Standard orientation:
 ---------------------------------------------------------------------
 Center     Atomic      Atomic             Coordinates (Angstroms)
 Number     Number       Type             X           Y           Z
 ---------------------------------------------------------------------
      1          8           0       -3.320727   -1.263346   -2.965478
      2          8           0        2.995966    2.916924    3.370841
      3          8           0        3.815934    0.970272    4.275826
      4          8           0        7.768899   -1.364390   -0.945399
      5          8           0        6.683299   -2.965689   -2.115747
      6          8           0       -2.558414    1.641526    1.497153
      7          7           0       -0.359457   -2.466430    0.695465
      8          7           0       -2.669400   -1.293514   -0.772970
      9          7           0        1.145730    0.135086   -0.736998
     10          7           0       -1.013918    1.518803   -0.115967
     11          6           0       -3.354850   -1.328295    0.547542
     12          6           0       -2.716463   -2.420862    1.501216
     13          6           0       -1.329774   -2.200659    1.642120
     14          6           0       -0.644397   -1.424288    2.711483
     15          6           0        0.740592   -1.341023    2.336259
     16          6           0        0.930538   -2.009383    1.068614
     17          6           0       -4.768174   -1.823827    0.107942
     18          6           0        1.885334   -0.658597    3.088718
     19          6           0       -4.886690   -1.885304   -1.237334
     20          6           0        2.089339   -1.985394    0.134089
     21          6           0        2.076113   -0.816797   -0.710522
     22          6           0       -3.599843   -1.419517   -1.815969
     23          6           0        3.029927   -0.526003   -1.788675
     24          6           0       -1.307577   -0.838563    3.885696
     25          6           0       -5.717925   -2.138656    1.191520
     26          6           0        2.648889    0.638730   -2.350742
     27          6           0        1.774089    0.932879    2.831440
     28          6           0        1.390735    1.063479   -1.713993
     29          6           0        4.195450   -1.509141   -2.022381
     30          6           0       -5.993972   -2.262780   -2.140206
     31          6           0        5.342702   -1.163577   -1.026373
     32          6           0        3.275798    1.352849   -3.557109
     33          6           0        0.580400    2.160345   -1.811885
     34          6           0        3.002680    1.526116    3.579534
     35          6           0       -0.603485    2.277782   -1.004874
     36          6           0       -7.022841   -3.108840   -1.750308
     37          6           0        6.559992   -1.947560   -1.483898
     38          6           0       -1.339492    3.645731   -1.006699
     39          6           0       -2.244557    3.510352   -0.020313
     40          6           0       -2.017990    2.189817    0.542159
     41          6           0       -1.180849    4.788168   -1.992861
     42          6           0       -3.259747    4.501425    0.530258
     43          6           0       -1.939391    5.812340   -2.023585
     44          1           0       -3.241626   -0.369796    1.274481
     45          1           0       -2.880018   -3.451669    0.992494
     46          1           0       -2.947941   -2.346753    2.513599
     47          1           0       -0.707524   -2.965114   -0.028101
     48          1           0       -2.001937   -0.694037   -0.917387
     49          1           0        1.584951   -0.571052    4.317263
     50          1           0        2.751692   -0.990484    2.817845
     51          1           0        3.163586   -2.521162   -0.021521
     52          1           0       -2.026638   -1.380835    4.374691
     53          1           0       -0.597660   -0.365951    4.518727
     54          1           0       -1.894316    0.120839    3.376912
     55          1           0       -5.583819   -1.569882    2.188607
     56          1           0       -5.297101   -3.236822    1.582912
     57          1           0       -6.756771   -2.187110    0.873926
     58          1           0        2.041479    1.055175    1.749105
     59          1           0        0.875797    1.307626    3.163030
     60          1           0        0.286602    0.169254   -0.154445
     61          1           0        4.853010   -1.287515   -2.962665
     62          1           0        3.992161   -2.472863   -1.853784
     63          1           0       -5.902385   -1.858131   -3.006887
     64          1           0        4.981071   -1.455463   -0.094197
     65          1           0        5.655729   -0.028987   -1.082892
     66          1           0        4.187471    0.828913   -3.983661
     67          1           0        3.587688    2.302080   -3.418963
     68          1           0        2.631416    1.438925   -4.445441
     69          1           0        0.705034    3.048308   -2.657719
     70          1           0       -7.129149   -3.597058   -0.751952
     71          1           0       -7.807147   -3.506741   -2.497692
     72          1           0        3.873848    3.371415    3.839451
     73          1           0       -0.332023    4.604023   -2.588209
     74          1           0       -4.166717    4.559023    0.001260
     75          1           0       -3.651750    3.962751    1.385650
     76          1           0       -2.638204    5.177277    0.928571
     77          1           0        8.528593   -1.911122   -1.095235
     78          1           0       -1.709551    6.551602   -2.676369
     79          1           0       -2.795564    5.985657   -1.530859
 ---------------------------------------------------------------------

 SCF Done:  E(RB3LYP) =  -1947.78620197     A.U. after   17 cycles

 Excitation energies and oscillator strengths:

 Excited State   1:      Singlet-A      1.0986 eV 1128.56 nm  f=0.0013  <S**2>=0.000
     155 ->156         0.70390
 This state for optimization and/or second-order correction.
 Total Energy, E(TD-HF/TD-DFT) =  -1947.74582912
 Copying the excited state density for this state as the 1-particle RhoCI density.

 The electronic state is 1-A.
 Alpha  occ. eigenvalues --  -19.17422 -19.16552 -19.14871 -19.13115 -19.12594
 Alpha  occ. eigenvalues --  -19.09225 -14.37233 -14.36261 -14.32410 -14.30968
 Alpha  occ. eigenvalues --  -10.33657 -10.31771 -10.28310 -10.26974 -10.26351
 Alpha  occ. eigenvalues --  -10.24934 -10.24893 -10.23661 -10.23222 -10.22940
 Alpha  occ. eigenvalues --  -10.22725 -10.22566 -10.22113 -10.22003 -10.21595
 Alpha  occ. eigenvalues --  -10.21388 -10.21124 -10.21101 -10.20896 -10.20686
 Alpha  occ. eigenvalues --  -10.20318 -10.20157 -10.20124 -10.20031 -10.19572
 Alpha  occ. eigenvalues --  -10.19458 -10.19234 -10.18778 -10.18578 -10.18554
 Alpha  occ. eigenvalues --  -10.18142 -10.17779 -10.17482  -1.08600  -1.06768
 Alpha  occ. eigenvalues --   -1.04237  -1.02752  -1.00749  -1.00057  -0.98573
 Alpha  occ. eigenvalues --   -0.96561  -0.95597  -0.92083  -0.84133  -0.82875
 Alpha  occ. eigenvalues --   -0.81868  -0.81311  -0.79825  -0.79715  -0.79295
 Alpha  occ. eigenvalues --   -0.78215  -0.75734  -0.75632  -0.74422  -0.72927
 Alpha  occ. eigenvalues --   -0.71929  -0.70634  -0.70349  -0.68951  -0.67595
 Alpha  occ. eigenvalues --   -0.66111  -0.65582  -0.63348  -0.61925  -0.60392
 Alpha  occ. eigenvalues --   -0.59941  -0.59543  -0.58332  -0.57371  -0.57098
 Alpha  occ. eigenvalues --   -0.56958  -0.55898  -0.55537  -0.54727  -0.52878
 Alpha  occ. eigenvalues --   -0.52553  -0.52264  -0.51231  -0.50450  -0.49591
 Alpha  occ. eigenvalues --   -0.49106  -0.48938  -0.48851  -0.48075  -0.47913
 Alpha  occ. eigenvalues --   -0.47471  -0.47136  -0.46903  -0.46511  -0.46379
 Alpha  occ. eigenvalues --   -0.46189  -0.45780  -0.45020  -0.44785  -0.44365
 Alpha  occ. eigenvalues --   -0.43639  -0.43382  -0.43181  -0.42921  -0.42466
 Alpha  occ. eigenvalues --   -0.42273  -0.42127  -0.41917  -0.41410  -0.40818
 Alpha  occ. eigenvalues --   -0.40412  -0.40011  -0.39946  -0.39716  -0.39627
 Alpha  occ. eigenvalues --   -0.39329  -0.39275  -0.38920  -0.38807  -0.38568
 Alpha  occ. eigenvalues --   -0.38243  -0.37942  -0.37268  -0.37243  -0.36669
 Alpha  occ. eigenvalues --   -0.36374  -0.36271  -0.35440  -0.35341  -0.34981
 Alpha  occ. eigenvalues --   -0.34197  -0.33065  -0.32835  -0.32566  -0.32486
 Alpha  occ. eigenvalues --   -0.31557  -0.30168  -0.29731  -0.29491  -0.29230
 Alpha  occ. eigenvalues --   -0.28113  -0.27607  -0.26940  -0.25538  -0.25416
 Alpha  occ. eigenvalues --   -0.24716  -0.22912  -0.22116  -0.21834  -0.18498
 Alpha virt. eigenvalues --   -0.11994  -0.06988  -0.04657  -0.02286  -0.00710
 Alpha virt. eigenvalues --    0.00532   0.00585   0.01481   0.02374   0.02600
 Alpha virt. eigenvalues --    0.03822   0.04136   0.04548   0.05397   0.05464

 Mulliken charges:
               1
     1  O   -0.199267
     2  O   -0.293906
     3  O   -0.209791
     4  O   -0.253620
     5  O   -0.194445
     6  O   -0.198140
     7  N   -0.036617
     8  N   -0.155078
     9  N   -0.064516
    10  N   -0.166607
    11  C    0.004340
    12  C    0.225929
    13  C   -0.174948
    14  C   -0.124074
    15  C   -0.100056
    16  C    0.034050
    17  C   -0.132615
    18  C    0.129573
    19  C   -0.058415
    20  C   -0.087582
    21  C   -0.008895
    22  C    0.109919
    23  C   -0.047282
    24  C    0.101936
    25  C    0.036044
    26  C   -0.115395
    27  C   -0.002138
    28  C    0.143577
    29  C    0.113220
    30  C    0.105227
    31  C   -0.013968
    32  C    0.123177
    33  C   -0.174860
    34  C    0.159547
    35  C    0.033149
    36  C   -0.071600
    37  C    0.157746
    38  C   -0.041046
    39  C   -0.282080
    40  C    0.137762
    41  C    0.056756
    42  C    0.253036
    43  C    0.096979
    44  H    0.098778
    45  H   -0.004352
    46  H   -0.022604
    47  H    0.072507
    48  H    0.067559
    49  H    0.036721
    50  H   -0.055998
    51  H    0.030547
    52  H   -0.000934
    53  H   -0.021185
    54  H    0.051952
    55  H    0.036191
    56  H    0.046392
    57  H    0.036935
    58  H    0.046766
    59  H    0.034268
    60  H    0.192428
    61  H    0.036293
    62  H   -0.001833
    63  H   -0.070806
    64  H    0.032800
    65  H    0.067644
    66  H    0.012125
    67  H   -0.009174
    68  H    0.027249
    69  H    0.041872
    70  H    0.031727
    71  H    0.038860
    72  H    0.222656
    73  H   -0.044800
    74  H    0.026087
    75  H   -0.016616
    76  H    0.003078
    77  H    0.170527
    78  H   -0.009128
    79  H   -0.019555
 Sum of Mulliken charges =  -0.00000

 Dipole moment (field-independent basis, Debye):
    X=              1.0154    Y=              4.1087    Z=             -0.7274  Tot=              4.2944
 Quadrupole moment (field-independent basis, Debye-Ang):
   XX=           -237.6818   YY=           -235.6008   ZZ=           -266.3609
   XY=              8.7412   XZ=            -20.1853   YZ=            -12.1230

 Normal termination of Gaussian 16 at Tue Jul 30 01:47:49 2019.
