 Gaussian 16, Revision A.03,
 Gaussian 16:  ES64L-G16RevA.03 25-Dec-2016

 --------------------------
 # td=(NStates=1) B3LYP/SVP
 --------------------------

 --
 TD
 --
 Symbolic Z-matrix:
 Charge =  0 Multiplicity = 1

                         Standard orientation:
 ---------------------------------------------------------------------
 Center     Atomic      Atomic             Coordinates (Angstroms)
 Number     Number       Type             X           Y           Z
 ---------------------------------------------------------------------
      1          8           0       -3.375905   -1.403144   -2.806994
      2          8           0        2.960414    3.268301    3.131614
      3          8           0        3.827312    1.492076    4.406083
      4          8           0        7.665227   -1.537801   -0.542211
      5          8           0        6.853569   -2.670109   -2.350219
      6          8           0       -2.487184    1.612458    1.538281
      7          7           0       -0.271008   -2.382654    1.064052
      8          7           0       -2.684285   -1.163234   -0.581447
      9          7           0        1.105200   -0.057486   -0.808027
     10          7           0       -0.967168    1.429012   -0.255619
     11          6           0       -3.373919   -1.273994    0.688845
     12          6           0       -2.730903   -2.197224    1.734727
     13          6           0       -1.263976   -1.882037    1.957132
     14          6           0       -0.554856   -1.137966    2.822838
     15          6           0        0.778539   -1.081846    2.527817
     16          6           0        0.925689   -1.891194    1.336848
     17          6           0       -4.779059   -1.780613    0.389571
     18          6           0        1.991229   -0.338433    3.079780
     19          6           0       -4.942118   -1.996323   -0.982059
     20          6           0        1.998012   -1.920906    0.318839
     21          6           0        2.046351   -1.090641   -0.706968
     22          6           0       -3.526050   -1.503248   -1.610866
     23          6           0        2.988115   -0.839712   -1.766029
     24          6           0       -1.257896   -0.334159    3.874862
     25          6           0       -5.850742   -1.964338    1.383139
     26          6           0        2.610119    0.204763   -2.466000
     27          6           0        2.067694    1.123032    2.604104
     28          6           0        1.402788    0.704593   -1.877275
     29          6           0        4.195052   -1.638324   -2.054655
     30          6           0       -5.934825   -2.384896   -2.007810
     31          6           0        5.338517   -1.147879   -0.991974
     32          6           0        3.084702    0.996838   -3.667922
     33          6           0        0.558749    1.837237   -2.112710
     34          6           0        3.053449    1.920220    3.536917
     35          6           0       -0.543244    2.178607   -1.309364
     36          6           0       -6.945048   -3.213021   -1.638427
     37          6           0        6.665268   -1.903598   -1.338699
     38          6           0       -1.375437    3.442440   -1.358139
     39          6           0       -2.274157    3.356609   -0.231472
     40          6           0       -2.009944    2.085856    0.491196
     41          6           0       -1.193002    4.468994   -2.369732
     42          6           0       -3.444057    4.188706    0.199506
     43          6           0       -2.021856    5.563968   -2.605055
     44          1           0       -3.273376   -0.265068    1.174053
     45          1           0       -2.573628   -3.287254    1.400048
     46          1           0       -3.015182   -2.264670    2.693368
     47          1           0       -0.548980   -2.792489   -0.001010
     48          1           0       -2.112073   -0.250058   -0.637114
     49          1           0        1.786494   -0.368673    4.225759
     50          1           0        2.913069   -0.932728    2.781822
     51          1           0        2.602513   -2.820819    0.338514
     52          1           0       -1.679359   -1.045361    4.567971
     53          1           0       -0.611622    0.378656    4.325039
     54          1           0       -1.933356    0.302632    3.311382
     55          1           0       -5.819944   -1.434859    2.243586
     56          1           0       -5.716919   -2.720652    1.910421
     57          1           0       -6.930895   -1.727902    1.137655
     58          1           0        2.290906    1.161944    1.695326
     59          1           0        1.098407    1.594986    2.783744
     60          1           0        0.282690    0.232542   -0.226723
     61          1           0        4.658485   -1.664667   -3.048800
     62          1           0        4.065923   -2.705686   -1.667067
     63          1           0       -5.545356   -1.958100   -3.111357
     64          1           0        5.135514   -1.258872    0.094562
     65          1           0        5.644567   -0.050067   -1.245191
     66          1           0        4.545502    1.020472   -3.554156
     67          1           0        2.445796    2.383425   -3.570319
     68          1           0        2.574999    0.246698   -4.777387
     69          1           0        0.772442    2.400160   -3.041290
     70          1           0       -6.863949   -3.891795   -0.552189
     71          1           0       -7.745949   -3.540639   -2.241695
     72          1           0        3.849991    3.739986    3.362182
     73          1           0       -0.745731    4.055796   -3.282216
     74          1           0       -4.307962    4.277687   -0.716080
     75          1           0       -3.782072    3.742629    1.232190
     76          1           0       -3.071282    5.211342    0.487165
     77          1           0        8.483217   -2.001078   -0.901393
     78          1           0       -2.100415    6.104761   -3.453431
     79          1           0       -2.698215    5.944913   -1.788295
 ---------------------------------------------------------------------

 SCF Done:  E(RB3LYP) =  -1947.66718446     A.U. after   16 cycles

 Excitation energies and oscillator strengths:

 Excited State   1:      Singlet-A      0.8557 eV 1448.86 nm  f=0.0006  <S**2>=0.000
     155 ->156         0.70208
 This state for optimization and/or second-order correction.
 Total Energy, E(TD-HF/TD-DFT) =  -1947.63573682
 Copying the excited state density for this state as the 1-particle RhoCI density.

 The electronic state is 1-A.
 Alpha  occ. eigenvalues --  -19.21051 -19.17799 -19.13912 -19.13582 -19.13362
 Alpha  occ. eigenvalues --  -19.09034 -14.37290 -14.36749 -14.33411 -14.31072
 Alpha  occ. eigenvalues --  -10.34326 -10.32557 -10.29688 -10.29285 -10.26782
 Alpha  occ. eigenvalues --  -10.26738 -10.25812 -10.25675 -10.24536 -10.23180
 Alpha  occ. eigenvalues --  -10.23149 -10.23121 -10.22737 -10.22714 -10.22269
 Alpha  occ. eigenvalues --  -10.22235 -10.22071 -10.21982 -10.21641 -10.21541
 Alpha  occ. eigenvalues --  -10.20434 -10.20300 -10.20136 -10.19580 -10.19422
 Alpha  occ. eigenvalues --  -10.18950 -10.18906 -10.18763 -10.18640 -10.16423
 Alpha  occ. eigenvalues --  -10.16353 -10.15722 -10.15404  -1.11083  -1.06209
 Alpha  occ. eigenvalues --   -1.02692  -1.01164  -1.01054  -0.99028  -0.98902
 Alpha  occ. eigenvalues --   -0.96066  -0.92570  -0.91907  -0.85123  -0.83228
 Alpha  occ. eigenvalues --   -0.80689  -0.79872  -0.79716  -0.78697  -0.78606
 Alpha  occ. eigenvalues --   -0.77049  -0.75995  -0.75403  -0.74630  -0.72474
 Alpha  occ. eigenvalues --   -0.70391  -0.70138  -0.69380  -0.68515  -0.67035
 Alpha  occ. eigenvalues --   -0.66091  -0.64921  -0.63582  -0.61870  -0.61402
 Alpha  occ. eigenvalues --   -0.59959  -0.58889  -0.58479  -0.58138  -0.56748
 Alpha  occ. eigenvalues --   -0.55363  -0.55094  -0.53879  -0.53125  -0.52518
 Alpha  occ. eigenvalues --   -0.51434  -0.50909  -0.50300  -0.50134  -0.49766
 Alpha  occ. eigenvalues --   -0.49433  -0.49031  -0.48413  -0.48100  -0.47982
 Alpha  occ. eigenvalues --   -0.47186  -0.46844  -0.46386  -0.46192  -0.45939
 Alpha  occ. eigenvalues --   -0.45434  -0.45072  -0.44333  -0.44192  -0.43833
 Alpha  occ. eigenvalues --   -0.43665  -0.43005  -0.42744  -0.42634  -0.42107
 Alpha  occ. eigenvalues --   -0.41761  -0.41275  -0.41051  -0.40709  -0.40482
 Alpha  occ. eigenvalues --   -0.40032  -0.39780  -0.39626  -0.39523  -0.39280
 Alpha  occ. eigenvalues --   -0.39052  -0.38695  -0.38601  -0.38063  -0.37636
 Alpha  occ. eigenvalues --   -0.37509  -0.37276  -0.36485  -0.36392  -0.36195
 Alpha  occ. eigenvalues --   -0.35940  -0.35617  -0.35352  -0.34927  -0.34778
 Alpha  occ. eigenvalues --   -0.33421  -0.32872  -0.32815  -0.32015  -0.31887
 Alpha  occ. eigenvalues --   -0.31736  -0.29730  -0.29270  -0.29180  -0.29124
 Alpha  occ. eigenvalues --   -0.28180  -0.27809  -0.26393  -0.25326  -0.23749
 Alpha  occ. eigenvalues --   -0.23540  -0.22950  -0.22523  -0.21629  -0.18776
 Alpha virt. eigenvalues --   -0.13145  -0.08782  -0.04443  -0.03609  -0.03081
 Alpha virt. eigenvalues --   -0.02464  -0.01071   0.00385   0.00997   0.01867
 Alpha virt. eigenvalues --    0.02458   0.02633   0.03584   0.03886   0.04085

 Mulliken charges:
               1
     1  O   -0.231291
     2  O   -0.267242
     3  O   -0.231386
     4  O   -0.167754
     5  O   -0.299822
     6  O   -0.223463
     7  N   -0.131464
     8  N   -0.219897
     9  N   -0.096106
    10  N   -0.389863
    11  C    0.082738
    12  C    0.276135
    13  C   -0.168932
    14  C   -0.164321
    15  C   -0.105658
    16  C   -0.049457
    17  C   -0.153872
    18  C    0.071666
    19  C   -0.111198
    20  C   -0.155457
    21  C    0.212729
    22  C    0.119025
    23  C   -0.035354
    24  C    0.142211
    25  C    0.257282
    26  C   -0.000127
    27  C    0.118276
    28  C    0.063175
    29  C    0.081198
    30  C   -0.015379
    31  C   -0.076187
    32  C   -0.178212
    33  C   -0.092014
    34  C    0.176884
    35  C    0.133431
    36  C   -0.077586
    37  C    0.161672
    38  C    0.038858
    39  C   -0.195713
    40  C    0.223196
    41  C   -0.016312
    42  C    0.001629
    43  C   -0.012151
    44  H    0.055439
    45  H   -0.011448
    46  H   -0.049383
    47  H    0.172417
    48  H    0.174935
    49  H    0.025647
    50  H    0.008742
    51  H    0.008695
    52  H    0.010093
    53  H   -0.031300
    54  H    0.029946
    55  H   -0.062245
    56  H   -0.070369
    57  H    0.037435
    58  H   -0.051036
    59  H    0.041467
    60  H    0.187307
    61  H    0.045260
    62  H    0.030216
    63  H    0.081026
    64  H    0.066519
    65  H    0.063050
    66  H    0.067229
    67  H    0.085326
    68  H    0.098139
    69  H   -0.013572
    70  H    0.055001
    71  H    0.010528
    72  H    0.206421
    73  H    0.014214
    74  H    0.074484
    75  H    0.052170
    76  H    0.040954
    77  H    0.206019
    78  H    0.009613
    79  H    0.037173
 Sum of Mulliken charges =  -0.00000

 Dipole moment (field-independent basis, Debye):
    X=              3.6771    Y=              3.1293    Z=             -1.6436  Tot=              5.1005
 Quadrupole moment (field-independent basis, Debye-Ang):
   XX=           -235.6834   YY=           -237.4637   ZZ=           -274.3035
   XY=             -0.8862   XZ=            -17.1893   YZ=            -17.3336

 Normal termination of Gaussian 16 at Sun Jul 28 08:48:01 2019.
