 Gaussian 16, Revision A.03,
 Gaussian 16:  ES64L-G16RevA.03 25-Dec-2016

 --------------------------
 # td=(NStates=1) B3LYP/SVP
 --------------------------

 --
 TD
 --
 Symbolic Z-matrix:
 Charge =  0 Multiplicity = 1

                         Standard orientation:
 ---------------------------------------------------------------------
 Center     Atomic      Atomic             Coordinates (Angstroms)
 Number     Number       Type             X           Y           Z
 ---------------------------------------------------------------------
      1          8           0        5.375538   -0.094043   -3.304939
      2          8           0       -3.074087   -2.961956    2.946972
      3          8           0       -3.322621   -0.737227    2.796708
      4          8           0       -1.537412    7.238571    1.527791
      5          8           0       -0.320254    6.892524   -0.443317
      6          8           0       -1.607790   -3.878394    0.140677
      7          7           0        2.307431    0.968177    0.620499
      8          7           0        4.369626   -0.495791   -1.176441
      9          7           0       -1.946052    0.735355   -0.434804
     10          7           0       -2.583205   -1.798006   -0.551567
     11          6           0        4.709890   -1.200071    0.073486
     12          6           0        4.351135   -0.232170    1.235514
     13          6           0        2.927676   -0.012644    1.368540
     14          6           0        1.962728   -0.634613    2.166632
     15          6           0        0.723686    0.056306    1.849641
     16          6           0        0.984817    1.048974    0.814204
     17          6           0        6.191367   -1.298573   -0.172994
     18          6           0       -0.633873   -0.273772    2.541838
     19          6           0        6.657074   -0.915398   -1.426104
     20          6           0        0.022612    2.093946    0.253535
     21          6           0       -1.152228    1.829239   -0.361047
     22          6           0        5.393809   -0.482228   -2.135612
     23          6           0       -2.042989    2.884453   -0.887034
     24          6           0        2.182851   -1.793796    3.131689
     25          6           0        7.033941   -1.979190    1.010104
     26          6           0       -3.175837    2.367436   -1.259282
     27          6           0       -1.104220   -1.658608    2.587559
     28          6           0       -3.121212    0.915154   -0.975811
     29          6           0       -1.591520    4.334169   -0.985821
     30          6           0        7.952237   -0.939864   -1.999595
     31          6           0       -1.671547    5.076579    0.354701
     32          6           0       -4.423779    3.024364   -1.864686
     33          6           0       -3.969835   -0.097050   -1.337800
     34          6           0       -2.651556   -1.660026    2.852574
     35          6           0       -3.775486   -1.405906   -1.160714
     36          6           0        9.206820   -0.944215   -1.505508
     37          6           0       -1.170421    6.508508    0.328315
     38          6           0       -4.533175   -2.638416   -1.506140
     39          6           0       -3.803037   -3.726742   -0.963508
     40          6           0       -2.579651   -3.159736   -0.323414
     41          6           0       -5.834506   -2.610566   -2.215109
     42          6           0       -4.167704   -5.195410   -1.006950
     43          6           0       -6.704050   -3.626505   -2.348418
     44          1           0        4.128156   -2.212409    0.111239
     45          1           0        4.828756    0.679755    1.170731
     46          1           0        4.818854   -0.874348    2.186862
     47          1           0        2.645641    1.661480   -0.090097
     48          1           0        3.287016   -0.306012   -1.463892
     49          1           0       -0.681859    0.178663    3.545582
     50          1           0       -1.494006    0.196339    1.836552
     51          1           0        0.499791    2.993183   -0.193569
     52          1           0        3.123148   -2.124752    3.116324
     53          1           0        2.068217   -1.462536    4.168145
     54          1           0        1.680727   -2.805481    2.699067
     55          1           0        6.546573   -2.921133    1.519851
     56          1           0        7.366879   -1.163981    1.580245
     57          1           0        7.906391   -2.398053    0.437055
     58          1           0       -0.852974   -2.239577    1.664745
     59          1           0       -0.588027   -2.092527    3.449151
     60          1           0       -1.578837   -0.216573   -0.085766
     61          1           0       -2.050162    4.862797   -1.871790
     62          1           0       -0.496196    4.458284   -1.422695
     63          1           0        7.979207   -0.720227   -3.112455
     64          1           0       -1.229215    4.749935    1.186035
     65          1           0       -2.674879    5.183822    0.522502
     66          1           0       -4.256699    4.155875   -1.709347
     67          1           0       -5.330811    2.350038   -1.462956
     68          1           0       -4.456690    2.894855   -3.138438
     69          1           0       -4.957774    0.347176   -1.790097
     70          1           0        9.494976   -0.953020   -0.459926
     71          1           0       10.130528   -0.990865   -2.043320
     72          1           0       -4.064455   -2.852675    2.908848
     73          1           0       -6.173720   -1.449055   -2.393554
     74          1           0       -5.075421   -5.314539   -0.419227
     75          1           0       -4.388973   -5.442323   -1.998187
     76          1           0       -3.207263   -5.640227   -0.610834
     77          1           0       -0.924471    7.976971    1.582264
     78          1           0       -7.689587   -3.350045   -2.758775
     79          1           0       -6.638550   -4.624522   -1.971934
 ---------------------------------------------------------------------

 SCF Done:  E(RB3LYP) =  -1947.84972897     A.U. after   22 cycles

 Excitation energies and oscillator strengths:

 Excited State   1:      Singlet-A      1.8749 eV  661.28 nm  f=0.1291  <S**2>=0.000
     153 ->156        -0.17611
     154 ->156         0.40294
     155 ->156         0.54887
 This state for optimization and/or second-order correction.
 Total Energy, E(TD-HF/TD-DFT) =  -1947.78082742
 Copying the excited state density for this state as the 1-particle RhoCI density.

 The electronic state is 1-A.
 Alpha  occ. eigenvalues --  -19.18243 -19.16445 -19.14964 -19.12549 -19.09981
 Alpha  occ. eigenvalues --  -19.09890 -14.39354 -14.37660 -14.35836 -14.28575
 Alpha  occ. eigenvalues --  -10.33637 -10.30158 -10.28763 -10.26240 -10.25639
 Alpha  occ. eigenvalues --  -10.25527 -10.24660 -10.24090 -10.23707 -10.23637
 Alpha  occ. eigenvalues --  -10.23217 -10.23059 -10.22918 -10.22700 -10.22172
 Alpha  occ. eigenvalues --  -10.21675 -10.21305 -10.21203 -10.21183 -10.20996
 Alpha  occ. eigenvalues --  -10.20894 -10.20600 -10.20425 -10.20261 -10.20202
 Alpha  occ. eigenvalues --  -10.19643 -10.19636 -10.19631 -10.19510 -10.19426
 Alpha  occ. eigenvalues --  -10.18759 -10.18359 -10.17499  -1.10002  -1.08465
 Alpha  occ. eigenvalues --   -1.01535  -1.01151  -1.01129  -1.01115  -0.99395
 Alpha  occ. eigenvalues --   -0.97377  -0.93134  -0.90629  -0.84071  -0.82489
 Alpha  occ. eigenvalues --   -0.81181  -0.80906  -0.79903  -0.79742  -0.79094
 Alpha  occ. eigenvalues --   -0.77404  -0.76454  -0.75433  -0.74642  -0.72355
 Alpha  occ. eigenvalues --   -0.71087  -0.70877  -0.69871  -0.69298  -0.68799
 Alpha  occ. eigenvalues --   -0.66880  -0.65151  -0.63906  -0.61702  -0.61123
 Alpha  occ. eigenvalues --   -0.59682  -0.58834  -0.57852  -0.57348  -0.57092
 Alpha  occ. eigenvalues --   -0.56612  -0.55600  -0.54658  -0.53542  -0.53252
 Alpha  occ. eigenvalues --   -0.51784  -0.51408  -0.51051  -0.50577  -0.50372
 Alpha  occ. eigenvalues --   -0.49300  -0.48831  -0.48326  -0.47944  -0.47697
 Alpha  occ. eigenvalues --   -0.47473  -0.47233  -0.46943  -0.46567  -0.46432
 Alpha  occ. eigenvalues --   -0.45610  -0.45036  -0.44379  -0.44018  -0.43458
 Alpha  occ. eigenvalues --   -0.43406  -0.43352  -0.43249  -0.42922  -0.42611
 Alpha  occ. eigenvalues --   -0.42164  -0.42003  -0.41780  -0.41624  -0.41423
 Alpha  occ. eigenvalues --   -0.41202  -0.40463  -0.40348  -0.40176  -0.39658
 Alpha  occ. eigenvalues --   -0.39512  -0.39171  -0.38992  -0.38919  -0.38720
 Alpha  occ. eigenvalues --   -0.38006  -0.37288  -0.36980  -0.36547  -0.36403
 Alpha  occ. eigenvalues --   -0.35919  -0.35865  -0.35082  -0.34414  -0.34157
 Alpha  occ. eigenvalues --   -0.33935  -0.33512  -0.33480  -0.32106  -0.31973
 Alpha  occ. eigenvalues --   -0.31651  -0.30466  -0.29576  -0.28741  -0.27781
 Alpha  occ. eigenvalues --   -0.27434  -0.26258  -0.26223  -0.25240  -0.24588
 Alpha  occ. eigenvalues --   -0.24008  -0.23692  -0.23521  -0.21631  -0.20007
 Alpha virt. eigenvalues --   -0.11853  -0.06682  -0.06326  -0.02213  -0.01057
 Alpha virt. eigenvalues --    0.00778   0.01227   0.02069   0.02510   0.02640
 Alpha virt. eigenvalues --    0.03369   0.03956   0.04662   0.04973   0.05094

 Mulliken charges:
               1
     1  O   -0.233596
     2  O   -0.207458
     3  O   -0.154667
     4  O   -0.253415
     5  O   -0.210528
     6  O   -0.289475
     7  N   -0.055211
     8  N   -0.306491
     9  N   -0.010980
    10  N   -0.338848
    11  C    0.089050
    12  C    0.171591
    13  C   -0.055931
    14  C   -0.133945
    15  C   -0.107113
    16  C   -0.055621
    17  C   -0.218617
    18  C    0.007499
    19  C    0.042227
    20  C   -0.030279
    21  C    0.083097
    22  C    0.177408
    23  C   -0.055948
    24  C    0.160755
    25  C    0.057520
    26  C   -0.090223
    27  C   -0.026495
    28  C    0.053397
    29  C   -0.023757
    30  C   -0.036601
    31  C    0.155352
    32  C   -0.013488
    33  C   -0.128324
    34  C    0.125876
    35  C    0.142714
    36  C   -0.048997
    37  C    0.137706
    38  C    0.041215
    39  C   -0.241240
    40  C    0.202795
    41  C   -0.039780
    42  C    0.126959
    43  C   -0.031118
    44  H    0.058401
    45  H   -0.027908
    46  H    0.031634
    47  H    0.135069
    48  H    0.163190
    49  H    0.011274
    50  H    0.022883
    51  H   -0.002291
    52  H   -0.067962
    53  H    0.028528
    54  H    0.062605
    55  H    0.051485
    56  H    0.033126
    57  H    0.033893
    58  H    0.078207
    59  H    0.012663
    60  H    0.185093
    61  H    0.022687
    62  H    0.038898
    63  H    0.030201
    64  H    0.016375
    65  H    0.001211
    66  H    0.047924
    67  H    0.069705
    68  H    0.056564
    69  H   -0.006417
    70  H    0.002394
    71  H    0.021953
    72  H    0.172160
    73  H    0.026684
    74  H    0.030774
    75  H    0.014903
    76  H    0.048778
    77  H    0.178523
    78  H    0.024584
    79  H    0.015192
 Sum of Mulliken charges =  -0.00000

 Dipole moment (field-independent basis, Debye):
    X=             -0.5345    Y=              3.1267    Z=              2.9845  Tot=              4.3553
 Quadrupole moment (field-independent basis, Debye-Ang):
   XX=           -221.1319   YY=           -251.1397   ZZ=           -265.8413
   XY=             -6.9370   XZ=             32.6936   YZ=              0.9623

 Normal termination of Gaussian 16 at Sat Sep 14 21:46:14 2019.
