 Gaussian 16, Revision A.03,
 Gaussian 16:  ES64L-G16RevA.03 25-Dec-2016

 --------------------------
 # td=(NStates=1) B3LYP/SVP
 --------------------------

 --
 TD
 --
 Symbolic Z-matrix:
 Charge =  0 Multiplicity = 1

                         Standard orientation:
 ---------------------------------------------------------------------
 Center     Atomic      Atomic             Coordinates (Angstroms)
 Number     Number       Type             X           Y           Z
 ---------------------------------------------------------------------
      1          8           0       -3.257875   -0.410225   -3.066172
      2          8           0        2.828883    2.229178    3.994272
      3          8           0        3.804774    0.309874    4.606798
      4          8           0        7.700450   -1.031514   -1.005003
      5          8           0        6.753299   -2.240840   -2.706507
      6          8           0       -2.543430    1.080695    1.912557
      7          7           0       -0.216052   -2.501191    0.307654
      8          7           0       -2.620630   -0.989259   -0.937539
      9          7           0        1.240371    0.342595   -0.654806
     10          7           0       -1.037008    1.421456    0.220323
     11          6           0       -3.298697   -1.476146    0.309962
     12          6           0       -2.589932   -2.675250    0.896016
     13          6           0       -1.169355   -2.453983    1.286465
     14          6           0       -0.505793   -1.900544    2.463193
     15          6           0        0.828647   -1.798404    2.166318
     16          6           0        1.026412   -2.059357    0.730126
     17          6           0       -4.612513   -1.885404   -0.235004
     18          6           0        1.928705   -1.166093    3.115863
     19          6           0       -4.594676   -1.673322   -1.539914
     20          6           0        2.075467   -1.802260   -0.203667
     21          6           0        2.142305   -0.722878   -0.940154
     22          6           0       -3.438731   -0.872649   -2.001142
     23          6           0        3.042492   -0.099098   -1.915849
     24          6           0       -1.283372   -1.648796    3.704251
     25          6           0       -5.587909   -2.379975    0.723449
     26          6           0        2.551033    1.139342   -2.298311
     27          6           0        1.793919    0.236863    3.170227
     28          6           0        1.293137    1.385443   -1.479459
     29          6           0        4.175940   -0.784052   -2.497389
     30          6           0       -5.600429   -2.032223   -2.513199
     31          6           0        5.399188   -0.654869   -1.426858
     32          6           0        3.027653    2.090125   -3.415020
     33          6           0        0.410773    2.408703   -1.599002
     34          6           0        2.857175    0.911487    4.007099
     35          6           0       -0.657989    2.455813   -0.616206
     36          6           0       -6.733876   -2.814142   -2.390278
     37          6           0        6.688085   -1.442694   -1.876100
     38          6           0       -1.579452    3.594367   -0.486494
     39          6           0       -2.434020    3.194772    0.542854
     40          6           0       -1.962059    1.807829    1.060445
     41          6           0       -1.578187    4.806144   -1.339699
     42          6           0       -3.569633    3.873868    1.305977
     43          6           0       -2.353992    5.867849   -0.961668
     44          1           0       -3.285636   -0.691798    1.022494
     45          1           0       -2.652366   -3.590845    0.320189
     46          1           0       -3.050625   -3.070462    1.795396
     47          1           0       -0.521928   -2.584289   -0.640023
     48          1           0       -1.781442   -0.274645   -0.803870
     49          1           0        1.865937   -1.828243    3.869449
     50          1           0        2.920440   -1.320475    2.544784
     51          1           0        2.935770   -2.669184   -0.642676
     52          1           0       -1.992533   -2.195460    4.026252
     53          1           0       -0.531224   -1.746152    4.549136
     54          1           0       -1.899646   -0.618816    3.520975
     55          1           0       -5.259589   -2.153263    1.814218
     56          1           0       -5.475863   -3.535288    0.788857
     57          1           0       -6.644078   -2.137518    0.488207
     58          1           0        2.031146    0.854052    2.277613
     59          1           0        0.879297    0.467706    3.658905
     60          1           0        0.645889    0.129802    0.136881
     61          1           0        4.583483   -0.234479   -3.402836
     62          1           0        4.166266   -1.958002   -2.716948
     63          1           0       -5.300874   -1.594213   -3.396439
     64          1           0        5.070248   -0.947718   -0.430763
     65          1           0        5.775347    0.370643   -1.274100
     66          1           0        4.149708    1.858922   -3.801319
     67          1           0        3.101778    3.182009   -2.995773
     68          1           0        2.456544    2.225953   -4.374457
     69          1           0        0.367658    3.298714   -2.426892
     70          1           0       -7.058189   -3.324555   -1.462380
     71          1           0       -7.319734   -2.942342   -3.217992
     72          1           0        3.540498    2.736908    4.490053
     73          1           0       -0.984321    4.926052   -2.290764
     74          1           0       -4.474093    4.048991    0.505493
     75          1           0       -4.084256    3.291082    2.120831
     76          1           0       -3.162533    4.850706    1.749326
     77          1           0        8.423782   -1.636804   -1.196555
     78          1           0       -2.272964    6.883189   -1.475637
     79          1           0       -3.159363    5.934484   -0.047601
 ---------------------------------------------------------------------

 SCF Done:  E(RB3LYP) =  -1947.83537206     A.U. after   16 cycles

 Excitation energies and oscillator strengths:

 Excited State   1:      Singlet-A      1.1701 eV 1059.57 nm  f=0.0003  <S**2>=0.000
     155 ->156         0.70344
 This state for optimization and/or second-order correction.
 Total Energy, E(TD-HF/TD-DFT) =  -1947.79237021
 Copying the excited state density for this state as the 1-particle RhoCI density.

 The electronic state is 1-A.
 Alpha  occ. eigenvalues --  -19.18685 -19.18429 -19.15490 -19.11618 -19.10501
 Alpha  occ. eigenvalues --  -19.08451 -14.37615 -14.37237 -14.32633 -14.30038
 Alpha  occ. eigenvalues --  -10.33366 -10.31296 -10.27602 -10.27504 -10.26139
 Alpha  occ. eigenvalues --  -10.25730 -10.25247 -10.23847 -10.23754 -10.23417
 Alpha  occ. eigenvalues --  -10.23356 -10.22993 -10.22430 -10.22296 -10.22037
 Alpha  occ. eigenvalues --  -10.21877 -10.21845 -10.21640 -10.21601 -10.21354
 Alpha  occ. eigenvalues --  -10.21331 -10.20594 -10.20390 -10.19816 -10.19413
 Alpha  occ. eigenvalues --  -10.18980 -10.18552 -10.18485 -10.17561 -10.17560
 Alpha  occ. eigenvalues --  -10.17504 -10.17358 -10.16635  -1.11676  -1.08745
 Alpha  occ. eigenvalues --   -1.03710  -1.02881  -1.01118  -1.00174  -0.96969
 Alpha  occ. eigenvalues --   -0.96441  -0.93247  -0.92427  -0.84080  -0.83303
 Alpha  occ. eigenvalues --   -0.81987  -0.80809  -0.80480  -0.79023  -0.77553
 Alpha  occ. eigenvalues --   -0.77446  -0.77093  -0.74778  -0.74299  -0.72596
 Alpha  occ. eigenvalues --   -0.70934  -0.70342  -0.69470  -0.68870  -0.68034
 Alpha  occ. eigenvalues --   -0.67879  -0.65667  -0.63915  -0.61059  -0.60271
 Alpha  occ. eigenvalues --   -0.59972  -0.59502  -0.59436  -0.58744  -0.56652
 Alpha  occ. eigenvalues --   -0.55922  -0.55795  -0.55019  -0.53295  -0.53165
 Alpha  occ. eigenvalues --   -0.52432  -0.51126  -0.50965  -0.50512  -0.50107
 Alpha  occ. eigenvalues --   -0.49593  -0.49197  -0.48611  -0.48276  -0.47331
 Alpha  occ. eigenvalues --   -0.46793  -0.46690  -0.46522  -0.46173  -0.45813
 Alpha  occ. eigenvalues --   -0.45422  -0.44554  -0.44276  -0.43975  -0.43756
 Alpha  occ. eigenvalues --   -0.43610  -0.43340  -0.42979  -0.42456  -0.42088
 Alpha  occ. eigenvalues --   -0.42028  -0.41722  -0.41594  -0.41383  -0.41002
 Alpha  occ. eigenvalues --   -0.40814  -0.40658  -0.40440  -0.39687  -0.39574
 Alpha  occ. eigenvalues --   -0.39310  -0.39129  -0.38772  -0.38632  -0.38407
 Alpha  occ. eigenvalues --   -0.38352  -0.37933  -0.37266  -0.36771  -0.36530
 Alpha  occ. eigenvalues --   -0.36353  -0.35957  -0.34926  -0.34518  -0.34429
 Alpha  occ. eigenvalues --   -0.34233  -0.33458  -0.32873  -0.32196  -0.31126
 Alpha  occ. eigenvalues --   -0.30447  -0.30272  -0.29861  -0.29188  -0.27938
 Alpha  occ. eigenvalues --   -0.26923  -0.25869  -0.25212  -0.25076  -0.24338
 Alpha  occ. eigenvalues --   -0.23825  -0.23485  -0.22727  -0.21666  -0.19385
 Alpha virt. eigenvalues --   -0.12587  -0.07447  -0.03790  -0.02658  -0.00325
 Alpha virt. eigenvalues --   -0.00051   0.00867   0.01967   0.02770   0.03548
 Alpha virt. eigenvalues --    0.03738   0.03822   0.04486   0.04804   0.05192

 Mulliken charges:
               1
     1  O   -0.189598
     2  O   -0.186003
     3  O   -0.293749
     4  O   -0.213428
     5  O   -0.144615
     6  O   -0.256507
     7  N   -0.034763
     8  N   -0.281244
     9  N   -0.090789
    10  N   -0.267804
    11  C    0.171946
    12  C    0.199101
    13  C   -0.124232
    14  C   -0.102483
    15  C   -0.156411
    16  C   -0.029532
    17  C   -0.167880
    18  C    0.164374
    19  C   -0.099805
    20  C   -0.155370
    21  C    0.118167
    22  C    0.144644
    23  C   -0.009259
    24  C    0.107070
    25  C    0.063428
    26  C   -0.084689
    27  C    0.082188
    28  C    0.194212
    29  C    0.015451
    30  C    0.026839
    31  C   -0.067668
    32  C   -0.007991
    33  C   -0.170485
    34  C    0.105207
    35  C    0.069100
    36  C   -0.003883
    37  C    0.143406
    38  C    0.054485
    39  C   -0.201788
    40  C    0.180381
    41  C   -0.010800
    42  C    0.002404
    43  C   -0.099153
    44  H    0.019989
    45  H   -0.024979
    46  H   -0.020483
    47  H    0.104707
    48  H    0.164025
    49  H   -0.007428
    50  H   -0.003516
    51  H    0.035500
    52  H   -0.060912
    53  H    0.003378
    54  H    0.065483
    55  H    0.027950
    56  H    0.031253
    57  H    0.047525
    58  H    0.035786
    59  H    0.030707
    60  H    0.177043
    61  H    0.020863
    62  H    0.070813
    63  H   -0.039306
    64  H    0.048769
    65  H    0.034057
    66  H    0.041874
    67  H    0.040495
    68  H    0.058541
    69  H    0.050852
    70  H    0.009884
    71  H   -0.002792
    72  H    0.211717
    73  H    0.020537
    74  H    0.054719
    75  H    0.042242
    76  H    0.057116
    77  H    0.168034
    78  H    0.034689
    79  H    0.058394
 Sum of Mulliken charges =  -0.00000

 Dipole moment (field-independent basis, Debye):
    X=              3.1288    Y=              3.5044    Z=             -0.5518  Tot=              4.7302
 Quadrupole moment (field-independent basis, Debye-Ang):
   XX=           -243.1065   YY=           -229.2047   ZZ=           -269.4754
   XY=             10.1198   XZ=            -26.3879   YZ=             -5.2974

 Normal termination of Gaussian 16 at Thu Jul 25 03:39:30 2019.
