 Gaussian 16, Revision A.03,
 Gaussian 16:  ES64L-G16RevA.03 25-Dec-2016

 --------------------------
 # td=(NStates=1) B3LYP/SVP
 --------------------------

 --
 TD
 --
 Symbolic Z-matrix:
 Charge =  0 Multiplicity = 1

                         Standard orientation:
 ---------------------------------------------------------------------
 Center     Atomic      Atomic             Coordinates (Angstroms)
 Number     Number       Type             X           Y           Z
 ---------------------------------------------------------------------
      1          8           0        5.151850    0.110731   -3.314841
      2          8           0       -3.048612   -3.189569    3.051262
      3          8           0       -3.414711   -0.980077    2.941401
      4          8           0       -1.724054    7.228553    1.434904
      5          8           0       -0.506974    6.994794   -0.510436
      6          8           0       -1.613404   -3.997843   -0.033986
      7          7           0        2.357006    1.032628    0.799814
      8          7           0        4.228318   -0.485274   -1.223348
      9          7           0       -1.859565    0.670650   -0.302567
     10          7           0       -2.387501   -1.813118   -0.385540
     11          6           0        4.650526   -1.231604   -0.076803
     12          6           0        4.401121   -0.325507    1.286146
     13          6           0        2.875812   -0.046166    1.489391
     14          6           0        1.978341   -0.594276    2.243699
     15          6           0        0.669710   -0.109304    1.912686
     16          6           0        0.956039    0.985846    0.958378
     17          6           0        6.149162   -1.258789   -0.235758
     18          6           0       -0.512644   -0.330219    2.672957
     19          6           0        6.492291   -0.732649   -1.456402
     20          6           0        0.261717    2.019663    0.252800
     21          6           0       -1.123406    1.888515   -0.121905
     22          6           0        5.251265   -0.324386   -2.145621
     23          6           0       -2.051507    2.923246   -0.673660
     24          6           0        2.117727   -1.840573    3.132349
     25          6           0        7.111361   -2.043031    0.786000
     26          6           0       -3.213368    2.348279   -1.173785
     27          6           0       -1.137202   -1.714260    2.713784
     28          6           0       -3.126396    0.901821   -0.924654
     29          6           0       -1.667122    4.351595   -0.895934
     30          6           0        7.825249   -0.525860   -2.173650
     31          6           0       -1.999028    5.135492    0.334956
     32          6           0       -4.259196    2.929938   -1.903826
     33          6           0       -3.918877   -0.114792   -1.347280
     34          6           0       -2.662045   -1.853233    2.898182
     35          6           0       -3.564264   -1.492769   -1.050218
     36          6           0        9.029253   -0.553296   -1.509071
     37          6           0       -1.385352    6.532068    0.334195
     38          6           0       -4.430663   -2.671106   -1.623425
     39          6           0       -3.755892   -3.786044   -1.011969
     40          6           0       -2.432634   -3.230396   -0.472476
     41          6           0       -5.685199   -2.434344   -2.282864
     42          6           0       -3.819484   -5.213456   -1.378126
     43          6           0       -6.446799   -3.362788   -2.781624
     44          1           0        3.992794   -2.136206    0.242770
     45          1           0        5.049264    0.456124    1.081297
     46          1           0        4.685503   -0.795046    2.205465
     47          1           0        2.795417    1.483556    0.100522
     48          1           0        3.267554   -0.541140   -1.449376
     49          1           0       -0.598090   -0.035918    3.727943
     50          1           0       -1.319795    0.322720    2.361371
     51          1           0        0.782614    2.979949    0.262086
     52          1           0        3.061158   -1.696702    3.729969
     53          1           0        1.476504   -1.887820    3.974971
     54          1           0        2.230774   -2.766126    2.596210
     55          1           0        6.577070   -2.860056    1.270652
     56          1           0        7.454104   -1.519679    1.737261
     57          1           0        7.862251   -2.661594    0.391539
     58          1           0       -0.982224   -2.384754    1.874672
     59          1           0       -0.494316   -2.135464    3.367611
     60          1           0       -1.559243   -0.209137    0.024122
     61          1           0       -2.218224    4.781746   -1.784389
     62          1           0       -0.613443    4.317318   -1.284323
     63          1           0        7.862362   -0.493227   -3.285473
     64          1           0       -1.160836    4.742021    1.027698
     65          1           0       -2.983744    5.247871    0.821570
     66          1           0       -4.225273    4.058930   -1.855098
     67          1           0       -5.269268    2.723038   -1.349970
     68          1           0       -4.171385    2.536421   -2.945605
     69          1           0       -4.769038    0.182789   -1.981919
     70          1           0        9.124369   -0.822928   -0.552822
     71          1           0       10.105037   -0.498554   -1.946071
     72          1           0       -4.028341   -3.137180    3.166049
     73          1           0       -6.091887   -1.458759   -2.317064
     74          1           0       -4.727369   -5.660691   -0.765496
     75          1           0       -3.999381   -5.541904   -2.500406
     76          1           0       -3.011705   -5.558374   -0.771958
     77          1           0       -1.104033    8.005020    1.536191
     78          1           0       -7.292372   -3.067170   -3.592706
     79          1           0       -6.298325   -4.501675   -2.541090
 ---------------------------------------------------------------------

 SCF Done:  E(RB3LYP) =  -1947.84743152     A.U. after   16 cycles

 Excitation energies and oscillator strengths:

 Excited State   1:      Singlet-A      2.0283 eV  611.28 nm  f=0.4066  <S**2>=0.000
     155 ->156         0.70141
     155 <-156        -0.11259
 This state for optimization and/or second-order correction.
 Total Energy, E(TD-HF/TD-DFT) =  -1947.77289351
 Copying the excited state density for this state as the 1-particle RhoCI density.

 The electronic state is 1-A.
 Alpha  occ. eigenvalues --  -19.19649 -19.15877 -19.12266 -19.12217 -19.10658
 Alpha  occ. eigenvalues --  -19.10224 -14.37247 -14.36187 -14.35594 -14.30364
 Alpha  occ. eigenvalues --  -10.33078 -10.30667 -10.29075 -10.26676 -10.26172
 Alpha  occ. eigenvalues --  -10.25130 -10.24687 -10.24515 -10.23715 -10.23681
 Alpha  occ. eigenvalues --  -10.22843 -10.22497 -10.22349 -10.21617 -10.21584
 Alpha  occ. eigenvalues --  -10.21390 -10.21292 -10.21264 -10.21246 -10.21121
 Alpha  occ. eigenvalues --  -10.21000 -10.20980 -10.20462 -10.20378 -10.20031
 Alpha  occ. eigenvalues --  -10.19861 -10.19718 -10.19545 -10.19357 -10.19249
 Alpha  occ. eigenvalues --  -10.18558 -10.18276 -10.17344  -1.09046  -1.08985
 Alpha  occ. eigenvalues --   -1.02384  -1.01446  -0.99905  -0.98519  -0.96691
 Alpha  occ. eigenvalues --   -0.95426  -0.94786  -0.90197  -0.83380  -0.82607
 Alpha  occ. eigenvalues --   -0.81576  -0.81410  -0.80930  -0.79778  -0.78129
 Alpha  occ. eigenvalues --   -0.77214  -0.76345  -0.75709  -0.74411  -0.72841
 Alpha  occ. eigenvalues --   -0.71997  -0.71584  -0.69535  -0.68963  -0.68643
 Alpha  occ. eigenvalues --   -0.67193  -0.65388  -0.63121  -0.61696  -0.60371
 Alpha  occ. eigenvalues --   -0.60339  -0.58925  -0.58623  -0.58134  -0.56977
 Alpha  occ. eigenvalues --   -0.55812  -0.55497  -0.54703  -0.54261  -0.53847
 Alpha  occ. eigenvalues --   -0.51825  -0.51657  -0.50986  -0.50472  -0.49884
 Alpha  occ. eigenvalues --   -0.49401  -0.48346  -0.47636  -0.47592  -0.47357
 Alpha  occ. eigenvalues --   -0.47206  -0.47090  -0.46751  -0.46083  -0.45871
 Alpha  occ. eigenvalues --   -0.45400  -0.45136  -0.44397  -0.43997  -0.43706
 Alpha  occ. eigenvalues --   -0.43560  -0.43399  -0.42972  -0.42847  -0.42705
 Alpha  occ. eigenvalues --   -0.42387  -0.42161  -0.41914  -0.41581  -0.41256
 Alpha  occ. eigenvalues --   -0.40791  -0.40737  -0.40612  -0.40053  -0.39819
 Alpha  occ. eigenvalues --   -0.39190  -0.38917  -0.38650  -0.38592  -0.38482
 Alpha  occ. eigenvalues --   -0.37958  -0.37854  -0.37201  -0.37105  -0.36233
 Alpha  occ. eigenvalues --   -0.36178  -0.35639  -0.35610  -0.34856  -0.34649
 Alpha  occ. eigenvalues --   -0.34198  -0.33280  -0.31511  -0.31242  -0.31091
 Alpha  occ. eigenvalues --   -0.30972  -0.30869  -0.28843  -0.28626  -0.27512
 Alpha  occ. eigenvalues --   -0.27375  -0.26821  -0.25785  -0.25348  -0.25179
 Alpha  occ. eigenvalues --   -0.24747  -0.24439  -0.23890  -0.22241  -0.18923
 Alpha virt. eigenvalues --   -0.11000  -0.07030  -0.06612  -0.01725  -0.01341
 Alpha virt. eigenvalues --   -0.00135   0.00835   0.02594   0.03045   0.03307
 Alpha virt. eigenvalues --    0.04180   0.04564   0.04860   0.05136   0.05432

 Mulliken charges:
               1
     1  O   -0.247290
     2  O   -0.236570
     3  O   -0.160771
     4  O   -0.191666
     5  O   -0.315260
     6  O   -0.195925
     7  N   -0.047170
     8  N   -0.157979
     9  N   -0.135323
    10  N   -0.301517
    11  C   -0.010382
    12  C    0.232658
    13  C   -0.095040
    14  C   -0.142433
    15  C   -0.033165
    16  C    0.062448
    17  C   -0.107646
    18  C    0.072228
    19  C   -0.041396
    20  C   -0.092674
    21  C    0.119135
    22  C    0.162196
    23  C   -0.113347
    24  C    0.120121
    25  C    0.083702
    26  C   -0.105230
    27  C    0.021572
    28  C    0.160965
    29  C    0.058715
    30  C    0.001704
    31  C    0.029635
    32  C    0.056304
    33  C   -0.133756
    34  C    0.137305
    35  C    0.092396
    36  C   -0.018767
    37  C    0.137629
    38  C    0.044152
    39  C   -0.202201
    40  C    0.174072
    41  C    0.016174
    42  C    0.065094
    43  C   -0.095219
    44  H    0.052608
    45  H   -0.036467
    46  H   -0.005549
    47  H    0.074606
    48  H    0.120397
    49  H    0.001624
    50  H   -0.012436
    51  H    0.015950
    52  H   -0.010379
    53  H    0.010553
    54  H    0.039175
    55  H   -0.005782
    56  H    0.040548
    57  H    0.021117
    58  H    0.034898
    59  H   -0.030564
    60  H    0.128107
    61  H    0.018066
    62  H    0.045316
    63  H    0.036693
    64  H    0.058144
    65  H    0.056223
    66  H    0.018964
    67  H    0.042919
    68  H    0.053203
    69  H   -0.019049
    70  H   -0.023287
    71  H    0.041223
    72  H    0.176133
    73  H   -0.012879
    74  H    0.019078
    75  H    0.064322
    76  H    0.019849
    77  H    0.204746
    78  H    0.048644
    79  H    0.045805
 Sum of Mulliken charges =  -0.00000

 Dipole moment (field-independent basis, Debye):
    X=             -0.3331    Y=              1.0893    Z=              3.5137  Tot=              3.6938
 Quadrupole moment (field-independent basis, Debye-Ang):
   XX=           -216.0800   YY=           -252.5745   ZZ=           -259.6319
   XY=            -16.2692   XZ=             34.5820   YZ=             10.7240

 Normal termination of Gaussian 16 at Sat Oct  5 08:15:01 2019.
