 Gaussian 16, Revision A.03,
 Gaussian 16:  ES64L-G16RevA.03 25-Dec-2016

 --------------------------
 # td=(NStates=1) B3LYP/SVP
 --------------------------

 --
 TD
 --
 Symbolic Z-matrix:
 Charge =  0 Multiplicity = 1

                         Standard orientation:
 ---------------------------------------------------------------------
 Center     Atomic      Atomic             Coordinates (Angstroms)
 Number     Number       Type             X           Y           Z
 ---------------------------------------------------------------------
      1          8           0        5.227813   -0.325427   -3.258711
      2          8           0       -3.177488   -2.924756    3.382903
      3          8           0       -3.457260   -0.688966    3.082898
      4          8           0       -0.709529    7.184028    1.646078
      5          8           0       -0.143949    7.024243   -0.590222
      6          8           0       -1.973428   -4.021179   -0.042740
      7          7           0        2.373412    0.791803    0.601815
      8          7           0        4.229833   -0.952128   -1.253101
      9          7           0       -1.876576    0.847248   -0.280331
     10          7           0       -2.673332   -1.775292   -0.467195
     11          6           0        4.724736   -1.460554    0.034366
     12          6           0        4.330549   -0.530550    1.209299
     13          6           0        2.861764   -0.240396    1.286238
     14          6           0        1.914839   -0.733710    2.129731
     15          6           0        0.692158   -0.031019    1.767206
     16          6           0        1.070613    1.028724    0.895884
     17          6           0        6.214377   -1.567832   -0.110174
     18          6           0       -0.640135   -0.200306    2.470053
     19          6           0        6.573763   -1.095984   -1.347014
     20          6           0        0.236430    2.009319    0.216397
     21          6           0       -1.093003    1.920938   -0.212523
     22          6           0        5.308637   -0.697859   -2.127050
     23          6           0       -1.807423    2.975301   -0.896345
     24          6           0        1.934214   -1.792244    3.178570
     25          6           0        7.171280   -2.145915    0.939240
     26          6           0       -3.049811    2.519542   -1.314179
     27          6           0       -1.235045   -1.700867    2.509573
     28          6           0       -3.119716    1.102938   -1.016687
     29          6           0       -1.250676    4.486910   -0.912553
     30          6           0        7.786664   -1.007284   -2.088667
     31          6           0       -1.313800    5.205033    0.488493
     32          6           0       -4.169581    3.287865   -1.985772
     33          6           0       -3.957083    0.105054   -1.303836
     34          6           0       -2.757924   -1.700300    3.042996
     35          6           0       -3.733266   -1.380490   -1.052711
     36          6           0        9.073267   -1.111587   -1.679402
     37          6           0       -0.637409    6.536434    0.428200
     38          6           0       -4.652609   -2.460872   -1.517594
     39          6           0       -4.030685   -3.669110   -1.213521
     40          6           0       -2.742966   -3.203423   -0.574209
     41          6           0       -5.944859   -2.207234   -2.132978
     42          6           0       -4.437393   -5.031079   -1.340900
     43          6           0       -7.155631   -2.943810   -2.439157
     44          1           0        4.151896   -2.561127    0.468616
     45          1           0        4.778126    0.533163    1.012716
     46          1           0        4.877656   -0.976649    2.110498
     47          1           0        2.867689    1.239600   -0.086180
     48          1           0        3.214328   -0.707732   -1.545167
     49          1           0       -0.695776   -0.020745    3.679292
     50          1           0       -1.391274    0.455906    2.122470
     51          1           0        0.766110    2.868007   -0.141491
     52          1           0        2.989701   -2.095684    3.395579
     53          1           0        1.641387   -1.548716    4.083883
     54          1           0        1.625674   -2.636229    2.759059
     55          1           0        6.601406   -2.825643    1.536581
     56          1           0        7.467225   -1.315859    1.710479
     57          1           0        8.040187   -2.569999    0.485624
     58          1           0       -1.167139   -2.219596    1.565374
     59          1           0       -0.835425   -2.325310    3.349063
     60          1           0       -1.692702   -0.099986   -0.148639
     61          1           0       -1.919179    4.846621   -1.861729
     62          1           0       -0.279825    4.561236   -1.428347
     63          1           0        7.452242   -0.664488   -3.118299
     64          1           0       -0.718633    4.516166    1.141476
     65          1           0       -2.528468    5.447132    0.720793
     66          1           0       -4.015047    4.361768   -2.262533
     67          1           0       -4.979534    3.100308   -1.194096
     68          1           0       -4.336500    2.814346   -2.875018
     69          1           0       -4.952172    0.580339   -1.901660
     70          1           0        9.330767   -1.033570   -0.548151
     71          1           0       10.011335   -1.022499   -2.358249
     72          1           0       -4.129662   -3.046297    3.366522
     73          1           0       -5.997764   -1.159500   -2.447455
     74          1           0       -5.611203   -5.200952   -1.078832
     75          1           0       -4.689089   -5.090037   -2.569782
     76          1           0       -3.834117   -5.686046   -0.421551
     77          1           0       -0.103285    8.099099    1.540602
     78          1           0       -7.930510   -2.582205   -2.993202
     79          1           0       -7.496693   -3.993573   -2.024054
 ---------------------------------------------------------------------

 SCF Done:  E(RB3LYP) =  -1947.80877070     A.U. after   16 cycles

 Excitation energies and oscillator strengths:

 Excited State   1:      Singlet-A      1.7985 eV  689.36 nm  f=0.3576  <S**2>=0.000
     155 ->156         0.70579
     155 <-156        -0.11773
 This state for optimization and/or second-order correction.
 Total Energy, E(TD-HF/TD-DFT) =  -1947.74267586
 Copying the excited state density for this state as the 1-particle RhoCI density.

 The electronic state is 1-A.
 Alpha  occ. eigenvalues --  -19.19437 -19.17397 -19.13494 -19.12376 -19.11040
 Alpha  occ. eigenvalues --  -19.11030 -14.37837 -14.36087 -14.35128 -14.31262
 Alpha  occ. eigenvalues --  -10.32856 -10.31006 -10.28831 -10.28459 -10.26706
 Alpha  occ. eigenvalues --  -10.25549 -10.24538 -10.23745 -10.23518 -10.23028
 Alpha  occ. eigenvalues --  -10.22678 -10.22433 -10.22382 -10.22259 -10.22181
 Alpha  occ. eigenvalues --  -10.22070 -10.21643 -10.21332 -10.21313 -10.21304
 Alpha  occ. eigenvalues --  -10.21295 -10.21134 -10.21038 -10.21012 -10.20837
 Alpha  occ. eigenvalues --  -10.20492 -10.20114 -10.20029 -10.19333 -10.19090
 Alpha  occ. eigenvalues --  -10.18733 -10.18235 -10.17140  -1.08151  -1.07731
 Alpha  occ. eigenvalues --   -1.03972  -1.02126  -1.00460  -0.99584  -0.98513
 Alpha  occ. eigenvalues --   -0.97454  -0.94617  -0.93226  -0.81762  -0.81647
 Alpha  occ. eigenvalues --   -0.81531  -0.80912  -0.80778  -0.79370  -0.77223
 Alpha  occ. eigenvalues --   -0.76750  -0.75537  -0.74512  -0.74229  -0.72451
 Alpha  occ. eigenvalues --   -0.71871  -0.70980  -0.69967  -0.69334  -0.67571
 Alpha  occ. eigenvalues --   -0.66733  -0.65632  -0.63973  -0.61580  -0.60434
 Alpha  occ. eigenvalues --   -0.60320  -0.59418  -0.58243  -0.57669  -0.57234
 Alpha  occ. eigenvalues --   -0.55374  -0.55319  -0.54963  -0.53833  -0.53144
 Alpha  occ. eigenvalues --   -0.52714  -0.51464  -0.49705  -0.49473  -0.48737
 Alpha  occ. eigenvalues --   -0.48527  -0.47975  -0.47650  -0.47205  -0.46904
 Alpha  occ. eigenvalues --   -0.46898  -0.46598  -0.45973  -0.45716  -0.45480
 Alpha  occ. eigenvalues --   -0.45336  -0.45045  -0.44924  -0.44288  -0.43983
 Alpha  occ. eigenvalues --   -0.43578  -0.43165  -0.42985  -0.42788  -0.42327
 Alpha  occ. eigenvalues --   -0.42034  -0.41835  -0.41746  -0.41538  -0.41154
 Alpha  occ. eigenvalues --   -0.40973  -0.40512  -0.40277  -0.40032  -0.39795
 Alpha  occ. eigenvalues --   -0.39699  -0.39206  -0.38906  -0.38808  -0.38299
 Alpha  occ. eigenvalues --   -0.37517  -0.37152  -0.36783  -0.36446  -0.36050
 Alpha  occ. eigenvalues --   -0.35668  -0.35374  -0.35107  -0.34280  -0.34164
 Alpha  occ. eigenvalues --   -0.33509  -0.33437  -0.32547  -0.32000  -0.31696
 Alpha  occ. eigenvalues --   -0.31035  -0.30824  -0.29763  -0.29130  -0.28643
 Alpha  occ. eigenvalues --   -0.26480  -0.26386  -0.25940  -0.25683  -0.25508
 Alpha  occ. eigenvalues --   -0.24678  -0.24003  -0.23475  -0.22604  -0.18482
 Alpha virt. eigenvalues --   -0.11498  -0.07145  -0.06479  -0.02363  -0.01405
 Alpha virt. eigenvalues --    0.00984   0.01130   0.01416   0.02030   0.02419
 Alpha virt. eigenvalues --    0.02877   0.03274   0.04001   0.04394   0.04763

 Mulliken charges:
               1
     1  O   -0.192453
     2  O   -0.174223
     3  O   -0.246354
     4  O   -0.267389
     5  O   -0.240072
     6  O   -0.210334
     7  N    0.036716
     8  N   -0.258491
     9  N   -0.076409
    10  N   -0.212924
    11  C    0.023404
    12  C    0.103756
    13  C   -0.073803
    14  C   -0.177917
    15  C   -0.089848
    16  C    0.032953
    17  C   -0.141629
    18  C    0.031273
    19  C   -0.095576
    20  C   -0.063122
    21  C    0.113015
    22  C    0.166065
    23  C   -0.128688
    24  C    0.273861
    25  C    0.108058
    26  C   -0.105572
    27  C   -0.044653
    28  C    0.063855
    29  C    0.022796
    30  C    0.012212
    31  C    0.007376
    32  C    0.106013
    33  C   -0.126827
    34  C    0.132204
    35  C    0.068611
    36  C   -0.095858
    37  C    0.160589
    38  C    0.049172
    39  C   -0.155165
    40  C    0.165874
    41  C   -0.034935
    42  C   -0.053979
    43  C   -0.051638
    44  H    0.045150
    45  H   -0.002739
    46  H    0.019495
    47  H    0.073362
    48  H    0.162711
    49  H    0.019212
    50  H    0.007171
    51  H   -0.032123
    52  H   -0.042260
    53  H   -0.017937
    54  H   -0.004450
    55  H    0.007317
    56  H    0.045974
    57  H    0.035503
    58  H    0.063876
    59  H    0.030397
    60  H    0.106156
    61  H    0.024338
    62  H    0.027710
    63  H    0.032428
    64  H    0.062613
    65  H    0.091249
    66  H    0.028583
    67  H    0.052011
    68  H    0.011057
    69  H    0.026820
    70  H    0.038868
    71  H    0.049856
    72  H    0.181139
    73  H    0.000484
    74  H    0.041484
    75  H    0.070398
    76  H    0.096724
    77  H    0.238466
    78  H    0.006736
    79  H    0.042278
 Sum of Mulliken charges =  -0.00000

 Dipole moment (field-independent basis, Debye):
    X=             -0.7108    Y=              1.2269    Z=              2.3098  Tot=              2.7103
 Quadrupole moment (field-independent basis, Debye-Ang):
   XX=           -218.4998   YY=           -245.0515   ZZ=           -265.1015
   XY=              3.4347   XZ=             35.4425   YZ=             -0.0853

 Normal termination of Gaussian 16 at Thu Oct 10 02:36:03 2019.
