 Gaussian 16, Revision A.03,
 Gaussian 16:  ES64L-G16RevA.03 25-Dec-2016

 --------------------------
 # td=(NStates=1) B3LYP/SVP
 --------------------------

 --
 TD
 --
 Symbolic Z-matrix:
 Charge =  0 Multiplicity = 1

                         Standard orientation:
 ---------------------------------------------------------------------
 Center     Atomic      Atomic             Coordinates (Angstroms)
 Number     Number       Type             X           Y           Z
 ---------------------------------------------------------------------
      1          8           0       -3.191101   -1.362770   -2.902406
      2          8           0        3.146392    2.945472    3.142542
      3          8           0        3.965322    1.198079    4.427285
      4          8           0        7.620471   -1.647903   -0.753066
      5          8           0        6.697950   -2.967822   -2.293130
      6          8           0       -2.691656    1.688483    1.547377
      7          7           0       -0.268655   -2.443937    0.923550
      8          7           0       -2.645891   -1.021705   -0.639553
      9          7           0        1.158799    0.168406   -0.606197
     10          7           0       -1.142378    1.493895   -0.251319
     11          6           0       -3.446471   -1.338765    0.596073
     12          6           0       -2.655948   -2.405994    1.434526
     13          6           0       -1.252829   -2.052988    1.720242
     14          6           0       -0.632981   -1.200831    2.769833
     15          6           0        0.778622   -1.208734    2.509643
     16          6           0        0.928039   -1.860717    1.345855
     17          6           0       -4.719916   -1.983166    0.226301
     18          6           0        1.739768   -0.404402    3.369912
     19          6           0       -4.699153   -2.090954   -1.152911
     20          6           0        2.087757   -1.872883    0.405729
     21          6           0        2.040490   -0.822605   -0.533594
     22          6           0       -3.417130   -1.422170   -1.732157
     23          6           0        3.083523   -0.549590   -1.694686
     24          6           0       -1.498287   -0.505493    3.816116
     25          6           0       -5.761579   -2.224986    1.252811
     26          6           0        2.470482    0.545969   -2.520820
     27          6           0        2.035960    0.935353    2.826214
     28          6           0        1.257842    1.010097   -1.738319
     29          6           0        4.146970   -1.466684   -1.983129
     30          6           0       -5.648484   -2.740875   -2.034852
     31          6           0        5.437757   -1.161663   -1.234446
     32          6           0        3.102979    1.124793   -3.765889
     33          6           0        0.399845    2.093982   -2.004361
     34          6           0        3.215680    1.643355    3.538765
     35          6           0       -0.752447    2.390863   -1.199823
     36          6           0       -6.826883   -3.400159   -1.743605
     37          6           0        6.548011   -2.012241   -1.412295
     38          6           0       -1.601660    3.642430   -1.202117
     39          6           0       -2.331624    3.496379   -0.120394
     40          6           0       -2.070060    2.156935    0.552518
     41          6           0       -1.283333    4.631176   -2.187791
     42          6           0       -3.298184    4.590204    0.401329
     43          6           0       -1.681952    5.920919   -2.267312
     44          1           0       -3.571377   -0.343341    1.002723
     45          1           0       -2.472858   -3.283415    0.808162
     46          1           0       -3.070016   -2.689605    2.284852
     47          1           0       -0.270329   -3.152940    0.018714
     48          1           0       -1.985748   -0.317596   -0.749830
     49          1           0        1.230926   -0.297064    4.383546
     50          1           0        2.679557   -1.058718    3.345280
     51          1           0        2.724963   -2.683341    0.275851
     52          1           0       -2.113697   -1.335301    4.313137
     53          1           0       -0.951909   -0.163417    4.662745
     54          1           0       -2.012732    0.308344    3.512577
     55          1           0       -5.885320   -1.477706    2.017417
     56          1           0       -5.972847   -3.156960    1.979595
     57          1           0       -6.869088   -2.331592    0.804792
     58          1           0        2.166360    1.070248    1.630672
     59          1           0        1.028636    1.668174    2.672992
     60          1           0        0.151637    0.160804   -0.108975
     61          1           0        4.317007   -1.616481   -3.094216
     62          1           0        3.777084   -2.574223   -1.754829
     63          1           0       -5.272996   -2.460970   -3.140049
     64          1           0        5.448062   -1.008689   -0.084667
     65          1           0        5.583751   -0.083914   -1.424485
     66          1           0        3.986156    0.581544   -3.981118
     67          1           0        3.256105    2.287274   -3.781001
     68          1           0        2.575372    0.910588   -4.829205
     69          1           0        0.853378    2.597055   -2.884765
     70          1           0       -6.935248   -3.742235   -0.669754
     71          1           0       -7.455753   -3.700279   -2.583175
     72          1           0        3.831880    3.559029    3.454218
     73          1           0       -0.750846    4.391609   -3.083795
     74          1           0       -4.236942    4.660346   -0.241027
     75          1           0       -3.700198    4.144936    1.264064
     76          1           0       -2.769056    5.602124    0.642741
     77          1           0        8.322509   -2.288054   -1.110873
     78          1           0       -1.599042    6.478870   -3.023336
     79          1           0       -2.298361    6.400667   -1.287371
 ---------------------------------------------------------------------

 SCF Done:  E(RB3LYP) =  -1947.79865957     A.U. after   21 cycles

 Excitation energies and oscillator strengths:

 Excited State   1:      Singlet-A      0.7486 eV 1656.13 nm  f=0.0051  <S**2>=0.000
     155 ->156         0.70503
 This state for optimization and/or second-order correction.
 Total Energy, E(TD-HF/TD-DFT) =  -1947.77114756
 Copying the excited state density for this state as the 1-particle RhoCI density.

 The electronic state is 1-A.
 Alpha  occ. eigenvalues --  -19.20274 -19.17729 -19.12916 -19.12626 -19.12591
 Alpha  occ. eigenvalues --  -19.08818 -14.38224 -14.37688 -14.32562 -14.32119
 Alpha  occ. eigenvalues --  -10.33309 -10.32405 -10.29505 -10.27976 -10.26847
 Alpha  occ. eigenvalues --  -10.26599 -10.26192 -10.25054 -10.24755 -10.23330
 Alpha  occ. eigenvalues --  -10.23315 -10.23257 -10.22191 -10.22168 -10.22052
 Alpha  occ. eigenvalues --  -10.21594 -10.21518 -10.21452 -10.21424 -10.21036
 Alpha  occ. eigenvalues --  -10.20899 -10.20684 -10.20316 -10.20062 -10.20039
 Alpha  occ. eigenvalues --  -10.19467 -10.19170 -10.18713 -10.18608 -10.18444
 Alpha  occ. eigenvalues --  -10.16959 -10.16806 -10.16289  -1.11564  -1.07611
 Alpha  occ. eigenvalues --   -1.01886  -1.01637  -0.99031  -0.98696  -0.96820
 Alpha  occ. eigenvalues --   -0.96663  -0.94060  -0.91481  -0.84304  -0.82551
 Alpha  occ. eigenvalues --   -0.82051  -0.80493  -0.80158  -0.79211  -0.78102
 Alpha  occ. eigenvalues --   -0.76942  -0.75755  -0.75001  -0.74258  -0.73302
 Alpha  occ. eigenvalues --   -0.71299  -0.70050  -0.69495  -0.69315  -0.67450
 Alpha  occ. eigenvalues --   -0.66698  -0.65950  -0.63706  -0.62017  -0.61040
 Alpha  occ. eigenvalues --   -0.60475  -0.59113  -0.58960  -0.56962  -0.56691
 Alpha  occ. eigenvalues --   -0.56133  -0.55941  -0.54503  -0.53502  -0.53049
 Alpha  occ. eigenvalues --   -0.52626  -0.51718  -0.50757  -0.49833  -0.49691
 Alpha  occ. eigenvalues --   -0.49293  -0.48949  -0.48733  -0.48364  -0.47295
 Alpha  occ. eigenvalues --   -0.46797  -0.46576  -0.46508  -0.45981  -0.45841
 Alpha  occ. eigenvalues --   -0.45581  -0.45446  -0.44700  -0.44348  -0.43938
 Alpha  occ. eigenvalues --   -0.43728  -0.43324  -0.42982  -0.42507  -0.42245
 Alpha  occ. eigenvalues --   -0.41885  -0.41547  -0.41313  -0.41181  -0.40818
 Alpha  occ. eigenvalues --   -0.40611  -0.40217  -0.39970  -0.39770  -0.39443
 Alpha  occ. eigenvalues --   -0.39388  -0.39319  -0.38828  -0.38317  -0.37870
 Alpha  occ. eigenvalues --   -0.37546  -0.36873  -0.36730  -0.36511  -0.36333
 Alpha  occ. eigenvalues --   -0.36078  -0.35834  -0.35450  -0.35051  -0.34182
 Alpha  occ. eigenvalues --   -0.32607  -0.32031  -0.31748  -0.31289  -0.31185
 Alpha  occ. eigenvalues --   -0.30988  -0.30150  -0.29552  -0.28800  -0.28128
 Alpha  occ. eigenvalues --   -0.27846  -0.26629  -0.26368  -0.25119  -0.24701
 Alpha  occ. eigenvalues --   -0.24318  -0.23545  -0.22532  -0.21743  -0.18360
 Alpha virt. eigenvalues --   -0.13267  -0.08278  -0.04759  -0.03429  -0.02840
 Alpha virt. eigenvalues --   -0.00960   0.01327   0.02136   0.02607   0.02849
 Alpha virt. eigenvalues --    0.03322   0.03617   0.04232   0.04631   0.05015

 Mulliken charges:
               1
     1  O   -0.208270
     2  O   -0.205487
     3  O   -0.243625
     4  O   -0.158756
     5  O   -0.332657
     6  O   -0.237888
     7  N   -0.097972
     8  N   -0.226961
     9  N   -0.127005
    10  N   -0.339541
    11  C    0.095815
    12  C    0.318645
    13  C   -0.145797
    14  C   -0.174279
    15  C   -0.082426
    16  C   -0.069027
    17  C   -0.071286
    18  C    0.194173
    19  C   -0.096475
    20  C   -0.057184
    21  C    0.089885
    22  C    0.152114
    23  C   -0.077223
    24  C    0.157150
    25  C   -0.021909
    26  C   -0.081574
    27  C   -0.161823
    28  C    0.061351
    29  C    0.020367
    30  C   -0.051611
    31  C   -0.010504
    32  C    0.024490
    33  C   -0.054205
    34  C    0.201781
    35  C    0.112688
    36  C   -0.033424
    37  C    0.160137
    38  C    0.189862
    39  C   -0.269723
    40  C    0.228783
    41  C   -0.058374
    42  C    0.082832
    43  C    0.027529
    44  H    0.040297
    45  H   -0.040511
    46  H   -0.047276
    47  H    0.174011
    48  H    0.111705
    49  H    0.026839
    50  H    0.019779
    51  H   -0.020054
    52  H    0.004702
    53  H   -0.039662
    54  H    0.010386
    55  H    0.018477
    56  H    0.041265
    57  H    0.030063
    58  H    0.055935
    59  H    0.062301
    60  H    0.243574
    61  H    0.045119
    62  H    0.049277
    63  H    0.031602
    64  H    0.058339
    65  H    0.051815
    66  H    0.007595
    67  H    0.058521
    68  H    0.049488
    69  H   -0.013302
    70  H    0.031617
    71  H    0.030028
    72  H    0.180511
    73  H   -0.007116
    74  H    0.042606
    75  H   -0.002218
    76  H    0.061153
    77  H    0.209101
    78  H   -0.041360
    79  H    0.042794
 Sum of Mulliken charges =  -0.00000

 Dipole moment (field-independent basis, Debye):
    X=              3.1197    Y=              3.9821    Z=             -1.7018  Tot=              5.3372
 Quadrupole moment (field-independent basis, Debye-Ang):
   XX=           -244.6748   YY=           -232.3121   ZZ=           -271.9780
   XY=              8.9590   XZ=            -23.4205   YZ=            -16.9331

 Normal termination of Gaussian 16 at Sat Jul 27 16:35:49 2019.
