 Gaussian 16, Revision A.03,
 Gaussian 16:  ES64L-G16RevA.03 25-Dec-2016

 --------------------------
 # td=(NStates=1) B3LYP/SVP
 --------------------------

 --
 TD
 --
 Symbolic Z-matrix:
 Charge =  0 Multiplicity = 1

                         Standard orientation:
 ---------------------------------------------------------------------
 Center     Atomic      Atomic             Coordinates (Angstroms)
 Number     Number       Type             X           Y           Z
 ---------------------------------------------------------------------
      1          8           0       -3.178651   -1.406261   -2.793933
      2          8           0        3.096741    3.427778    2.755826
      3          8           0        3.595377    1.841652    4.309914
      4          8           0        7.699834   -1.677333   -0.711693
      5          8           0        6.410070   -3.300029   -1.631496
      6          8           0       -2.561950    1.797917    1.379282
      7          7           0       -0.215357   -2.351861    1.151595
      8          7           0       -2.649889   -1.177762   -0.460399
      9          7           0        1.209360   -0.035639   -0.731396
     10          7           0       -0.949881    1.527692   -0.211619
     11          6           0       -3.405118   -1.226452    0.747806
     12          6           0       -2.631316   -2.291529    1.797205
     13          6           0       -1.257264   -1.809630    1.942598
     14          6           0       -0.629091   -0.943359    2.933326
     15          6           0        0.721943   -0.847247    2.512917
     16          6           0        0.962987   -1.741120    1.435051
     17          6           0       -4.637885   -1.895260    0.411057
     18          6           0        1.807316    0.008808    3.142672
     19          6           0       -4.687591   -2.198858   -0.920834
     20          6           0        2.107625   -1.883136    0.510770
     21          6           0        2.084856   -1.057971   -0.589616
     22          6           0       -3.388189   -1.610305   -1.551426
     23          6           0        2.979575   -0.908268   -1.788977
     24          6           0       -1.335810   -0.176629    3.963710
     25          6           0       -5.815153   -2.180800    1.370139
     26          6           0        2.550927    0.248256   -2.555410
     27          6           0        2.082724    1.314855    2.527999
     28          6           0        1.364703    0.747740   -1.924454
     29          6           0        4.200640   -1.714102   -1.958149
     30          6           0       -5.747970   -2.802349   -1.799605
     31          6           0        5.371687   -1.222351   -0.996319
     32          6           0        3.112937    0.875953   -3.777975
     33          6           0        0.488051    1.791662   -2.164974
     34          6           0        2.982870    2.215660    3.291817
     35          6           0       -0.538457    2.200489   -1.302891
     36          6           0       -6.817118   -3.456424   -1.489001
     37          6           0        6.486707   -2.154303   -1.218424
     38          6           0       -1.398466    3.414063   -1.435299
     39          6           0       -2.271722    3.421556   -0.365229
     40          6           0       -1.986132    2.209292    0.385917
     41          6           0       -1.275268    4.421618   -2.475421
     42          6           0       -3.428913    4.367746   -0.025883
     43          6           0       -2.006029    5.556268   -2.864918
     44          1           0       -3.486628   -0.288810    1.347730
     45          1           0       -2.592165   -3.324225    1.251974
     46          1           0       -3.072755   -2.211100    2.865009
     47          1           0       -0.332462   -2.987115    0.295232
     48          1           0       -2.134748   -0.292640   -0.644081
     49          1           0        1.516921    0.063131    4.185215
     50          1           0        2.787582   -0.576677    3.207949
     51          1           0        2.831642   -2.766014    0.667205
     52          1           0       -2.022154   -0.772149    4.561931
     53          1           0       -0.683463    0.247472    4.804765
     54          1           0       -1.817519    0.623932    3.528607
     55          1           0       -5.969494   -1.330617    2.136235
     56          1           0       -5.480395   -2.978650    1.934839
     57          1           0       -6.746174   -2.423704    0.741535
     58          1           0        2.135034    1.297442    1.447370
     59          1           0        1.147226    1.962040    2.712759
     60          1           0        0.197602    0.297501   -0.210246
     61          1           0        4.549054   -1.747975   -3.002485
     62          1           0        3.994520   -2.832724   -1.953206
     63          1           0       -5.657143   -2.928896   -2.941873
     64          1           0        4.822190   -1.259081   -0.079684
     65          1           0        5.936820   -0.132675   -1.301291
     66          1           0        3.990129    0.187333   -3.971141
     67          1           0        3.662463    1.795126   -3.743259
     68          1           0        2.231928    0.929487   -4.536794
     69          1           0        0.689054    2.415587   -3.145844
     70          1           0       -7.035880   -3.781105   -0.547399
     71          1           0       -7.575639   -3.981343   -2.537203
     72          1           0        3.770483    3.931224    3.298570
     73          1           0       -0.399037    4.164359   -3.201536
     74          1           0       -4.329983    4.378056   -0.736873
     75          1           0       -3.851829    4.172174    1.021831
     76          1           0       -3.103883    5.422213   -0.070664
     77          1           0        8.290874   -2.535137   -0.716942
     78          1           0       -1.827115    6.177447   -3.704857
     79          1           0       -2.974370    5.836086   -2.272907
 ---------------------------------------------------------------------

 SCF Done:  E(RB3LYP) =  -1947.87702968     A.U. after   20 cycles

 Excitation energies and oscillator strengths:

 Excited State   1:      Singlet-A      0.6844 eV 1811.63 nm  f=0.0007  <S**2>=0.000
     155 ->156         0.70382
 This state for optimization and/or second-order correction.
 Total Energy, E(TD-HF/TD-DFT) =  -1947.85187927
 Copying the excited state density for this state as the 1-particle RhoCI density.

 The electronic state is 1-A.
 Alpha  occ. eigenvalues --  -19.19122 -19.18683 -19.14444 -19.12434 -19.11239
 Alpha  occ. eigenvalues --  -19.08853 -14.37079 -14.36456 -14.33915 -14.31846
 Alpha  occ. eigenvalues --  -10.33545 -10.31372 -10.28395 -10.27628 -10.26561
 Alpha  occ. eigenvalues --  -10.26218 -10.25886 -10.24141 -10.23968 -10.23389
 Alpha  occ. eigenvalues --  -10.23320 -10.22886 -10.22828 -10.22482 -10.22309
 Alpha  occ. eigenvalues --  -10.22283 -10.22139 -10.22088 -10.21598 -10.21189
 Alpha  occ. eigenvalues --  -10.21163 -10.20525 -10.20481 -10.20397 -10.19936
 Alpha  occ. eigenvalues --  -10.19365 -10.19290 -10.19096 -10.18984 -10.17925
 Alpha  occ. eigenvalues --  -10.17288 -10.17003 -10.16971  -1.09194  -1.09182
 Alpha  occ. eigenvalues --   -1.03914  -1.00446  -0.98567  -0.98411  -0.97851
 Alpha  occ. eigenvalues --   -0.95496  -0.94702  -0.92432  -0.83151  -0.82851
 Alpha  occ. eigenvalues --   -0.81229  -0.80433  -0.80172  -0.78952  -0.78371
 Alpha  occ. eigenvalues --   -0.76532  -0.76294  -0.75312  -0.74281  -0.73121
 Alpha  occ. eigenvalues --   -0.70829  -0.70323  -0.69632  -0.69056  -0.67597
 Alpha  occ. eigenvalues --   -0.66818  -0.66366  -0.63771  -0.61707  -0.59717
 Alpha  occ. eigenvalues --   -0.59239  -0.58869  -0.58167  -0.57477  -0.55952
 Alpha  occ. eigenvalues --   -0.55110  -0.54616  -0.54277  -0.53842  -0.53062
 Alpha  occ. eigenvalues --   -0.52483  -0.51940  -0.50615  -0.50248  -0.49728
 Alpha  occ. eigenvalues --   -0.49405  -0.49076  -0.48340  -0.47713  -0.47373
 Alpha  occ. eigenvalues --   -0.47168  -0.47045  -0.46197  -0.45920  -0.45849
 Alpha  occ. eigenvalues --   -0.45460  -0.45151  -0.44462  -0.44299  -0.43831
 Alpha  occ. eigenvalues --   -0.43577  -0.43043  -0.42686  -0.42146  -0.41783
 Alpha  occ. eigenvalues --   -0.41630  -0.41521  -0.41067  -0.40777  -0.40362
 Alpha  occ. eigenvalues --   -0.40245  -0.40091  -0.39896  -0.39845  -0.39798
 Alpha  occ. eigenvalues --   -0.39464  -0.39336  -0.38890  -0.38829  -0.38395
 Alpha  occ. eigenvalues --   -0.37693  -0.37618  -0.37232  -0.37064  -0.36453
 Alpha  occ. eigenvalues --   -0.36115  -0.35281  -0.35162  -0.34888  -0.34562
 Alpha  occ. eigenvalues --   -0.33258  -0.33010  -0.32345  -0.32067  -0.31510
 Alpha  occ. eigenvalues --   -0.31198  -0.30235  -0.29763  -0.29637  -0.29548
 Alpha  occ. eigenvalues --   -0.26748  -0.26708  -0.25998  -0.25335  -0.24169
 Alpha  occ. eigenvalues --   -0.23508  -0.23123  -0.22717  -0.22635  -0.18508
 Alpha virt. eigenvalues --   -0.13486  -0.08641  -0.03817  -0.02820  -0.02648
 Alpha virt. eigenvalues --    0.01004   0.01762   0.01987   0.02196   0.03039
 Alpha virt. eigenvalues --    0.03554   0.03995   0.04268   0.04473   0.04556

 Mulliken charges:
               1
     1  O   -0.288859
     2  O   -0.179712
     3  O   -0.267531
     4  O   -0.251113
     5  O   -0.233676
     6  O   -0.196638
     7  N   -0.093249
     8  N   -0.177439
     9  N   -0.232677
    10  N   -0.314564
    11  C    0.030543
    12  C    0.130186
    13  C   -0.103346
    14  C   -0.073570
    15  C   -0.134279
    16  C   -0.015531
    17  C   -0.160366
    18  C    0.121199
    19  C   -0.041207
    20  C   -0.145572
    21  C    0.176697
    22  C    0.156038
    23  C   -0.075646
    24  C    0.111579
    25  C    0.097074
    26  C   -0.100585
    27  C    0.016074
    28  C    0.124808
    29  C    0.012532
    30  C    0.015309
    31  C   -0.003897
    32  C    0.070481
    33  C   -0.116605
    34  C    0.129273
    35  C    0.127566
    36  C   -0.108741
    37  C    0.171365
    38  C    0.065936
    39  C   -0.168586
    40  C    0.147681
    41  C   -0.061161
    42  C    0.039951
    43  C   -0.036282
    44  H    0.060711
    45  H    0.001842
    46  H    0.023249
    47  H    0.139737
    48  H    0.157243
    49  H   -0.010226
    50  H    0.000098
    51  H    0.044827
    52  H   -0.005774
    53  H   -0.001526
    54  H    0.019880
    55  H    0.028194
    56  H    0.009977
    57  H    0.048885
    58  H    0.029506
    59  H    0.035124
    60  H    0.267870
    61  H    0.004675
    62  H    0.050135
    63  H    0.035399
    64  H    0.056536
    65  H    0.080190
    66  H    0.013172
    67  H    0.031807
    68  H    0.065442
    69  H    0.019658
    70  H   -0.012250
    71  H    0.034882
    72  H    0.195858
    73  H    0.008355
    74  H    0.051397
    75  H    0.043214
    76  H    0.029222
    77  H    0.214738
    78  H    0.028736
    79  H    0.035756
 Sum of Mulliken charges =  -0.00000

 Dipole moment (field-independent basis, Debye):
    X=              3.0933    Y=              2.9493    Z=             -1.7334  Tot=              4.6121
 Quadrupole moment (field-independent basis, Debye-Ang):
   XX=           -241.8928   YY=           -233.6267   ZZ=           -267.9091
   XY=             -1.9113   XZ=            -26.3151   YZ=            -16.0902

 Normal termination of Gaussian 16 at Fri Jul 26 21:40:08 2019.
