 Gaussian 16, Revision A.03,
 Gaussian 16:  ES64L-G16RevA.03 25-Dec-2016

 --------------------------
 # td=(NStates=1) B3LYP/SVP
 --------------------------

 --
 TD
 --
 Symbolic Z-matrix:
 Charge =  0 Multiplicity = 1

                         Standard orientation:
 ---------------------------------------------------------------------
 Center     Atomic      Atomic             Coordinates (Angstroms)
 Number     Number       Type             X           Y           Z
 ---------------------------------------------------------------------
      1          8           0       -3.356641   -1.097263   -2.870810
      2          8           0        2.784186    3.113465    3.159442
      3          8           0        3.755599    1.374402    4.223252
      4          8           0        7.649244   -1.495065   -0.715279
      5          8           0        6.642698   -3.091087   -2.016172
      6          8           0       -2.547309    1.565005    1.538233
      7          7           0       -0.229470   -2.484382    0.869246
      8          7           0       -2.719579   -1.079744   -0.635189
      9          7           0        1.151161    0.187080   -0.692824
     10          7           0       -0.966929    1.463154   -0.168457
     11          6           0       -3.496885   -1.235641    0.650742
     12          6           0       -2.669915   -2.325727    1.412913
     13          6           0       -1.287541   -2.132107    1.727595
     14          6           0       -0.582310   -1.439387    2.799342
     15          6           0        0.794757   -1.362560    2.482571
     16          6           0        1.006037   -2.035306    1.192503
     17          6           0       -4.789901   -1.903949    0.107185
     18          6           0        1.848298   -0.543088    3.193758
     19          6           0       -4.868430   -1.977916   -1.197023
     20          6           0        2.113425   -1.996240    0.208322
     21          6           0        2.121196   -0.866995   -0.659265
     22          6           0       -3.563413   -1.343080   -1.751319
     23          6           0        3.115691   -0.657186   -1.684388
     24          6           0       -1.246143   -0.693529    3.869902
     25          6           0       -5.727000   -2.328707    1.174086
     26          6           0        2.617645    0.474677   -2.436224
     27          6           0        1.784849    0.995498    2.861516
     28          6           0        1.396204    1.044718   -1.744404
     29          6           0        4.306115   -1.527583   -2.115260
     30          6           0       -5.884045   -2.409493   -2.179608
     31          6           0        5.431381   -1.126928   -1.227794
     32          6           0        3.138462    1.074115   -3.693190
     33          6           0        0.511817    2.095639   -2.004760
     34          6           0        2.860213    1.779794    3.513325
     35          6           0       -0.606442    2.358347   -1.109287
     36          6           0       -6.844691   -3.203779   -1.743365
     37          6           0        6.548647   -2.107387   -1.270599
     38          6           0       -1.401298    3.569462   -1.193432
     39          6           0       -2.230833    3.496101   -0.066559
     40          6           0       -1.960913    2.072176    0.503047
     41          6           0       -1.120882    4.667487   -2.027389
     42          6           0       -3.295289    4.322754    0.290000
     43          6           0       -1.618567    5.973923   -2.009183
     44          1           0       -3.607501   -0.418772    1.326298
     45          1           0       -3.115868   -3.331295    0.941538
     46          1           0       -3.227403   -2.367696    2.407084
     47          1           0       -0.454986   -2.836026    0.016232
     48          1           0       -2.088319   -0.280437   -0.664758
     49          1           0        1.593923   -0.522797    4.302746
     50          1           0        2.784388   -1.007517    3.024728
     51          1           0        2.758558   -2.829602    0.409926
     52          1           0       -2.306623   -1.140210    4.307253
     53          1           0       -0.617376   -0.456251    4.692452
     54          1           0       -1.771096    0.314521    3.599235
     55          1           0       -5.598372   -1.646479    2.135588
     56          1           0       -5.824117   -3.432586    1.522013
     57          1           0       -6.664766   -2.228787    0.600626
     58          1           0        1.706466    1.196000    1.760236
     59          1           0        0.810672    1.587728    3.092919
     60          1           0        0.487622    0.523267    0.046451
     61          1           0        4.489020   -1.422918   -3.106524
     62          1           0        4.064361   -2.488838   -1.892346
     63          1           0       -5.713127   -2.308369   -3.118207
     64          1           0        4.993471   -1.100676   -0.137002
     65          1           0        5.866168   -0.051671   -1.674015
     66          1           0        3.845224    0.450062   -4.407447
     67          1           0        4.025924    2.069057   -3.487049
     68          1           0        2.330899    1.427653   -4.392841
     69          1           0        0.892142    2.782958   -2.772468
     70          1           0       -6.970453   -3.684696   -0.826505
     71          1           0       -7.695686   -3.482043   -2.445887
     72          1           0        3.487861    3.335518    3.751248
     73          1           0       -0.535024    4.517482   -2.900696
     74          1           0       -3.911178    4.752404   -0.594192
     75          1           0       -4.226668    3.791584    0.765480
     76          1           0       -3.047113    5.273445    1.046967
     77          1           0        8.283656   -2.141281   -0.740840
     78          1           0       -1.296987    6.803278   -2.804414
     79          1           0       -2.217615    6.546961   -1.185142
 ---------------------------------------------------------------------

 SCF Done:  E(RB3LYP) =  -1947.81757615     A.U. after   18 cycles

 Excitation energies and oscillator strengths:

 Excited State   1:      Singlet-A      0.7347 eV 1687.58 nm  f=0.0001  <S**2>=0.000
     155 ->156         0.70308
 This state for optimization and/or second-order correction.
 Total Energy, E(TD-HF/TD-DFT) =  -1947.79057685
 Copying the excited state density for this state as the 1-particle RhoCI density.

 The electronic state is 1-A.
 Alpha  occ. eigenvalues --  -19.18975 -19.17347 -19.14943 -19.13077 -19.11947
 Alpha  occ. eigenvalues --  -19.09194 -14.37901 -14.35997 -14.32022 -14.31611
 Alpha  occ. eigenvalues --  -10.33818 -10.31758 -10.28887 -10.27401 -10.27349
 Alpha  occ. eigenvalues --  -10.26559 -10.26458 -10.24398 -10.24149 -10.23898
 Alpha  occ. eigenvalues --  -10.23872 -10.23778 -10.23002 -10.22221 -10.21960
 Alpha  occ. eigenvalues --  -10.21824 -10.21748 -10.21641 -10.21328 -10.21079
 Alpha  occ. eigenvalues --  -10.20807 -10.20753 -10.20162 -10.20031 -10.19598
 Alpha  occ. eigenvalues --  -10.19418 -10.19350 -10.18428 -10.18235 -10.17984
 Alpha  occ. eigenvalues --  -10.17880 -10.17511 -10.17167  -1.11087  -1.09980
 Alpha  occ. eigenvalues --   -1.03514  -1.01788  -1.00773  -1.00411  -0.98414
 Alpha  occ. eigenvalues --   -0.96112  -0.94220  -0.90049  -0.84817  -0.83009
 Alpha  occ. eigenvalues --   -0.81522  -0.80966  -0.79749  -0.79520  -0.78281
 Alpha  occ. eigenvalues --   -0.77068  -0.76176  -0.75799  -0.74559  -0.72746
 Alpha  occ. eigenvalues --   -0.71324  -0.70132  -0.69559  -0.69103  -0.67259
 Alpha  occ. eigenvalues --   -0.66560  -0.65636  -0.62660  -0.61249  -0.60483
 Alpha  occ. eigenvalues --   -0.60102  -0.59123  -0.57885  -0.57005  -0.56533
 Alpha  occ. eigenvalues --   -0.55685  -0.55516  -0.54669  -0.54078  -0.52670
 Alpha  occ. eigenvalues --   -0.52274  -0.52211  -0.51805  -0.50840  -0.49813
 Alpha  occ. eigenvalues --   -0.49712  -0.49211  -0.48930  -0.48809  -0.48437
 Alpha  occ. eigenvalues --   -0.47797  -0.47318  -0.46864  -0.46355  -0.45554
 Alpha  occ. eigenvalues --   -0.45433  -0.45118  -0.44548  -0.44321  -0.44100
 Alpha  occ. eigenvalues --   -0.43353  -0.43219  -0.42969  -0.42755  -0.42359
 Alpha  occ. eigenvalues --   -0.41777  -0.41356  -0.41209  -0.41091  -0.40675
 Alpha  occ. eigenvalues --   -0.40515  -0.40421  -0.40009  -0.39844  -0.39642
 Alpha  occ. eigenvalues --   -0.39082  -0.38697  -0.38395  -0.38140  -0.37952
 Alpha  occ. eigenvalues --   -0.37804  -0.37531  -0.37026  -0.36864  -0.36246
 Alpha  occ. eigenvalues --   -0.35883  -0.35521  -0.34969  -0.34603  -0.34041
 Alpha  occ. eigenvalues --   -0.33868  -0.33791  -0.32888  -0.32300  -0.32104
 Alpha  occ. eigenvalues --   -0.32022  -0.30311  -0.30112  -0.29955  -0.29165
 Alpha  occ. eigenvalues --   -0.28665  -0.26636  -0.25797  -0.25183  -0.23946
 Alpha  occ. eigenvalues --   -0.23409  -0.23294  -0.22850  -0.22003  -0.18596
 Alpha virt. eigenvalues --   -0.13409  -0.08947  -0.04093  -0.03616  -0.03422
 Alpha virt. eigenvalues --   -0.00150   0.01032   0.01527   0.02697   0.02914
 Alpha virt. eigenvalues --    0.03195   0.04098   0.04286   0.04493   0.05093

 Mulliken charges:
               1
     1  O   -0.166954
     2  O   -0.180348
     3  O   -0.233452
     4  O   -0.147979
     5  O   -0.238204
     6  O   -0.265786
     7  N   -0.008630
     8  N   -0.253322
     9  N   -0.143649
    10  N   -0.266793
    11  C    0.087263
    12  C    0.066483
    13  C   -0.000832
    14  C   -0.043455
    15  C   -0.154039
    16  C   -0.068861
    17  C   -0.169420
    18  C    0.164497
    19  C   -0.042734
    20  C   -0.087609
    21  C    0.179633
    22  C    0.121237
    23  C   -0.126329
    24  C    0.000451
    25  C    0.006357
    26  C   -0.074574
    27  C   -0.053021
    28  C    0.096594
    29  C    0.320622
    30  C    0.119939
    31  C   -0.120673
    32  C   -0.071687
    33  C   -0.069637
    34  C    0.145363
    35  C    0.093906
    36  C   -0.029476
    37  C    0.162074
    38  C    0.101812
    39  C   -0.111267
    40  C    0.180764
    41  C   -0.012144
    42  C   -0.062403
    43  C   -0.113175
    44  H    0.030276
    45  H    0.006398
    46  H   -0.010453
    47  H    0.068729
    48  H    0.136293
    49  H    0.013856
    50  H   -0.004744
    51  H    0.026234
    52  H    0.003342
    53  H   -0.010305
    54  H    0.047047
    55  H    0.042459
    56  H    0.050584
    57  H    0.026726
    58  H    0.016774
    59  H    0.058597
    60  H    0.214137
    61  H   -0.020548
    62  H   -0.021173
    63  H   -0.072335
    64  H    0.074640
    65  H    0.088001
    66  H    0.046329
    67  H    0.053043
    68  H    0.054984
    69  H   -0.005974
    70  H    0.002721
    71  H    0.018981
    72  H    0.142603
    73  H   -0.004415
    74  H    0.045078
    75  H    0.046452
    76  H    0.065291
    77  H    0.139378
    78  H    0.050015
    79  H    0.050430
 Sum of Mulliken charges =  -0.00000

 Dipole moment (field-independent basis, Debye):
    X=              2.4855    Y=              3.0082    Z=             -2.1510  Tot=              4.4558
 Quadrupole moment (field-independent basis, Debye-Ang):
   XX=           -237.7514   YY=           -235.5455   ZZ=           -266.9893
   XY=              1.3524   XZ=            -17.8175   YZ=            -11.0819

 Normal termination of Gaussian 16 at Mon Jul 29 18:14:06 2019.
