 Gaussian 16, Revision A.03,
 Gaussian 16:  ES64L-G16RevA.03 25-Dec-2016

 --------------------------
 # td=(NStates=1) B3LYP/SVP
 --------------------------

 --
 TD
 --
 Symbolic Z-matrix:
 Charge =  0 Multiplicity = 1

                         Standard orientation:
 ---------------------------------------------------------------------
 Center     Atomic      Atomic             Coordinates (Angstroms)
 Number     Number       Type             X           Y           Z
 ---------------------------------------------------------------------
      1          8           0       -3.278553   -1.516513   -2.805838
      2          8           0        3.272563    3.290718    3.015826
      3          8           0        3.760465    1.670092    4.409509
      4          8           0        7.781650   -1.762528   -0.786165
      5          8           0        6.515969   -3.388901   -1.783207
      6          8           0       -2.723918    1.669303    1.250877
      7          7           0       -0.301292   -2.297063    1.060687
      8          7           0       -2.802961   -1.115986   -0.590934
      9          7           0        1.149023    0.051078   -0.815908
     10          7           0       -1.003816    1.428039   -0.299268
     11          6           0       -3.442003   -1.296292    0.696235
     12          6           0       -2.660899   -2.232224    1.744358
     13          6           0       -1.272068   -1.924967    1.893229
     14          6           0       -0.663138   -1.058065    2.807831
     15          6           0        0.775480   -0.923959    2.567315
     16          6           0        0.920134   -1.723820    1.376026
     17          6           0       -4.786952   -1.869479    0.362808
     18          6           0        1.851128   -0.292732    3.293421
     19          6           0       -4.887524   -2.067488   -0.960028
     20          6           0        2.038620   -1.815403    0.475219
     21          6           0        2.080710   -0.901654   -0.597174
     22          6           0       -3.519556   -1.619300   -1.619405
     23          6           0        3.055873   -0.673513   -1.763736
     24          6           0       -1.326603   -0.313385    3.892151
     25          6           0       -5.774339   -2.271394    1.461216
     26          6           0        2.632301    0.248017   -2.556668
     27          6           0        1.911492    1.350544    2.881714
     28          6           0        1.360717    0.852586   -1.895498
     29          6           0        4.177724   -1.764033   -1.948389
     30          6           0       -5.864664   -2.635165   -1.955051
     31          6           0        5.408374   -1.205416   -1.288567
     32          6           0        3.293010    0.918402   -3.761572
     33          6           0        0.620559    2.026345   -2.124127
     34          6           0        3.038504    2.104759    3.549431
     35          6           0       -0.529064    2.235328   -1.328195
     36          6           0       -7.010614   -3.318059   -1.499053
     37          6           0        6.637741   -2.208120   -1.341389
     38          6           0       -1.375414    3.482041   -1.405723
     39          6           0       -2.291015    3.421746   -0.348962
     40          6           0       -2.083858    2.196566    0.306304
     41          6           0       -1.123748    4.527950   -2.340018
     42          6           0       -3.418617    4.319718    0.077884
     43          6           0       -1.856341    5.736812   -2.697290
     44          1           0       -3.516250   -0.183901    1.114577
     45          1           0       -2.847980   -3.339071    1.327534
     46          1           0       -3.144301   -2.277333    2.630167
     47          1           0       -0.605641   -2.740680    0.097884
     48          1           0       -2.026350   -0.541019   -0.944083
     49          1           0        1.623343   -0.386356    4.294803
     50          1           0        2.702715   -0.914430    2.973420
     51          1           0        2.823381   -2.692767    0.558287
     52          1           0       -1.860059   -0.870079    4.601535
     53          1           0       -0.624325    0.230343    4.682754
     54          1           0       -1.872950    0.450943    3.503583
     55          1           0       -5.669547   -1.350027    2.360092
     56          1           0       -5.648955   -3.154044    2.036064
     57          1           0       -6.800306   -2.085996    1.046211
     58          1           0        2.200341    1.355508    1.814894
     59          1           0        0.929123    1.850505    2.906541
     60          1           0        0.414625    0.451540   -0.212546
     61          1           0        4.420278   -2.133337   -3.060139
     62          1           0        3.947383   -2.739643   -1.649563
     63          1           0       -5.706978   -2.394946   -2.984234
     64          1           0        5.442461   -1.064970   -0.079765
     65          1           0        5.643938   -0.074611   -1.588718
     66          1           0        4.096021    0.440623   -4.148861
     67          1           0        3.896996    1.778217   -3.375436
     68          1           0        2.410720    1.271646   -4.221569
     69          1           0        0.862246    2.752562   -2.792535
     70          1           0       -7.180124   -3.740951   -0.548177
     71          1           0       -7.759868   -3.414245   -2.496443
     72          1           0        4.111769    3.812351    3.600139
     73          1           0       -0.261944    4.224787   -3.059138
     74          1           0       -4.125569    4.665989   -0.823680
     75          1           0       -4.073035    4.018853    0.793150
     76          1           0       -3.125909    5.184158    0.602353
     77          1           0        8.367878   -2.609263   -0.844332
     78          1           0       -1.681817    6.334775   -3.595831
     79          1           0       -2.769128    5.886950   -2.134771
 ---------------------------------------------------------------------

 SCF Done:  E(RB3LYP) =  -1947.81159193     A.U. after   20 cycles

 Excitation energies and oscillator strengths:

 Excited State   1:      Singlet-A      0.9651 eV 1284.68 nm  f=0.0004  <S**2>=0.000
     155 ->156         0.70202
 This state for optimization and/or second-order correction.
 Total Energy, E(TD-HF/TD-DFT) =  -1947.77612523
 Copying the excited state density for this state as the 1-particle RhoCI density.

 The electronic state is 1-A.
 Alpha  occ. eigenvalues --  -19.20711 -19.18317 -19.13776 -19.12246 -19.11018
 Alpha  occ. eigenvalues --  -19.07971 -14.37820 -14.37003 -14.32915 -14.31386
 Alpha  occ. eigenvalues --  -10.33997 -10.30826 -10.28204 -10.27660 -10.26078
 Alpha  occ. eigenvalues --  -10.25787 -10.25707 -10.24580 -10.23514 -10.23084
 Alpha  occ. eigenvalues --  -10.23005 -10.22794 -10.22664 -10.22637 -10.22412
 Alpha  occ. eigenvalues --  -10.22377 -10.21687 -10.21247 -10.21011 -10.20745
 Alpha  occ. eigenvalues --  -10.20708 -10.20613 -10.19902 -10.19844 -10.19734
 Alpha  occ. eigenvalues --  -10.19494 -10.19461 -10.19337 -10.19061 -10.18259
 Alpha  occ. eigenvalues --  -10.17292 -10.16274 -10.16023  -1.10069  -1.08582
 Alpha  occ. eigenvalues --   -1.01519  -1.00567  -1.00526  -0.99401  -0.98571
 Alpha  occ. eigenvalues --   -0.96654  -0.92159  -0.91829  -0.83876  -0.82488
 Alpha  occ. eigenvalues --   -0.80981  -0.79760  -0.79541  -0.78838  -0.78485
 Alpha  occ. eigenvalues --   -0.76706  -0.75312  -0.74668  -0.73666  -0.73066
 Alpha  occ. eigenvalues --   -0.71054  -0.70576  -0.68737  -0.68419  -0.67689
 Alpha  occ. eigenvalues --   -0.66489  -0.66427  -0.64492  -0.61956  -0.60617
 Alpha  occ. eigenvalues --   -0.59337  -0.58700  -0.58174  -0.57681  -0.56619
 Alpha  occ. eigenvalues --   -0.55982  -0.55454  -0.53899  -0.53502  -0.53242
 Alpha  occ. eigenvalues --   -0.52469  -0.51489  -0.50629  -0.49788  -0.49608
 Alpha  occ. eigenvalues --   -0.49100  -0.48615  -0.48453  -0.47795  -0.47245
 Alpha  occ. eigenvalues --   -0.47097  -0.46575  -0.46424  -0.46135  -0.45792
 Alpha  occ. eigenvalues --   -0.45536  -0.45311  -0.44604  -0.44527  -0.44056
 Alpha  occ. eigenvalues --   -0.43897  -0.43075  -0.42950  -0.42449  -0.42077
 Alpha  occ. eigenvalues --   -0.41959  -0.41507  -0.41100  -0.41049  -0.40931
 Alpha  occ. eigenvalues --   -0.40822  -0.40184  -0.40092  -0.39886  -0.39739
 Alpha  occ. eigenvalues --   -0.39168  -0.38927  -0.38647  -0.38350  -0.38133
 Alpha  occ. eigenvalues --   -0.37662  -0.36968  -0.36571  -0.36483  -0.36329
 Alpha  occ. eigenvalues --   -0.36045  -0.35912  -0.35102  -0.34869  -0.33885
 Alpha  occ. eigenvalues --   -0.33739  -0.32813  -0.32718  -0.32152  -0.31306
 Alpha  occ. eigenvalues --   -0.31138  -0.29459  -0.29168  -0.29120  -0.28325
 Alpha  occ. eigenvalues --   -0.28007  -0.26814  -0.26179  -0.24103  -0.23917
 Alpha  occ. eigenvalues --   -0.23172  -0.22332  -0.22224  -0.21965  -0.19043
 Alpha virt. eigenvalues --   -0.13165  -0.08401  -0.03969  -0.03006  -0.01992
 Alpha virt. eigenvalues --   -0.00057   0.01736   0.01840   0.02059   0.02919
 Alpha virt. eigenvalues --    0.02988   0.03418   0.04573   0.04877   0.05036

 Mulliken charges:
               1
     1  O   -0.251488
     2  O   -0.254071
     3  O   -0.232341
     4  O   -0.193529
     5  O   -0.288292
     6  O   -0.230889
     7  N   -0.064189
     8  N   -0.189603
     9  N   -0.045868
    10  N   -0.360133
    11  C    0.080252
    12  C    0.195085
    13  C   -0.069193
    14  C   -0.131805
    15  C   -0.110500
    16  C   -0.020816
    17  C   -0.158251
    18  C    0.191675
    19  C   -0.071634
    20  C   -0.141072
    21  C    0.098258
    22  C    0.095895
    23  C   -0.065906
    24  C    0.107923
    25  C    0.015301
    26  C   -0.145130
    27  C   -0.038938
    28  C    0.090978
    29  C    0.106502
    30  C    0.010219
    31  C   -0.106535
    32  C    0.190104
    33  C   -0.039780
    34  C    0.134770
    35  C    0.097226
    36  C   -0.055975
    37  C    0.179623
    38  C    0.065577
    39  C   -0.135350
    40  C    0.182085
    41  C   -0.100914
    42  C    0.128724
    43  C   -0.001613
    44  H    0.089130
    45  H   -0.009241
    46  H   -0.045540
    47  H    0.150091
    48  H    0.133962
    49  H   -0.007729
    50  H    0.009938
    51  H    0.048280
    52  H   -0.011944
    53  H   -0.013191
    54  H    0.002304
    55  H    0.022777
    56  H    0.039132
    57  H    0.044758
    58  H    0.029164
    59  H    0.056806
    60  H    0.173755
    61  H    0.045040
    62  H    0.004021
    63  H    0.010308
    64  H    0.070316
    65  H    0.058768
    66  H   -0.015786
    67  H    0.024525
    68  H    0.033084
    69  H   -0.065490
    70  H    0.022735
    71  H    0.042334
    72  H    0.249026
    73  H    0.018877
    74  H    0.045356
    75  H   -0.018025
    76  H    0.007755
    77  H    0.213641
    78  H    0.049377
    79  H    0.025303
 Sum of Mulliken charges =  -0.00000

 Dipole moment (field-independent basis, Debye):
    X=              3.6993    Y=              4.3962    Z=             -1.4231  Tot=              5.9192
 Quadrupole moment (field-independent basis, Debye-Ang):
   XX=           -236.5296   YY=           -234.4200   ZZ=           -265.5827
   XY=              0.6886   XZ=            -21.9382   YZ=            -17.1225

 Normal termination of Gaussian 16 at Thu Jul 25 18:05:33 2019.
