 Gaussian 16, Revision A.03,
 Gaussian 16:  ES64L-G16RevA.03 25-Dec-2016

 --------------------------
 # td=(NStates=1) B3LYP/SVP
 --------------------------

 --
 TD
 --
 Symbolic Z-matrix:
 Charge =  0 Multiplicity = 1

                         Standard orientation:
 ---------------------------------------------------------------------
 Center     Atomic      Atomic             Coordinates (Angstroms)
 Number     Number       Type             X           Y           Z
 ---------------------------------------------------------------------
      1          8           0        5.324757   -0.176210   -3.325115
      2          8           0       -3.050279   -2.818085    3.426761
      3          8           0       -3.467510   -0.707535    3.116356
      4          8           0       -1.519227    7.315260    1.399120
      5          8           0       -0.793623    6.915653   -0.839110
      6          8           0       -1.823381   -4.058684    0.191375
      7          7           0        2.330200    0.955642    0.483728
      8          7           0        4.368998   -0.598745   -1.348629
      9          7           0       -1.894720    0.666590   -0.316175
     10          7           0       -2.592821   -1.964611   -0.488945
     11          6           0        4.763858   -1.180072   -0.038699
     12          6           0        4.339745   -0.277491    1.186472
     13          6           0        2.932027    0.025719    1.319270
     14          6           0        1.973703   -0.589209    2.114681
     15          6           0        0.695450    0.098970    1.865897
     16          6           0        0.929795    1.021337    0.801441
     17          6           0        6.307108   -1.329968   -0.133712
     18          6           0       -0.626778   -0.082088    2.793860
     19          6           0        6.634350   -0.907270   -1.385857
     20          6           0        0.141211    2.009212    0.305640
     21          6           0       -1.092302    1.829423   -0.323019
     22          6           0        5.473928   -0.469364   -2.160343
     23          6           0       -2.007853    2.895520   -0.843672
     24          6           0        2.217327   -1.545818    3.178711
     25          6           0        7.022910   -2.037778    0.855883
     26          6           0       -3.101183    2.301830   -1.325459
     27          6           0       -1.201453   -1.538573    2.684884
     28          6           0       -2.981808    0.815514   -1.009188
     29          6           0       -1.721184    4.373105   -0.938135
     30          6           0        7.993833   -0.765497   -1.955213
     31          6           0       -1.782462    5.111510    0.489658
     32          6           0       -4.234572    2.879427   -2.084586
     33          6           0       -3.845169   -0.187443   -1.369068
     34          6           0       -2.628635   -1.600195    3.125636
     35          6           0       -3.676803   -1.589556   -1.123866
     36          6           0        9.156752   -0.727615   -1.259401
     37          6           0       -1.232642    6.533745    0.269549
     38          6           0       -4.519765   -2.660456   -1.487324
     39          6           0       -3.841501   -3.814757   -1.150076
     40          6           0       -2.629292   -3.400820   -0.487718
     41          6           0       -5.816810   -2.513929   -2.064507
     42          6           0       -4.145533   -5.197202   -1.204866
     43          6           0       -6.507337   -3.600392   -2.704536
     44          1           0        4.000814   -2.117270   -0.182870
     45          1           0        4.807408    0.729150    1.222920
     46          1           0        4.879889   -0.761389    1.888626
     47          1           0        2.691853    1.390963   -0.287107
     48          1           0        3.400609   -0.718656   -1.815910
     49          1           0       -0.213915    0.020066    3.946906
     50          1           0       -1.499730    0.530972    2.384901
     51          1           0        0.737806    2.955852   -0.022475
     52          1           0        3.488012   -2.076924    3.121515
     53          1           0        2.173191   -1.171189    4.326780
     54          1           0        1.449461   -2.421255    3.102339
     55          1           0        6.522552   -2.768045    1.430116
     56          1           0        7.303790   -1.256450    1.694243
     57          1           0        7.863552   -2.574488    0.454181
     58          1           0       -1.045099   -1.716150    1.456878
     59          1           0       -0.587764   -2.284693    3.334280
     60          1           0       -1.514805   -0.303243   -0.124163
     61          1           0       -2.391990    5.065425   -1.582202
     62          1           0       -0.628675    4.631577   -1.164501
     63          1           0        8.209243   -0.677960   -3.004262
     64          1           0       -0.965575    4.649312    1.169695
     65          1           0       -2.707600    5.220616    0.895138
     66          1           0       -4.324541    3.956352   -2.270255
     67          1           0       -5.307352    2.904295   -1.584284
     68          1           0       -4.313436    2.322972   -3.176958
     69          1           0       -4.572355    0.261266   -1.997313
     70          1           0        9.348356   -1.007998   -0.121793
     71          1           0        9.959894   -0.616219   -1.776339
     72          1           0       -3.887942   -2.866278    3.694942
     73          1           0       -6.303425   -1.583654   -1.990167
     74          1           0       -4.978877   -5.402978   -0.801589
     75          1           0       -4.070532   -5.440189   -2.267617
     76          1           0       -3.511602   -5.629306   -0.622383
     77          1           0       -1.237133    8.355061    1.047496
     78          1           0       -7.524201   -3.394658   -3.059800
     79          1           0       -6.030845   -4.659118   -3.037930
 ---------------------------------------------------------------------

 SCF Done:  E(RB3LYP) =  -1947.76382796     A.U. after   18 cycles

 Excitation energies and oscillator strengths:

 Excited State   1:      Singlet-A      1.9001 eV  652.52 nm  f=0.3301  <S**2>=0.000
     154 ->156         0.16025
     155 ->156         0.68479
 This state for optimization and/or second-order correction.
 Total Energy, E(TD-HF/TD-DFT) =  -1947.69400151
 Copying the excited state density for this state as the 1-particle RhoCI density.

 The electronic state is 1-A.
 Alpha  occ. eigenvalues --  -19.20430 -19.15788 -19.14369 -19.10875 -19.10377
 Alpha  occ. eigenvalues --  -19.08969 -14.37530 -14.36944 -14.34514 -14.28318
 Alpha  occ. eigenvalues --  -10.33422 -10.30514 -10.27499 -10.26065 -10.25899
 Alpha  occ. eigenvalues --  -10.24861 -10.24119 -10.22974 -10.22755 -10.22595
 Alpha  occ. eigenvalues --  -10.22572 -10.22518 -10.21840 -10.21813 -10.21640
 Alpha  occ. eigenvalues --  -10.21615 -10.21517 -10.21451 -10.21177 -10.21170
 Alpha  occ. eigenvalues --  -10.21033 -10.21011 -10.20963 -10.20598 -10.20550
 Alpha  occ. eigenvalues --  -10.20476 -10.20381 -10.19578 -10.19308 -10.19100
 Alpha  occ. eigenvalues --  -10.18989 -10.18112 -10.15556  -1.09840  -1.06972
 Alpha  occ. eigenvalues --   -1.02328  -1.00651  -0.99678  -0.99240  -0.98286
 Alpha  occ. eigenvalues --   -0.97185  -0.92724  -0.92662  -0.82940  -0.82699
 Alpha  occ. eigenvalues --   -0.81878  -0.81317  -0.80479  -0.79176  -0.77795
 Alpha  occ. eigenvalues --   -0.77440  -0.77029  -0.75996  -0.75413  -0.72824
 Alpha  occ. eigenvalues --   -0.71628  -0.70266  -0.70026  -0.68361  -0.67626
 Alpha  occ. eigenvalues --   -0.67040  -0.66216  -0.64353  -0.61295  -0.60863
 Alpha  occ. eigenvalues --   -0.59516  -0.58783  -0.58067  -0.58013  -0.57004
 Alpha  occ. eigenvalues --   -0.55816  -0.55536  -0.55153  -0.54144  -0.53538
 Alpha  occ. eigenvalues --   -0.52392  -0.52064  -0.50145  -0.49913  -0.49548
 Alpha  occ. eigenvalues --   -0.48747  -0.48529  -0.48085  -0.47965  -0.47638
 Alpha  occ. eigenvalues --   -0.46660  -0.46604  -0.46428  -0.46292  -0.45896
 Alpha  occ. eigenvalues --   -0.45544  -0.45108  -0.44948  -0.44617  -0.43813
 Alpha  occ. eigenvalues --   -0.43495  -0.43375  -0.42959  -0.42601  -0.42245
 Alpha  occ. eigenvalues --   -0.41794  -0.41597  -0.41397  -0.41240  -0.40871
 Alpha  occ. eigenvalues --   -0.40498  -0.40333  -0.40142  -0.39737  -0.39649
 Alpha  occ. eigenvalues --   -0.39417  -0.38922  -0.38675  -0.38437  -0.38149
 Alpha  occ. eigenvalues --   -0.37781  -0.37266  -0.37059  -0.36677  -0.36029
 Alpha  occ. eigenvalues --   -0.35835  -0.35728  -0.35240  -0.35100  -0.34564
 Alpha  occ. eigenvalues --   -0.34309  -0.33022  -0.32910  -0.31756  -0.31452
 Alpha  occ. eigenvalues --   -0.30894  -0.30226  -0.29113  -0.28518  -0.27422
 Alpha  occ. eigenvalues --   -0.26254  -0.26155  -0.25111  -0.25064  -0.24617
 Alpha  occ. eigenvalues --   -0.24430  -0.24082  -0.23364  -0.21674  -0.18780
 Alpha virt. eigenvalues --   -0.10990  -0.06854  -0.06439  -0.02055  -0.01728
 Alpha virt. eigenvalues --    0.00102   0.00378   0.00704   0.00836   0.01933
 Alpha virt. eigenvalues --    0.03225   0.03470   0.03842   0.04848   0.04953

 Mulliken charges:
               1
     1  O   -0.216981
     2  O   -0.097915
     3  O   -0.252347
     4  O   -0.281041
     5  O   -0.260916
     6  O   -0.211710
     7  N   -0.085539
     8  N   -0.261337
     9  N   -0.040583
    10  N   -0.287896
    11  C    0.029468
    12  C    0.249983
    13  C   -0.028515
    14  C   -0.051940
    15  C   -0.107246
    16  C    0.054872
    17  C   -0.128681
    18  C    0.053037
    19  C   -0.025992
    20  C   -0.114358
    21  C    0.078541
    22  C    0.135923
    23  C   -0.005690
    24  C   -0.088844
    25  C    0.105317
    26  C   -0.058662
    27  C   -0.126186
    28  C    0.011152
    29  C    0.013956
    30  C   -0.022529
    31  C   -0.005859
    32  C   -0.006945
    33  C   -0.070289
    34  C    0.136293
    35  C    0.122589
    36  C   -0.003764
    37  C    0.179257
    38  C    0.075714
    39  C   -0.277308
    40  C    0.159425
    41  C   -0.032420
    42  C    0.343330
    43  C   -0.068178
    44  H    0.051255
    45  H   -0.002755
    46  H   -0.069423
    47  H    0.084542
    48  H    0.157138
    49  H    0.036138
    50  H    0.049837
    51  H    0.013840
    52  H    0.018512
    53  H    0.050273
    54  H    0.060430
    55  H    0.010514
    56  H    0.046973
    57  H    0.034699
    58  H    0.136198
    59  H    0.044126
    60  H    0.167112
    61  H    0.041046
    62  H    0.036646
    63  H    0.006721
    64  H    0.064155
    65  H    0.019753
    66  H    0.006364
    67  H    0.038127
    68  H    0.058582
    69  H   -0.062993
    70  H    0.031857
    71  H   -0.027093
    72  H    0.127111
    73  H   -0.013936
    74  H   -0.048238
    75  H    0.029823
    76  H   -0.059549
    77  H    0.243292
    78  H    0.029446
    79  H    0.060289
 Sum of Mulliken charges =  -0.00000

 Dipole moment (field-independent basis, Debye):
    X=              0.4591    Y=              1.6104    Z=              2.3398  Tot=              2.8773
 Quadrupole moment (field-independent basis, Debye-Ang):
   XX=           -217.1273   YY=           -236.8540   ZZ=           -264.0527
   XY=            -10.6277   XZ=             33.8736   YZ=              5.3173

 Normal termination of Gaussian 16 at Sun Sep 29 03:06:51 2019.
