 Gaussian 16, Revision A.03,
 Gaussian 16:  ES64L-G16RevA.03 25-Dec-2016

 --------------------------
 # td=(NStates=1) B3LYP/SVP
 --------------------------

 --
 TD
 --
 Symbolic Z-matrix:
 Charge =  0 Multiplicity = 1

                         Standard orientation:
 ---------------------------------------------------------------------
 Center     Atomic      Atomic             Coordinates (Angstroms)
 Number     Number       Type             X           Y           Z
 ---------------------------------------------------------------------
      1          8           0        5.286904    0.097153   -3.352933
      2          8           0       -3.007248   -3.084214    3.207336
      3          8           0       -3.368318   -0.883396    2.793211
      4          8           0       -1.887789    7.117181    1.485747
      5          8           0       -0.979990    7.211309   -0.516211
      6          8           0       -1.462556   -3.890065   -0.058909
      7          7           0        2.337409    1.020980    0.749193
      8          7           0        4.305614   -0.476068   -1.240816
      9          7           0       -1.871584    0.699689   -0.342699
     10          7           0       -2.419596   -1.919915   -0.606405
     11          6           0        4.682111   -1.173361    0.042837
     12          6           0        4.389843   -0.189047    1.275388
     13          6           0        2.965983    0.036267    1.425080
     14          6           0        1.994131   -0.640445    2.124882
     15          6           0        0.701009    0.026678    1.920931
     16          6           0        0.905279    1.069917    1.001735
     17          6           0        6.212540   -1.242703   -0.148109
     18          6           0       -0.517883   -0.288998    2.637142
     19          6           0        6.532458   -0.721712   -1.402889
     20          6           0        0.076081    1.942158    0.267780
     21          6           0       -1.181771    1.769244   -0.255047
     22          6           0        5.296323   -0.329940   -2.171371
     23          6           0       -1.974651    2.910430   -0.814488
     24          6           0        2.119533   -1.735292    3.217448
     25          6           0        6.953056   -1.941197    0.868781
     26          6           0       -3.168197    2.285403   -1.307321
     27          6           0       -1.025358   -1.742249    2.609224
     28          6           0       -3.112463    0.878429   -1.020982
     29          6           0       -1.572505    4.356368   -0.901933
     30          6           0        7.935721   -0.623822   -2.005603
     31          6           0       -1.760101    5.021581    0.445790
     32          6           0       -4.299752    2.884577   -1.986335
     33          6           0       -3.910405   -0.209513   -1.308046
     34          6           0       -2.543367   -1.889787    2.833973
     35          6           0       -3.615603   -1.511699   -1.092501
     36          6           0        9.203691   -0.683859   -1.517377
     37          6           0       -1.501083    6.544801    0.382824
     38          6           0       -4.469314   -2.619359   -1.486953
     39          6           0       -3.681435   -3.762518   -1.160584
     40          6           0       -2.381161   -3.262384   -0.483838
     41          6           0       -5.728129   -2.621030   -2.096835
     42          6           0       -3.940277   -5.259486   -1.218885
     43          6           0       -6.530046   -3.602856   -2.496265
     44          1           0        4.264605   -2.213331    0.223991
     45          1           0        4.954822    0.766097    1.014111
     46          1           0        4.724451   -0.736893    2.183060
     47          1           0        2.737953    1.591131    0.013839
     48          1           0        3.345637   -0.472197   -1.777169
     49          1           0       -0.549629   -0.042986    3.746560
     50          1           0       -1.441999    0.123922    2.310839
     51          1           0        0.415231    2.921006   -0.090247
     52          1           0        3.283579   -1.830717    3.534971
     53          1           0        1.625613   -1.305505    4.179644
     54          1           0        1.553902   -2.808204    3.049803
     55          1           0        6.559610   -2.763215    1.377727
     56          1           0        7.181280   -1.128762    1.495483
     57          1           0        7.980914   -2.135270    0.532735
     58          1           0       -0.965926   -2.245932    1.627103
     59          1           0       -0.673697   -2.252867    3.574642
     60          1           0       -1.643398   -0.316220   -0.232786
     61          1           0       -2.326901    4.800583   -1.519959
     62          1           0       -0.519156    4.454412   -1.283112
     63          1           0        7.977148   -0.280666   -3.070552
     64          1           0       -1.000152    4.763338    1.168205
     65          1           0       -2.850350    4.825118    0.794263
     66          1           0       -4.131067    3.906844   -2.270358
     67          1           0       -5.213171    2.978501   -1.557496
     68          1           0       -4.553211    2.435419   -3.130824
     69          1           0       -4.596001    0.021130   -2.019073
     70          1           0        9.499106   -0.539013   -0.397081
     71          1           0        9.810168   -0.551504   -2.149095
     72          1           0       -3.990876   -3.116454    3.356582
     73          1           0       -6.118321   -1.547227   -2.142921
     74          1           0       -4.911582   -5.661328   -0.819920
     75          1           0       -3.724765   -5.559849   -2.388526
     76          1           0       -2.992412   -5.859212   -0.735275
     77          1           0       -1.626775    8.151514    1.226242
     78          1           0       -7.510777   -3.595651   -2.806323
     79          1           0       -6.010331   -4.640143   -2.470629
 ---------------------------------------------------------------------

 SCF Done:  E(RB3LYP) =  -1947.83742769     A.U. after   17 cycles

 Excitation energies and oscillator strengths:

 Excited State   1:      Singlet-A      1.9645 eV  631.11 nm  f=0.2635  <S**2>=0.000
     154 ->156         0.40319
     155 ->156         0.57955
     155 <-156        -0.10418
 This state for optimization and/or second-order correction.
 Total Energy, E(TD-HF/TD-DFT) =  -1947.76523248
 Copying the excited state density for this state as the 1-particle RhoCI density.

 The electronic state is 1-A.
 Alpha  occ. eigenvalues --  -19.20143 -19.18263 -19.13092 -19.10497 -19.10347
 Alpha  occ. eigenvalues --  -19.10076 -14.38237 -14.37011 -14.35772 -14.28054
 Alpha  occ. eigenvalues --  -10.32620 -10.31453 -10.29145 -10.26947 -10.25717
 Alpha  occ. eigenvalues --  -10.24552 -10.23987 -10.23655 -10.23596 -10.23243
 Alpha  occ. eigenvalues --  -10.22833 -10.22814 -10.22495 -10.22406 -10.22345
 Alpha  occ. eigenvalues --  -10.21828 -10.21713 -10.21503 -10.21087 -10.20974
 Alpha  occ. eigenvalues --  -10.20677 -10.20305 -10.20297 -10.20181 -10.20072
 Alpha  occ. eigenvalues --  -10.19986 -10.19702 -10.19695 -10.19537 -10.18720
 Alpha  occ. eigenvalues --  -10.18638 -10.18224 -10.17963  -1.11415  -1.07758
 Alpha  occ. eigenvalues --   -1.02669  -1.00825  -0.99771  -0.99356  -0.98081
 Alpha  occ. eigenvalues --   -0.95015  -0.93404  -0.92191  -0.83281  -0.82947
 Alpha  occ. eigenvalues --   -0.82428  -0.81284  -0.80456  -0.80226  -0.78493
 Alpha  occ. eigenvalues --   -0.77714  -0.76730  -0.76233  -0.73701  -0.73124
 Alpha  occ. eigenvalues --   -0.72422  -0.71297  -0.69962  -0.68731  -0.68561
 Alpha  occ. eigenvalues --   -0.67685  -0.66560  -0.64104  -0.61365  -0.60294
 Alpha  occ. eigenvalues --   -0.60095  -0.59629  -0.58817  -0.57685  -0.57148
 Alpha  occ. eigenvalues --   -0.56043  -0.55734  -0.55597  -0.54343  -0.52904
 Alpha  occ. eigenvalues --   -0.52618  -0.52046  -0.51484  -0.50697  -0.50178
 Alpha  occ. eigenvalues --   -0.49505  -0.49203  -0.48147  -0.47885  -0.47806
 Alpha  occ. eigenvalues --   -0.47491  -0.47037  -0.46523  -0.46050  -0.45880
 Alpha  occ. eigenvalues --   -0.45490  -0.45240  -0.44934  -0.44783  -0.44143
 Alpha  occ. eigenvalues --   -0.44063  -0.43611  -0.43271  -0.42763  -0.42379
 Alpha  occ. eigenvalues --   -0.42328  -0.41956  -0.41738  -0.41556  -0.41329
 Alpha  occ. eigenvalues --   -0.41021  -0.40638  -0.40316  -0.39893  -0.39846
 Alpha  occ. eigenvalues --   -0.39392  -0.39241  -0.39120  -0.38792  -0.38533
 Alpha  occ. eigenvalues --   -0.38429  -0.38054  -0.37529  -0.37147  -0.36687
 Alpha  occ. eigenvalues --   -0.36539  -0.36022  -0.35611  -0.35439  -0.34940
 Alpha  occ. eigenvalues --   -0.34248  -0.32611  -0.32378  -0.31484  -0.31356
 Alpha  occ. eigenvalues --   -0.30495  -0.29497  -0.28841  -0.28728  -0.27362
 Alpha  occ. eigenvalues --   -0.27269  -0.25852  -0.25763  -0.25375  -0.24844
 Alpha  occ. eigenvalues --   -0.24159  -0.23680  -0.23614  -0.21295  -0.19261
 Alpha virt. eigenvalues --   -0.11577  -0.06721  -0.06074  -0.00691  -0.00149
 Alpha virt. eigenvalues --    0.00127   0.00494   0.00995   0.01664   0.02449
 Alpha virt. eigenvalues --    0.03299   0.03681   0.04233   0.04845   0.04970

 Mulliken charges:
               1
     1  O   -0.257623
     2  O   -0.180268
     3  O   -0.328749
     4  O   -0.193170
     5  O   -0.269626
     6  O   -0.183543
     7  N   -0.098412
     8  N   -0.250100
     9  N   -0.014307
    10  N   -0.282770
    11  C    0.062817
    12  C    0.180662
    13  C   -0.052693
    14  C   -0.109102
    15  C   -0.032007
    16  C    0.137288
    17  C   -0.215763
    18  C    0.052530
    19  C   -0.030681
    20  C   -0.080362
    21  C    0.023811
    22  C    0.166677
    23  C   -0.135092
    24  C   -0.030226
    25  C    0.199275
    26  C   -0.059489
    27  C   -0.029176
    28  C    0.064427
    29  C    0.154623
    30  C   -0.053638
    31  C   -0.020728
    32  C    0.075703
    33  C   -0.081944
    34  C    0.140651
    35  C    0.173844
    36  C    0.067881
    37  C    0.119082
    38  C    0.060981
    39  C   -0.216544
    40  C    0.131111
    41  C   -0.033422
    42  C   -0.020066
    43  C   -0.019873
    44  H    0.055230
    45  H    0.014274
    46  H    0.009476
    47  H    0.109166
    48  H    0.160676
    49  H    0.011884
    50  H    0.002006
    51  H   -0.029286
    52  H    0.018438
    53  H    0.034453
    54  H    0.078618
    55  H    0.023957
    56  H    0.009583
    57  H    0.008515
    58  H    0.081520
    59  H    0.035941
    60  H    0.145396
    61  H   -0.003222
    62  H    0.043210
    63  H    0.026716
    64  H    0.041493
    65  H    0.066003
    66  H   -0.017108
    67  H    0.006189
    68  H    0.037226
    69  H   -0.053325
    70  H    0.029265
    71  H   -0.076610
    72  H    0.207062
    73  H   -0.013260
    74  H    0.057493
    75  H    0.050402
    76  H    0.050169
    77  H    0.227316
    78  H    0.000230
    79  H    0.018910
 Sum of Mulliken charges =  -0.00000

 Dipole moment (field-independent basis, Debye):
    X=              0.1961    Y=              1.9434    Z=              4.1058  Tot=              4.5467
 Quadrupole moment (field-independent basis, Debye-Ang):
   XX=           -227.3913   YY=           -246.1363   ZZ=           -263.5929
   XY=             -8.0600   XZ=             32.3986   YZ=              1.2109

 Normal termination of Gaussian 16 at Thu Sep 26 03:29:35 2019.
