 Gaussian 16, Revision A.03,
 Gaussian 16:  ES64L-G16RevA.03 25-Dec-2016

 --------------------------
 # td=(NStates=1) B3LYP/SVP
 --------------------------

 --
 TD
 --
 Symbolic Z-matrix:
 Charge =  0 Multiplicity = 1

                         Standard orientation:
 ---------------------------------------------------------------------
 Center     Atomic      Atomic             Coordinates (Angstroms)
 Number     Number       Type             X           Y           Z
 ---------------------------------------------------------------------
      1          8           0       -3.102759   -0.893158   -2.957161
      2          8           0        2.596538    2.698033    3.439236
      3          8           0        3.521590    0.933142    4.464791
      4          8           0        7.820181   -1.342141   -0.873928
      5          8           0        6.691258   -2.724737   -2.236803
      6          8           0       -2.667187    1.485525    1.531321
      7          7           0       -0.296051   -2.565477    0.658149
      8          7           0       -2.635606   -1.011658   -0.736415
      9          7           0        1.114979    0.084747   -0.663900
     10          7           0       -0.926948    1.515793   -0.061695
     11          6           0       -3.398131   -1.376150    0.493572
     12          6           0       -2.707659   -2.437734    1.354886
     13          6           0       -1.281265   -2.247152    1.539425
     14          6           0       -0.606410   -1.552082    2.664357
     15          6           0        0.703453   -1.440112    2.341175
     16          6           0        0.875704   -2.082791    1.092904
     17          6           0       -4.794867   -1.790988   -0.031388
     18          6           0        1.667598   -0.821765    3.167416
     19          6           0       -4.717927   -1.752946   -1.403705
     20          6           0        1.990337   -1.994712    0.131258
     21          6           0        2.074421   -0.925168   -0.683623
     22          6           0       -3.483336   -1.163478   -1.780391
     23          6           0        3.030266   -0.568543   -1.772220
     24          6           0       -1.493548   -1.169030    3.763019
     25          6           0       -5.889821   -2.209350    0.831378
     26          6           0        2.656277    0.632910   -2.230887
     27          6           0        1.749899    0.637008    2.827960
     28          6           0        1.547510    1.104051   -1.559325
     29          6           0        4.304372   -1.262430   -2.075845
     30          6           0       -5.686279   -2.265952   -2.343549
     31          6           0        5.454815   -0.943180   -1.168341
     32          6           0        3.311064    1.443092   -3.361484
     33          6           0        0.737299    2.324000   -1.755931
     34          6           0        2.738679    1.436080    3.674876
     35          6           0       -0.492021    2.394496   -0.990661
     36          6           0       -6.857366   -2.910245   -2.237964
     37          6           0        6.721738   -1.745725   -1.454233
     38          6           0       -1.354899    3.671882   -0.895475
     39          6           0       -2.231688    3.384278    0.133438
     40          6           0       -1.994026    2.024147    0.671327
     41          6           0       -1.124071    4.842527   -1.759184
     42          6           0       -3.250872    4.159069    0.720735
     43          6           0       -1.857628    5.954988   -1.757680
     44          1           0       -3.441272   -0.368855    1.067832
     45          1           0       -2.737244   -3.449286    0.783737
     46          1           0       -3.335545   -2.463167    2.244077
     47          1           0       -0.517912   -2.944924   -0.146744
     48          1           0       -2.092782   -0.251176   -0.579106
     49          1           0        1.415701   -0.850583    4.177074
     50          1           0        2.668993   -1.051460    3.068731
     51          1           0        2.789633   -2.666128    0.014739
     52          1           0       -2.192903   -2.049338    4.174729
     53          1           0       -0.742675   -0.936881    4.749547
     54          1           0       -2.209632   -0.506465    3.609105
     55          1           0       -5.757894   -1.912320    1.874396
     56          1           0       -5.786414   -3.413076    0.529160
     57          1           0       -6.859801   -2.017259    0.293243
     58          1           0        2.125225    0.911371    1.789585
     59          1           0        0.862220    1.201505    3.047386
     60          1           0        0.282972    0.127511   -0.332756
     61          1           0        4.517981   -1.175178   -3.246853
     62          1           0        4.187570   -2.399706   -2.024763
     63          1           0       -5.682287   -1.683572   -3.233044
     64          1           0        5.232833   -0.970220    0.079660
     65          1           0        5.783981    0.058437   -1.210273
     66          1           0        4.276818    0.909909   -3.602644
     67          1           0        3.701063    2.471903   -3.179911
     68          1           0        2.575336    1.544934   -4.170446
     69          1           0        1.125014    2.942783   -2.623865
     70          1           0       -7.223856   -3.567876   -1.389129
     71          1           0       -7.275416   -3.261724   -3.185617
     72          1           0        3.196876    3.233484    4.076656
     73          1           0       -0.234065    4.775862   -2.501696
     74          1           0       -4.012909    4.396340   -0.083156
     75          1           0       -3.455187    3.445586    1.575044
     76          1           0       -3.080525    5.287203    1.044535
     77          1           0        8.565788   -1.827514   -1.244837
     78          1           0       -1.744177    6.851580   -2.506180
     79          1           0       -2.646828    6.097183   -1.125885
 ---------------------------------------------------------------------

 SCF Done:  E(RB3LYP) =  -1947.83704293     A.U. after   21 cycles

 Excitation energies and oscillator strengths:

 Excited State   1:      Singlet-A      0.9329 eV 1329.00 nm  f=0.0010  <S**2>=0.000
     155 ->156         0.70428
 This state for optimization and/or second-order correction.
 Total Energy, E(TD-HF/TD-DFT) =  -1947.80275901
 Copying the excited state density for this state as the 1-particle RhoCI density.

 The electronic state is 1-A.
 Alpha  occ. eigenvalues --  -19.20990 -19.19195 -19.13180 -19.13081 -19.11216
 Alpha  occ. eigenvalues --  -19.06296 -14.37066 -14.36306 -14.31660 -14.30255
 Alpha  occ. eigenvalues --  -10.33833 -10.30620 -10.28232 -10.26662 -10.25863
 Alpha  occ. eigenvalues --  -10.25441 -10.25300 -10.23858 -10.23279 -10.23186
 Alpha  occ. eigenvalues --  -10.22389 -10.22168 -10.22140 -10.22047 -10.21882
 Alpha  occ. eigenvalues --  -10.21617 -10.21522 -10.21365 -10.20843 -10.20752
 Alpha  occ. eigenvalues --  -10.20203 -10.19916 -10.19851 -10.19477 -10.19127
 Alpha  occ. eigenvalues --  -10.18673 -10.18673 -10.18610 -10.18522 -10.18021
 Alpha  occ. eigenvalues --  -10.16823 -10.16620 -10.16504  -1.12712  -1.10674
 Alpha  occ. eigenvalues --   -1.04031  -1.00270  -0.99667  -0.99595  -0.98723
 Alpha  occ. eigenvalues --   -0.98340  -0.92862  -0.90739  -0.85130  -0.82870
 Alpha  occ. eigenvalues --   -0.82204  -0.81823  -0.80920  -0.79674  -0.78598
 Alpha  occ. eigenvalues --   -0.77336  -0.76836  -0.75918  -0.74929  -0.73177
 Alpha  occ. eigenvalues --   -0.71578  -0.71204  -0.70906  -0.69642  -0.68631
 Alpha  occ. eigenvalues --   -0.67427  -0.65861  -0.63442  -0.62799  -0.60767
 Alpha  occ. eigenvalues --   -0.60677  -0.60495  -0.59441  -0.58727  -0.57273
 Alpha  occ. eigenvalues --   -0.56633  -0.56026  -0.55295  -0.54187  -0.53548
 Alpha  occ. eigenvalues --   -0.52285  -0.52021  -0.51247  -0.50514  -0.49849
 Alpha  occ. eigenvalues --   -0.49662  -0.49102  -0.48758  -0.48338  -0.48137
 Alpha  occ. eigenvalues --   -0.47754  -0.47499  -0.47090  -0.46390  -0.46241
 Alpha  occ. eigenvalues --   -0.45752  -0.45105  -0.44863  -0.44697  -0.44244
 Alpha  occ. eigenvalues --   -0.44162  -0.43701  -0.43397  -0.43272  -0.43144
 Alpha  occ. eigenvalues --   -0.42514  -0.42152  -0.41849  -0.41750  -0.41354
 Alpha  occ. eigenvalues --   -0.41007  -0.40768  -0.40298  -0.40026  -0.39214
 Alpha  occ. eigenvalues --   -0.39064  -0.38850  -0.38759  -0.38235  -0.37969
 Alpha  occ. eigenvalues --   -0.37729  -0.37630  -0.36750  -0.36516  -0.36209
 Alpha  occ. eigenvalues --   -0.36096  -0.35549  -0.34689  -0.34623  -0.34355
 Alpha  occ. eigenvalues --   -0.34131  -0.33124  -0.32834  -0.31855  -0.31466
 Alpha  occ. eigenvalues --   -0.31007  -0.29745  -0.29095  -0.28856  -0.28606
 Alpha  occ. eigenvalues --   -0.27723  -0.26675  -0.25607  -0.24172  -0.23420
 Alpha  occ. eigenvalues --   -0.23041  -0.22532  -0.22257  -0.22048  -0.18544
 Alpha virt. eigenvalues --   -0.12560  -0.07446  -0.04722  -0.02061  -0.01167
 Alpha virt. eigenvalues --    0.01202   0.01642   0.02353   0.02478   0.03282
 Alpha virt. eigenvalues --    0.03389   0.03846   0.04071   0.04581   0.05186

 Mulliken charges:
               1
     1  O   -0.291814
     2  O   -0.159304
     3  O   -0.252960
     4  O   -0.124293
     5  O   -0.275622
     6  O   -0.213636
     7  N    0.079902
     8  N   -0.130646
     9  N   -0.012769
    10  N   -0.336714
    11  C   -0.026096
    12  C    0.241012
    13  C   -0.164777
    14  C   -0.073803
    15  C   -0.065123
    16  C   -0.017307
    17  C   -0.169931
    18  C    0.271511
    19  C   -0.027504
    20  C   -0.087061
    21  C    0.108934
    22  C    0.113664
    23  C   -0.029375
    24  C    0.077295
    25  C    0.047957
    26  C   -0.113207
    27  C   -0.067107
    28  C    0.073245
    29  C    0.036512
    30  C    0.022802
    31  C   -0.015912
    32  C    0.069867
    33  C   -0.083045
    34  C    0.088824
    35  C    0.131524
    36  C   -0.093508
    37  C    0.129837
    38  C    0.064124
    39  C   -0.202847
    40  C    0.211678
    41  C   -0.012406
    42  C   -0.007527
    43  C   -0.024678
    44  H    0.070165
    45  H   -0.015714
    46  H   -0.023635
    47  H    0.054733
    48  H    0.113417
    49  H   -0.031452
    50  H   -0.044172
    51  H   -0.032227
    52  H    0.008952
    53  H    0.015609
    54  H   -0.013621
    55  H    0.045936
    56  H    0.067038
    57  H    0.054204
    58  H    0.041178
    59  H    0.023968
    60  H    0.067594
    61  H    0.055581
    62  H    0.036684
    63  H    0.011498
    64  H    0.076647
    65  H    0.009531
    66  H    0.020134
    67  H    0.033519
    68  H    0.048619
    69  H    0.017048
    70  H    0.012449
    71  H    0.025464
    72  H    0.203603
    73  H    0.012251
    74  H    0.041209
    75  H    0.051854
    76  H    0.039113
    77  H    0.190028
    78  H    0.042700
    79  H   -0.019622
 Sum of Mulliken charges =  -0.00000

 Dipole moment (field-independent basis, Debye):
    X=              4.1002    Y=              2.8577    Z=             -0.2709  Tot=              5.0051
 Quadrupole moment (field-independent basis, Debye-Ang):
   XX=           -223.0546   YY=           -235.0568   ZZ=           -272.2984
   XY=             13.9115   XZ=            -24.9472   YZ=             -8.2066

 Normal termination of Gaussian 16 at Mon Jul 29 16:11:46 2019.
