 Gaussian 16, Revision A.03,
 Gaussian 16:  ES64L-G16RevA.03 25-Dec-2016

 --------------------------
 # td=(NStates=1) B3LYP/SVP
 --------------------------

 --
 TD
 --
 Symbolic Z-matrix:
 Charge =  0 Multiplicity = 1

                         Standard orientation:
 ---------------------------------------------------------------------
 Center     Atomic      Atomic             Coordinates (Angstroms)
 Number     Number       Type             X           Y           Z
 ---------------------------------------------------------------------
      1          8           0       -3.099090   -1.524947   -2.946466
      2          8           0        3.113661    3.095861    3.097739
      3          8           0        3.895356    1.303343    4.187581
      4          8           0        7.699075   -1.589600   -0.824743
      5          8           0        6.506785   -3.073696   -2.057214
      6          8           0       -2.800921    1.497065    1.382027
      7          7           0       -0.254010   -2.415057    0.944002
      8          7           0       -2.526753   -1.244619   -0.609687
      9          7           0        1.160895    0.056392   -0.676340
     10          7           0       -1.140672    1.437170   -0.143595
     11          6           0       -3.358812   -1.370894    0.629786
     12          6           0       -2.597470   -2.415592    1.577336
     13          6           0       -1.217232   -2.039122    1.801230
     14          6           0       -0.573056   -1.229134    2.858176
     15          6           0        0.737667   -1.129754    2.473131
     16          6           0        0.987513   -1.897777    1.304332
     17          6           0       -4.738387   -1.845006    0.212756
     18          6           0        1.818366   -0.422649    3.217360
     19          6           0       -4.730643   -2.027041   -1.191814
     20          6           0        2.106742   -1.798138    0.304002
     21          6           0        2.155762   -0.839558   -0.632526
     22          6           0       -3.312661   -1.594238   -1.773601
     23          6           0        3.034048   -0.462932   -1.753470
     24          6           0       -1.315133   -0.500661    3.992634
     25          6           0       -5.758990   -2.067868    1.281121
     26          6           0        2.477655    0.640833   -2.441458
     27          6           0        1.945172    0.997903    2.787115
     28          6           0        1.293366    0.947053   -1.825181
     29          6           0        4.278001   -1.260986   -2.211549
     30          6           0       -5.789219   -2.524287   -1.986170
     31          6           0        5.403060   -1.109777   -1.123813
     32          6           0        2.998141    1.357109   -3.654084
     33          6           0        0.370433    2.014527   -1.996926
     34          6           0        3.106174    1.762672    3.533243
     35          6           0       -0.707033    2.308269   -1.173779
     36          6           0       -6.634343   -3.502989   -1.690832
     37          6           0        6.609723   -1.995766   -1.433197
     38          6           0       -1.512596    3.524463   -1.157410
     39          6           0       -2.500374    3.445665   -0.183151
     40          6           0       -2.097675    2.092631    0.431674
     41          6           0       -1.312472    4.656284   -2.085672
     42          6           0       -3.508163    4.293707    0.390821
     43          6           0       -1.907208    5.829095   -2.203542
     44          1           0       -3.185772   -0.441957    1.008789
     45          1           0       -2.667115   -3.324950    0.896954
     46          1           0       -3.001648   -2.463659    2.772458
     47          1           0       -0.329145   -2.954502   -0.064762
     48          1           0       -1.933346   -0.430542   -0.660046
     49          1           0        1.710626   -0.366636    4.089713
     50          1           0        2.801360   -0.898387    3.089425
     51          1           0        2.740242   -2.626992    0.325988
     52          1           0       -1.896411   -1.339820    4.226446
     53          1           0       -0.681307    0.062613    4.743169
     54          1           0       -1.973809    0.338218    3.769608
     55          1           0       -5.779233   -1.243293    1.915070
     56          1           0       -5.698524   -3.067063    1.819828
     57          1           0       -6.678619   -2.184932    0.934716
     58          1           0        2.259793    1.152012    1.856374
     59          1           0        1.034684    1.719637    2.907533
     60          1           0        0.221495    0.347200   -0.092557
     61          1           0        4.735834   -1.075633   -3.132356
     62          1           0        4.182956   -2.230089   -2.020510
     63          1           0       -5.861073   -2.035087   -3.108692
     64          1           0        4.940752   -1.358718   -0.013250
     65          1           0        6.012462   -0.113447   -1.015788
     66          1           0        4.072363    0.934746   -3.942621
     67          1           0        2.977061    2.514681   -3.488434
     68          1           0        2.281078    0.892153   -4.357082
     69          1           0        0.632576    2.801450   -2.871518
     70          1           0       -6.729863   -4.172157   -0.683119
     71          1           0       -7.209306   -3.777014   -2.554154
     72          1           0        3.887637    3.476605    3.557731
     73          1           0       -0.725543    4.514754   -2.973535
     74          1           0       -4.311938    4.785244   -0.294991
     75          1           0       -4.125091    3.529226    1.148070
     76          1           0       -3.150177    5.216315    0.790291
     77          1           0        8.260972   -2.379013   -1.080411
     78          1           0       -1.682625    6.455321   -2.974518
     79          1           0       -2.828613    6.226038   -1.495123
 ---------------------------------------------------------------------

 SCF Done:  E(RB3LYP) =  -1947.73978299     A.U. after   22 cycles

 Excitation energies and oscillator strengths:

 Excited State   1:      Singlet-A      0.5329 eV 2326.80 nm  f=0.0037  <S**2>=0.000
     155 ->156         0.70480
 This state for optimization and/or second-order correction.
 Total Energy, E(TD-HF/TD-DFT) =  -1947.72020099
 Copying the excited state density for this state as the 1-particle RhoCI density.

 The electronic state is 1-A.
 Alpha  occ. eigenvalues --  -19.21648 -19.16411 -19.14094 -19.13455 -19.10029
 Alpha  occ. eigenvalues --  -19.09543 -14.37604 -14.36960 -14.32011 -14.31661
 Alpha  occ. eigenvalues --  -10.33795 -10.30662 -10.27532 -10.27230 -10.26891
 Alpha  occ. eigenvalues --  -10.25867 -10.25844 -10.24529 -10.24031 -10.23527
 Alpha  occ. eigenvalues --  -10.22931 -10.22800 -10.22733 -10.22096 -10.21912
 Alpha  occ. eigenvalues --  -10.21717 -10.20927 -10.20662 -10.20437 -10.20406
 Alpha  occ. eigenvalues --  -10.20269 -10.20246 -10.20179 -10.20073 -10.19072
 Alpha  occ. eigenvalues --  -10.18565 -10.18498 -10.18477 -10.17527 -10.17241
 Alpha  occ. eigenvalues --  -10.16971 -10.16634 -10.16111  -1.13191  -1.11287
 Alpha  occ. eigenvalues --   -1.01737  -1.01463  -1.01047  -0.99565  -0.98766
 Alpha  occ. eigenvalues --   -0.95992  -0.91973  -0.89778  -0.84200  -0.82983
 Alpha  occ. eigenvalues --   -0.81974  -0.81059  -0.79566  -0.79169  -0.78084
 Alpha  occ. eigenvalues --   -0.76921  -0.76023  -0.75601  -0.74456  -0.73109
 Alpha  occ. eigenvalues --   -0.71468  -0.69998  -0.69648  -0.69181  -0.67863
 Alpha  occ. eigenvalues --   -0.66533  -0.66014  -0.62800  -0.61253  -0.59969
 Alpha  occ. eigenvalues --   -0.59424  -0.58630  -0.57889  -0.57140  -0.55811
 Alpha  occ. eigenvalues --   -0.54999  -0.54550  -0.54385  -0.53899  -0.53516
 Alpha  occ. eigenvalues --   -0.52183  -0.51532  -0.50794  -0.50396  -0.49790
 Alpha  occ. eigenvalues --   -0.49415  -0.48711  -0.48518  -0.48100  -0.47887
 Alpha  occ. eigenvalues --   -0.47624  -0.47312  -0.47042  -0.46274  -0.45710
 Alpha  occ. eigenvalues --   -0.45355  -0.45158  -0.44731  -0.44491  -0.44451
 Alpha  occ. eigenvalues --   -0.43431  -0.43189  -0.42959  -0.42792  -0.42522
 Alpha  occ. eigenvalues --   -0.41746  -0.41557  -0.41370  -0.41109  -0.40871
 Alpha  occ. eigenvalues --   -0.40547  -0.40206  -0.40037  -0.39499  -0.39366
 Alpha  occ. eigenvalues --   -0.39020  -0.38886  -0.38687  -0.38473  -0.38207
 Alpha  occ. eigenvalues --   -0.37598  -0.37425  -0.37189  -0.36779  -0.36293
 Alpha  occ. eigenvalues --   -0.35897  -0.35406  -0.35104  -0.34811  -0.34146
 Alpha  occ. eigenvalues --   -0.33757  -0.33404  -0.33048  -0.32597  -0.32425
 Alpha  occ. eigenvalues --   -0.32135  -0.29887  -0.29483  -0.29314  -0.28938
 Alpha  occ. eigenvalues --   -0.27980  -0.26356  -0.25084  -0.24451  -0.23927
 Alpha  occ. eigenvalues --   -0.23704  -0.22929  -0.22534  -0.21891  -0.18214
 Alpha virt. eigenvalues --   -0.13751  -0.07952  -0.03436  -0.02731  -0.01585
 Alpha virt. eigenvalues --    0.02019   0.02280   0.02573   0.02983   0.03099
 Alpha virt. eigenvalues --    0.03583   0.04100   0.04749   0.04878   0.04997

 Mulliken charges:
               1
     1  O   -0.190563
     2  O   -0.239207
     3  O   -0.124131
     4  O   -0.137144
     5  O   -0.278415
     6  O   -0.314370
     7  N   -0.093282
     8  N   -0.294438
     9  N   -0.205156
    10  N   -0.261529
    11  C    0.121519
    12  C    0.122488
    13  C   -0.113861
    14  C   -0.076213
    15  C   -0.139082
    16  C   -0.043332
    17  C   -0.117631
    18  C    0.359130
    19  C   -0.092415
    20  C   -0.143558
    21  C    0.240724
    22  C    0.184670
    23  C   -0.081039
    24  C    0.087773
    25  C    0.195970
    26  C   -0.129573
    27  C   -0.025862
    28  C    0.113265
    29  C    0.267018
    30  C   -0.078204
    31  C   -0.159898
    32  C    0.047359
    33  C   -0.131578
    34  C    0.080138
    35  C    0.127098
    36  C   -0.055589
    37  C    0.145652
    38  C    0.077130
    39  C   -0.113474
    40  C    0.143305
    41  C   -0.013585
    42  C   -0.003601
    43  C   -0.049401
    44  H   -0.012718
    45  H   -0.016591
    46  H    0.032273
    47  H    0.173859
    48  H    0.136147
    49  H   -0.143301
    50  H   -0.017021
    51  H   -0.009763
    52  H    0.003356
    53  H    0.005049
    54  H    0.033626
    55  H    0.011815
    56  H    0.029326
    57  H   -0.044104
    58  H   -0.021336
    59  H    0.048280
    60  H    0.252480
    61  H    0.000676
    62  H   -0.021411
    63  H    0.041859
    64  H    0.089289
    65  H    0.045447
    66  H    0.042327
    67  H    0.070462
    68  H    0.057692
    69  H    0.027670
    70  H    0.043287
    71  H    0.015007
    72  H    0.164639
    73  H   -0.016956
    74  H    0.038810
    75  H    0.078624
    76  H    0.033014
    77  H    0.190853
    78  H   -0.000537
    79  H    0.030758
 Sum of Mulliken charges =  -0.00000

 Dipole moment (field-independent basis, Debye):
    X=              4.6812    Y=              3.2915    Z=             -1.7142  Tot=              5.9737
 Quadrupole moment (field-independent basis, Debye-Ang):
   XX=           -232.4469   YY=           -237.5294   ZZ=           -262.9572
   XY=              1.0081   XZ=            -19.2003   YZ=            -13.9769

 Normal termination of Gaussian 16 at Thu Jul 25 09:20:38 2019.
