 Gaussian 16, Revision A.03,
 Gaussian 16:  ES64L-G16RevA.03 25-Dec-2016

 --------------------------
 # td=(NStates=1) B3LYP/SVP
 --------------------------

 --
 TD
 --
 Symbolic Z-matrix:
 Charge =  0 Multiplicity = 1

                         Standard orientation:
 ---------------------------------------------------------------------
 Center     Atomic      Atomic             Coordinates (Angstroms)
 Number     Number       Type             X           Y           Z
 ---------------------------------------------------------------------
      1          8           0        5.261066   -0.064372   -3.258114
      2          8           0       -3.031853   -2.967847    2.989392
      3          8           0       -3.347929   -0.749462    3.350749
      4          8           0       -1.540283    7.188804    1.508603
      5          8           0       -0.393360    6.921767   -0.397864
      6          8           0       -1.853274   -3.968542   -0.011900
      7          7           0        2.325016    0.872895    0.589263
      8          7           0        4.338084   -0.577068   -1.207098
      9          7           0       -1.910910    0.630958   -0.347966
     10          7           0       -2.692033   -1.852437   -0.559528
     11          6           0        4.834476   -1.222170    0.038829
     12          6           0        4.333015   -0.330393    1.206334
     13          6           0        2.932024   -0.055964    1.358940
     14          6           0        1.990830   -0.624421    2.210090
     15          6           0        0.743945    0.027381    1.891548
     16          6           0        0.979667    0.905341    0.776721
     17          6           0        6.264542   -1.413877   -0.200358
     18          6           0       -0.582734   -0.237740    2.589645
     19          6           0        6.669260   -0.993614   -1.402221
     20          6           0        0.213889    1.944494    0.016503
     21          6           0       -1.089926    1.818444   -0.342753
     22          6           0        5.480067   -0.459994   -2.136008
     23          6           0       -1.837149    2.903200   -0.843713
     24          6           0        2.253191   -1.532133    3.317073
     25          6           0        7.162645   -2.127914    0.900814
     26          6           0       -3.063099    2.312624   -1.464174
     27          6           0       -1.113948   -1.526051    2.594004
     28          6           0       -3.106054    0.902193   -1.083143
     29          6           0       -1.470102    4.341720   -0.912632
     30          6           0        7.912571   -0.931722   -2.067258
     31          6           0       -1.672130    5.044039    0.468267
     32          6           0       -4.234975    3.089428   -2.053531
     33          6           0       -4.030605   -0.062907   -1.512296
     34          6           0       -2.490056   -1.664863    3.047900
     35          6           0       -3.713511   -1.388721   -1.156721
     36          6           0        9.155264   -0.920756   -1.648053
     37          6           0       -1.159005    6.463294    0.412241
     38          6           0       -4.659904   -2.503074   -1.503533
     39          6           0       -4.079533   -3.659757   -1.077947
     40          6           0       -2.782802   -3.232182   -0.446262
     41          6           0       -5.894840   -2.325451   -2.157083
     42          6           0       -4.445636   -5.169104   -1.131312
     43          6           0       -6.868298   -3.386875   -2.381311
     44          1           0        4.317325   -2.034074    0.316667
     45          1           0        4.788345    0.716598    1.004153
     46          1           0        4.915403   -0.717963    2.143501
     47          1           0        2.896539    1.143302   -0.352093
     48          1           0        3.289418   -0.599612   -1.577283
     49          1           0       -0.374525    0.223455    3.597920
     50          1           0       -1.380434    0.606670    2.144112
     51          1           0        0.873581    2.696848   -0.286976
     52          1           0        3.301918   -1.292046    3.752213
     53          1           0        1.498626   -1.316243    4.113355
     54          1           0        2.199105   -2.647197    3.057032
     55          1           0        6.531252   -2.850703    1.538132
     56          1           0        7.595194   -1.257357    1.605669
     57          1           0        8.010136   -2.568147    0.478038
     58          1           0       -1.035773   -2.009812    1.480908
     59          1           0       -0.544449   -2.498904    3.243936
     60          1           0       -1.752656   -0.203580   -0.326503
     61          1           0       -1.718426    4.925157   -1.738940
     62          1           0       -0.339588    4.298977   -1.030933
     63          1           0        7.862130   -0.705024   -3.062044
     64          1           0       -1.001940    4.471812    1.077456
     65          1           0       -2.828975    5.291400    0.563561
     66          1           0       -3.995954    4.404322   -2.157416
     67          1           0       -5.304285    3.046246   -1.242327
     68          1           0       -4.721658    2.486007   -2.829687
     69          1           0       -4.891446    0.212700   -1.924787
     70          1           0        9.264555   -1.225093   -0.430201
     71          1           0        9.994272   -0.636180   -2.372498
     72          1           0       -3.886774   -2.992278    3.849682
     73          1           0       -6.148506   -1.197716   -2.324185
     74          1           0       -4.973299   -5.589171   -0.127684
     75          1           0       -4.627782   -5.413240   -2.163661
     76          1           0       -3.291830   -5.501266   -0.715183
     77          1           0       -1.105390    8.021284    1.165561
     78          1           0       -7.819884   -3.141102   -2.781924
     79          1           0       -6.556746   -4.446157   -2.308785
 ---------------------------------------------------------------------

 SCF Done:  E(RB3LYP) =  -1947.68796864     A.U. after   17 cycles

 Excitation energies and oscillator strengths:

 Excited State   1:      Singlet-A      2.0348 eV  609.31 nm  f=0.4622  <S**2>=0.000
     154 ->156        -0.21512
     155 ->156         0.67052
     155 <-156        -0.10293
 This state for optimization and/or second-order correction.
 Total Energy, E(TD-HF/TD-DFT) =  -1947.61318946
 Copying the excited state density for this state as the 1-particle RhoCI density.

 The electronic state is 1-A.
 Alpha  occ. eigenvalues --  -19.19204 -19.16307 -19.14316 -19.11628 -19.10744
 Alpha  occ. eigenvalues --  -19.10680 -14.38844 -14.35623 -14.35480 -14.28656
 Alpha  occ. eigenvalues --  -10.32958 -10.30814 -10.29858 -10.26564 -10.25257
 Alpha  occ. eigenvalues --  -10.25195 -10.24439 -10.24377 -10.23534 -10.23510
 Alpha  occ. eigenvalues --  -10.23183 -10.22807 -10.22770 -10.22624 -10.22541
 Alpha  occ. eigenvalues --  -10.22419 -10.22371 -10.22150 -10.21819 -10.21569
 Alpha  occ. eigenvalues --  -10.21548 -10.21352 -10.21179 -10.20612 -10.20263
 Alpha  occ. eigenvalues --  -10.20259 -10.20134 -10.20118 -10.19455 -10.19090
 Alpha  occ. eigenvalues --  -10.19076 -10.18754 -10.18634  -1.11188  -1.03527
 Alpha  occ. eigenvalues --   -1.02639  -1.01616  -0.99803  -0.99444  -0.97269
 Alpha  occ. eigenvalues --   -0.93365  -0.93154  -0.93007  -0.83999  -0.83320
 Alpha  occ. eigenvalues --   -0.81986  -0.81554  -0.79941  -0.79729  -0.78694
 Alpha  occ. eigenvalues --   -0.78036  -0.77486  -0.76370  -0.73552  -0.72489
 Alpha  occ. eigenvalues --   -0.71683  -0.70964  -0.69536  -0.68738  -0.68095
 Alpha  occ. eigenvalues --   -0.66500  -0.65828  -0.63801  -0.61639  -0.60481
 Alpha  occ. eigenvalues --   -0.59470  -0.58842  -0.58478  -0.57109  -0.56830
 Alpha  occ. eigenvalues --   -0.55721  -0.55305  -0.53681  -0.53325  -0.52908
 Alpha  occ. eigenvalues --   -0.51948  -0.51646  -0.51598  -0.51258  -0.50191
 Alpha  occ. eigenvalues --   -0.49749  -0.49321  -0.48865  -0.48666  -0.47895
 Alpha  occ. eigenvalues --   -0.47360  -0.46306  -0.46138  -0.45522  -0.44971
 Alpha  occ. eigenvalues --   -0.44868  -0.44309  -0.44018  -0.43982  -0.43672
 Alpha  occ. eigenvalues --   -0.43563  -0.43246  -0.43128  -0.42925  -0.42515
 Alpha  occ. eigenvalues --   -0.42460  -0.41923  -0.41871  -0.41508  -0.41240
 Alpha  occ. eigenvalues --   -0.41168  -0.40745  -0.40636  -0.40187  -0.39906
 Alpha  occ. eigenvalues --   -0.39448  -0.39149  -0.39070  -0.38689  -0.38333
 Alpha  occ. eigenvalues --   -0.38051  -0.37380  -0.37295  -0.37190  -0.36185
 Alpha  occ. eigenvalues --   -0.35981  -0.35580  -0.35481  -0.34791  -0.33820
 Alpha  occ. eigenvalues --   -0.33561  -0.33327  -0.32926  -0.32115  -0.30761
 Alpha  occ. eigenvalues --   -0.30567  -0.29527  -0.28757  -0.28604  -0.27097
 Alpha  occ. eigenvalues --   -0.26317  -0.26034  -0.25714  -0.25292  -0.25194
 Alpha  occ. eigenvalues --   -0.24676  -0.24319  -0.23920  -0.21415  -0.19421
 Alpha virt. eigenvalues --   -0.11353  -0.07483  -0.06867  -0.02273  -0.01694
 Alpha virt. eigenvalues --   -0.01006  -0.00014   0.00483   0.00922   0.01224
 Alpha virt. eigenvalues --    0.02113   0.02419   0.03145   0.03449   0.04298

 Mulliken charges:
               1
     1  O   -0.192490
     2  O   -0.322793
     3  O   -0.296436
     4  O   -0.196548
     5  O   -0.227668
     6  O   -0.250309
     7  N   -0.098045
     8  N   -0.348628
     9  N   -0.002963
    10  N   -0.205593
    11  C    0.193702
    12  C    0.070190
    13  C   -0.065089
    14  C   -0.110129
    15  C   -0.115650
    16  C    0.015852
    17  C   -0.134826
    18  C    0.052203
    19  C   -0.007517
    20  C   -0.114482
    21  C    0.224583
    22  C    0.184213
    23  C   -0.062176
    24  C    0.045411
    25  C    0.049227
    26  C   -0.102820
    27  C   -0.064537
    28  C    0.119371
    29  C    0.060666
    30  C    0.015596
    31  C    0.052743
    32  C   -0.055150
    33  C   -0.043805
    34  C    0.185772
    35  C    0.098369
    36  C   -0.076765
    37  C    0.103883
    38  C    0.029912
    39  C   -0.205241
    40  C    0.179036
    41  C   -0.087315
    42  C   -0.007102
    43  C   -0.008119
    44  H   -0.029537
    45  H   -0.000285
    46  H    0.012280
    47  H    0.163404
    48  H    0.173452
    49  H    0.018599
    50  H    0.057402
    51  H   -0.012246
    52  H    0.021846
    53  H    0.022937
    54  H    0.043876
    55  H    0.046896
    56  H    0.057933
    57  H    0.029806
    58  H    0.122453
    59  H    0.064077
    60  H   -0.001433
    61  H    0.001503
    62  H    0.012051
    63  H   -0.030579
    64  H    0.049110
    65  H    0.069863
    66  H    0.069724
    67  H    0.042981
    68  H    0.042551
    69  H   -0.093558
    70  H    0.030438
    71  H    0.053905
    72  H    0.264796
    73  H    0.011261
    74  H    0.067952
    75  H    0.049916
    76  H    0.055201
    77  H    0.178505
    78  H    0.019589
    79  H    0.034796
 Sum of Mulliken charges =  -0.00000

 Dipole moment (field-independent basis, Debye):
    X=              2.8796    Y=              2.0335    Z=              2.1988  Tot=              4.1548
 Quadrupole moment (field-independent basis, Debye-Ang):
   XX=           -220.2905   YY=           -250.3879   ZZ=           -261.3037
   XY=            -14.9596   XZ=             27.8292   YZ=             -6.3740

 Normal termination of Gaussian 16 at Sun Sep 29 11:10:36 2019.
