 Gaussian 16, Revision A.03,
 Gaussian 16:  ES64L-G16RevA.03 25-Dec-2016

 --------------------------
 # td=(NStates=1) B3LYP/SVP
 --------------------------

 --
 TD
 --
 Symbolic Z-matrix:
 Charge =  0 Multiplicity = 1

                         Standard orientation:
 ---------------------------------------------------------------------
 Center     Atomic      Atomic             Coordinates (Angstroms)
 Number     Number       Type             X           Y           Z
 ---------------------------------------------------------------------
      1          8           0       -3.210815   -1.217120   -2.904206
      2          8           0        3.135101    2.914977    3.415737
      3          8           0        3.524107    1.147175    4.698010
      4          8           0        7.773782   -1.477261   -0.913976
      5          8           0        6.608608   -2.946037   -2.150232
      6          8           0       -2.652652    1.457664    1.468850
      7          7           0       -0.280010   -2.481868    0.759335
      8          7           0       -2.655923   -1.115583   -0.635802
      9          7           0        1.255894    0.181445   -0.635008
     10          7           0       -0.960270    1.441843   -0.143112
     11          6           0       -3.379350   -1.354414    0.647595
     12          6           0       -2.536315   -2.412954    1.513236
     13          6           0       -1.179349   -2.112253    1.707934
     14          6           0       -0.607346   -1.295925    2.769890
     15          6           0        0.758241   -1.246000    2.384065
     16          6           0        0.973619   -1.872055    1.079513
     17          6           0       -4.715862   -1.831698    0.179797
     18          6           0        1.944666   -0.527049    3.216505
     19          6           0       -4.744057   -2.047934   -1.215264
     20          6           0        2.110597   -1.871586    0.146635
     21          6           0        2.130441   -0.860089   -0.777457
     22          6           0       -3.517613   -1.423831   -1.723306
     23          6           0        3.025356   -0.538976   -1.826195
     24          6           0       -1.194140   -0.637645    3.887267
     25          6           0       -5.816913   -2.283317    1.189156
     26          6           0        2.666383    0.675762   -2.426571
     27          6           0        1.925915    0.940949    2.929992
     28          6           0        1.354702    1.021455   -1.656322
     29          6           0        4.216128   -1.369384   -2.210438
     30          6           0       -5.749169   -2.483354   -2.141995
     31          6           0        5.510829   -0.931810   -1.375570
     32          6           0        3.030431    1.269914   -3.705484
     33          6           0        0.447925    2.105103   -1.946279
     34          6           0        2.910765    1.628355    3.787205
     35          6           0       -0.618119    2.372564   -1.141733
     36          6           0       -6.888322   -3.194723   -1.642096
     37          6           0        6.719428   -1.889250   -1.462627
     38          6           0       -1.558927    3.542798   -1.131152
     39          6           0       -2.356511    3.389427   -0.020421
     40          6           0       -2.013181    2.065274    0.537836
     41          6           0       -1.433836    4.666498   -2.054472
     42          6           0       -3.443089    4.230591    0.341628
     43          6           0       -2.005203    5.849745   -2.150415
     44          1           0       -3.334279   -0.284986    1.175697
     45          1           0       -2.709129   -3.434954    0.927323
     46          1           0       -2.933933   -2.494307    2.413985
     47          1           0       -0.587595   -3.224205   -0.049816
     48          1           0       -1.978959   -0.362575   -0.696175
     49          1           0        1.865040   -0.819039    4.325188
     50          1           0        2.955885   -1.070698    2.719160
     51          1           0        2.830275   -2.413327    0.171748
     52          1           0       -2.062930   -1.302743    4.431030
     53          1           0       -0.414979   -0.233557    4.331778
     54          1           0       -1.773456    0.141423    3.367407
     55          1           0       -5.617171   -1.744010    2.130066
     56          1           0       -5.976747   -3.269892    1.509843
     57          1           0       -6.802874   -1.932072    0.503872
     58          1           0        1.912755    1.331432    1.894899
     59          1           0        0.864920    1.269286    2.992468
     60          1           0        0.178982    0.449551   -0.349959
     61          1           0        4.620038   -1.498413   -3.221404
     62          1           0        4.167975   -2.499612   -1.813137
     63          1           0       -5.611440   -2.328071   -3.267002
     64          1           0        4.934636   -0.938022   -0.341561
     65          1           0        5.749220    0.234674   -1.243788
     66          1           0        4.203653    1.001131   -4.032658
     67          1           0        3.000414    2.445970   -3.736689
     68          1           0        2.194494    0.980026   -4.529827
     69          1           0        0.761285    2.776325   -2.658874
     70          1           0       -6.977808   -3.616133   -0.655656
     71          1           0       -7.762640   -3.572298   -2.312006
     72          1           0        3.615168    3.278170    4.155395
     73          1           0       -0.690232    4.496085   -2.927979
     74          1           0       -4.213339    4.357465   -0.401582
     75          1           0       -3.737861    3.633584    1.377739
     76          1           0       -3.376024    5.213400    0.762291
     77          1           0        8.703899   -1.772062   -1.099072
     78          1           0       -1.963160    6.431980   -3.107275
     79          1           0       -2.785709    6.109303   -1.339524
 ---------------------------------------------------------------------

 SCF Done:  E(RB3LYP) =  -1947.75033122     A.U. after   22 cycles

 Excitation energies and oscillator strengths:

 Excited State   1:      Singlet-A      0.6806 eV 1821.77 nm  f=0.0013  <S**2>=0.000
     155 ->156         0.70264
 This state for optimization and/or second-order correction.
 Total Energy, E(TD-HF/TD-DFT) =  -1947.72532077
 Copying the excited state density for this state as the 1-particle RhoCI density.

 The electronic state is 1-A.
 Alpha  occ. eigenvalues --  -19.21098 -19.17093 -19.12233 -19.12132 -19.11865
 Alpha  occ. eigenvalues --  -19.07140 -14.37526 -14.36917 -14.32204 -14.31376
 Alpha  occ. eigenvalues --  -10.33978 -10.31153 -10.29039 -10.27219 -10.25620
 Alpha  occ. eigenvalues --  -10.25464 -10.25301 -10.24297 -10.23501 -10.23364
 Alpha  occ. eigenvalues --  -10.23099 -10.22616 -10.22283 -10.21782 -10.21734
 Alpha  occ. eigenvalues --  -10.21726 -10.21594 -10.21294 -10.21267 -10.21094
 Alpha  occ. eigenvalues --  -10.20996 -10.20686 -10.20495 -10.19973 -10.19962
 Alpha  occ. eigenvalues --  -10.19761 -10.19627 -10.19436 -10.18619 -10.18304
 Alpha  occ. eigenvalues --  -10.18139 -10.17213 -10.16791  -1.12998  -1.09737
 Alpha  occ. eigenvalues --   -1.01088  -1.00409  -1.00318  -0.99166  -0.98467
 Alpha  occ. eigenvalues --   -0.94770  -0.92892  -0.89451  -0.84263  -0.82498
 Alpha  occ. eigenvalues --   -0.82209  -0.80170  -0.79299  -0.79049  -0.78021
 Alpha  occ. eigenvalues --   -0.77446  -0.76878  -0.76103  -0.73561  -0.72793
 Alpha  occ. eigenvalues --   -0.71666  -0.70200  -0.69713  -0.69012  -0.67442
 Alpha  occ. eigenvalues --   -0.65871  -0.65312  -0.64128  -0.63186  -0.61725
 Alpha  occ. eigenvalues --   -0.59960  -0.58951  -0.58386  -0.57112  -0.56299
 Alpha  occ. eigenvalues --   -0.55985  -0.54713  -0.54191  -0.53541  -0.52785
 Alpha  occ. eigenvalues --   -0.52049  -0.51425  -0.51149  -0.50490  -0.49667
 Alpha  occ. eigenvalues --   -0.48963  -0.48850  -0.48230  -0.47960  -0.47397
 Alpha  occ. eigenvalues --   -0.47163  -0.47061  -0.46626  -0.46232  -0.45685
 Alpha  occ. eigenvalues --   -0.45250  -0.45089  -0.44880  -0.44552  -0.44440
 Alpha  occ. eigenvalues --   -0.44011  -0.43113  -0.42250  -0.42206  -0.41632
 Alpha  occ. eigenvalues --   -0.41388  -0.41163  -0.40862  -0.40753  -0.40606
 Alpha  occ. eigenvalues --   -0.40442  -0.40135  -0.40089  -0.39804  -0.39051
 Alpha  occ. eigenvalues --   -0.38707  -0.38354  -0.38231  -0.37631  -0.37530
 Alpha  occ. eigenvalues --   -0.37177  -0.37017  -0.36383  -0.36092  -0.35927
 Alpha  occ. eigenvalues --   -0.35359  -0.34904  -0.34176  -0.33722  -0.33549
 Alpha  occ. eigenvalues --   -0.33248  -0.32627  -0.32256  -0.32022  -0.31984
 Alpha  occ. eigenvalues --   -0.30740  -0.30156  -0.29198  -0.29036  -0.28172
 Alpha  occ. eigenvalues --   -0.28017  -0.26789  -0.26451  -0.24696  -0.23540
 Alpha  occ. eigenvalues --   -0.22882  -0.22578  -0.22125  -0.21592  -0.17973
 Alpha virt. eigenvalues --   -0.12891  -0.08533  -0.05224  -0.02425  -0.02002
 Alpha virt. eigenvalues --    0.00413   0.00968   0.01554   0.01839   0.02113
 Alpha virt. eigenvalues --    0.02872   0.03749   0.04109   0.04995   0.05714

 Mulliken charges:
               1
     1  O   -0.267482
     2  O   -0.179605
     3  O   -0.214977
     4  O   -0.119052
     5  O   -0.286514
     6  O   -0.283577
     7  N   -0.127902
     8  N   -0.246992
     9  N   -0.080983
    10  N   -0.368177
    11  C    0.023203
    12  C    0.248720
    13  C   -0.109147
    14  C   -0.126869
    15  C   -0.138779
    16  C    0.051019
    17  C   -0.136000
    18  C    0.030025
    19  C   -0.021586
    20  C    0.049035
    21  C    0.120580
    22  C    0.137511
    23  C   -0.029085
    24  C    0.170551
    25  C    0.017024
    26  C   -0.070541
    27  C   -0.000046
    28  C   -0.004025
    29  C    0.037599
    30  C   -0.029561
    31  C   -0.137772
    32  C   -0.044822
    33  C   -0.016937
    34  C    0.144997
    35  C    0.128556
    36  C   -0.082435
    37  C    0.181025
    38  C    0.115015
    39  C   -0.137653
    40  C    0.221367
    41  C   -0.055223
    42  C    0.005924
    43  C   -0.055467
    44  H    0.096437
    45  H   -0.018168
    46  H   -0.071624
    47  H    0.178284
    48  H    0.133409
    49  H    0.055890
    50  H    0.020563
    51  H   -0.140879
    52  H    0.027386
    53  H   -0.040796
    54  H    0.034565
    55  H    0.017436
    56  H    0.032656
    57  H    0.062243
    58  H    0.020437
    59  H    0.037869
    60  H    0.249154
    61  H    0.032864
    62  H    0.050253
    63  H    0.042988
    64  H    0.046624
    65  H    0.044760
    66  H    0.062679
    67  H    0.046318
    68  H    0.079664
    69  H   -0.065696
    70  H    0.025142
    71  H    0.034710
    72  H    0.162413
    73  H    0.011669
    74  H    0.043950
    75  H    0.048727
    76  H    0.031006
    77  H    0.223217
    78  H    0.045745
    79  H    0.027163
 Sum of Mulliken charges =  -0.00000

 Dipole moment (field-independent basis, Debye):
    X=              4.5618    Y=              3.9446    Z=             -1.2535  Tot=              6.1597
 Quadrupole moment (field-independent basis, Debye-Ang):
   XX=           -219.5585   YY=           -236.6406   ZZ=           -268.7705
   XY=              6.4222   XZ=            -21.1529   YZ=            -14.3324

 Normal termination of Gaussian 16 at Sat Jul 27 13:27:23 2019.
