 Gaussian 16, Revision A.03,
 Gaussian 16:  ES64L-G16RevA.03 25-Dec-2016

 --------------------------
 # td=(NStates=1) B3LYP/SVP
 --------------------------

 --
 TD
 --
 Symbolic Z-matrix:
 Charge =  0 Multiplicity = 1

                         Standard orientation:
 ---------------------------------------------------------------------
 Center     Atomic      Atomic             Coordinates (Angstroms)
 Number     Number       Type             X           Y           Z
 ---------------------------------------------------------------------
      1          8           0        5.061173   -0.126492   -3.264748
      2          8           0       -3.007818   -2.842834    3.516069
      3          8           0       -3.341141   -0.726227    3.296774
      4          8           0       -1.910953    7.107632    1.573630
      5          8           0       -0.855400    7.164056   -0.502296
      6          8           0       -1.612676   -3.946521    0.127868
      7          7           0        2.444029    1.045339    0.654690
      8          7           0        4.301456   -0.743782   -1.213023
      9          7           0       -1.814113    0.751241   -0.395173
     10          7           0       -2.525652   -1.901174   -0.552561
     11          6           0        4.709718   -1.184182    0.009707
     12          6           0        4.345061   -0.242991    1.282490
     13          6           0        2.961459    0.019134    1.429578
     14          6           0        1.987730   -0.632167    2.217155
     15          6           0        0.664301    0.003748    1.909938
     16          6           0        1.049586    0.977308    0.836777
     17          6           0        6.234210   -1.281590   -0.118579
     18          6           0       -0.642946   -0.179228    2.516397
     19          6           0        6.534685   -0.897545   -1.336882
     20          6           0        0.166867    2.033517    0.175296
     21          6           0       -1.080070    1.840143   -0.372292
     22          6           0        5.275505   -0.567958   -2.159621
     23          6           0       -1.903063    2.829716   -0.986516
     24          6           0        2.205384   -1.702899    3.201592
     25          6           0        7.117839   -1.817164    0.857152
     26          6           0       -3.015014    2.295582   -1.379654
     27          6           0       -1.219909   -1.563003    2.704723
     28          6           0       -3.015580    0.857139   -1.124026
     29          6           0       -1.529414    4.324138   -1.066617
     30          6           0        7.847759   -0.598105   -2.087282
     31          6           0       -1.849138    5.108455    0.324180
     32          6           0       -4.164095    2.869674   -2.194145
     33          6           0       -3.817288   -0.181065   -1.424601
     34          6           0       -2.593786   -1.657334    3.105735
     35          6           0       -3.569509   -1.520080   -1.236531
     36          6           0        9.083989   -0.563105   -1.595097
     37          6           0       -1.466443    6.515955    0.396566
     38          6           0       -4.415695   -2.732542   -1.542800
     39          6           0       -3.706857   -3.805781   -1.089643
     40          6           0       -2.520901   -3.363604   -0.470202
     41          6           0       -5.710416   -2.623415   -2.324442
     42          6           0       -3.975972   -5.306242   -1.174076
     43          6           0       -6.610601   -3.622741   -2.530838
     44          1           0        4.426720   -2.339682    0.366327
     45          1           0        4.984935    0.693429    1.186813
     46          1           0        4.758452   -0.798942    2.218777
     47          1           0        2.866739    1.511830   -0.171986
     48          1           0        3.213048   -0.881296   -1.538434
     49          1           0       -0.761280    0.382501    3.513122
     50          1           0       -1.375694    0.454274    1.929659
     51          1           0        0.649425    2.967893    0.122449
     52          1           0        3.310452   -1.897438    3.481112
     53          1           0        1.841157   -0.986035    4.110730
     54          1           0        1.480360   -2.727160    3.091489
     55          1           0        6.506153   -2.461408    1.420783
     56          1           0        7.562253   -1.153820    1.518023
     57          1           0        7.926390   -2.432350    0.524444
     58          1           0       -1.187383   -1.845461    1.607290
     59          1           0       -0.572615   -2.131962    3.343395
     60          1           0       -1.429911   -0.239840   -0.297642
     61          1           0       -2.225967    4.921771   -1.557989
     62          1           0       -0.390730    4.530340   -1.492888
     63          1           0        7.801558   -0.188716   -3.219726
     64          1           0       -1.279679    4.284223    1.086718
     65          1           0       -2.932794    4.928295    0.453807
     66          1           0       -3.860727    3.947940   -2.439871
     67          1           0       -5.329915    2.817314   -1.763832
     68          1           0       -4.245723    2.269910   -3.228851
     69          1           0       -4.726595   -0.124469   -2.221057
     70          1           0        9.197181   -0.893668   -0.454190
     71          1           0        9.876781   -0.273187   -2.197181
     72          1           0       -3.957729   -2.813039    3.875518
     73          1           0       -5.922495   -1.483634   -2.603622
     74          1           0       -4.740281   -5.523641   -0.321313
     75          1           0       -4.471893   -5.544244   -2.107843
     76          1           0       -3.047666   -5.890799   -0.859713
     77          1           0       -1.553065    8.007576    1.639875
     78          1           0       -7.582498   -3.417133   -2.813408
     79          1           0       -6.576869   -4.558253   -2.157343
 ---------------------------------------------------------------------

 SCF Done:  E(RB3LYP) =  -1947.82194590     A.U. after   17 cycles

 Excitation energies and oscillator strengths:

 Excited State   1:      Singlet-A      1.8176 eV  682.11 nm  f=0.3242  <S**2>=0.000
     155 ->156         0.70257
     155 <-156        -0.10141
 This state for optimization and/or second-order correction.
 Total Energy, E(TD-HF/TD-DFT) =  -1947.75514854
 Copying the excited state density for this state as the 1-particle RhoCI density.

 The electronic state is 1-A.
 Alpha  occ. eigenvalues --  -19.18752 -19.16357 -19.13658 -19.11793 -19.10639
 Alpha  occ. eigenvalues --  -19.09677 -14.38647 -14.36381 -14.36288 -14.28974
 Alpha  occ. eigenvalues --  -10.33638 -10.29666 -10.28753 -10.27006 -10.25698
 Alpha  occ. eigenvalues --  -10.24930 -10.24023 -10.23729 -10.23031 -10.22993
 Alpha  occ. eigenvalues --  -10.22932 -10.22546 -10.22407 -10.22255 -10.21977
 Alpha  occ. eigenvalues --  -10.21967 -10.21754 -10.21645 -10.21132 -10.20832
 Alpha  occ. eigenvalues --  -10.20678 -10.20597 -10.20564 -10.20298 -10.20242
 Alpha  occ. eigenvalues --  -10.20200 -10.20134 -10.20019 -10.19598 -10.19361
 Alpha  occ. eigenvalues --  -10.19200 -10.19189 -10.18363  -1.08602  -1.08060
 Alpha  occ. eigenvalues --   -1.03439  -1.01656  -0.99908  -0.99162  -0.97615
 Alpha  occ. eigenvalues --   -0.97203  -0.95609  -0.92830  -0.82790  -0.82736
 Alpha  occ. eigenvalues --   -0.82037  -0.81241  -0.80287  -0.79523  -0.77995
 Alpha  occ. eigenvalues --   -0.77237  -0.76917  -0.76161  -0.74758  -0.72393
 Alpha  occ. eigenvalues --   -0.71921  -0.70575  -0.69880  -0.68697  -0.68280
 Alpha  occ. eigenvalues --   -0.67333  -0.66923  -0.64030  -0.61608  -0.59892
 Alpha  occ. eigenvalues --   -0.59834  -0.59470  -0.58644  -0.57751  -0.56741
 Alpha  occ. eigenvalues --   -0.55966  -0.55378  -0.55096  -0.54257  -0.53560
 Alpha  occ. eigenvalues --   -0.52503  -0.51061  -0.50919  -0.50364  -0.50035
 Alpha  occ. eigenvalues --   -0.49020  -0.48448  -0.48257  -0.47761  -0.47646
 Alpha  occ. eigenvalues --   -0.47344  -0.47043  -0.46502  -0.46172  -0.45631
 Alpha  occ. eigenvalues --   -0.45188  -0.45041  -0.44936  -0.44804  -0.44018
 Alpha  occ. eigenvalues --   -0.43943  -0.43550  -0.42923  -0.42821  -0.42287
 Alpha  occ. eigenvalues --   -0.42092  -0.41778  -0.41454  -0.41145  -0.40692
 Alpha  occ. eigenvalues --   -0.40413  -0.40132  -0.39917  -0.39632  -0.39410
 Alpha  occ. eigenvalues --   -0.39105  -0.38850  -0.38573  -0.38536  -0.37963
 Alpha  occ. eigenvalues --   -0.37720  -0.37478  -0.37421  -0.36926  -0.36784
 Alpha  occ. eigenvalues --   -0.36229  -0.36131  -0.35379  -0.35186  -0.33504
 Alpha  occ. eigenvalues --   -0.33076  -0.33037  -0.32335  -0.32077  -0.31770
 Alpha  occ. eigenvalues --   -0.31665  -0.29908  -0.28907  -0.28620  -0.27605
 Alpha  occ. eigenvalues --   -0.26952  -0.26692  -0.26177  -0.25632  -0.24779
 Alpha  occ. eigenvalues --   -0.24623  -0.24222  -0.23535  -0.22599  -0.18989
 Alpha virt. eigenvalues --   -0.11629  -0.06950  -0.05064  -0.03125  -0.01300
 Alpha virt. eigenvalues --    0.00438   0.01383   0.02030   0.02257   0.02752
 Alpha virt. eigenvalues --    0.03001   0.03947   0.04245   0.04457   0.04904

 Mulliken charges:
               1
     1  O   -0.202130
     2  O   -0.191474
     3  O   -0.247490
     4  O   -0.207547
     5  O   -0.264314
     6  O   -0.196832
     7  N   -0.105057
     8  N   -0.180032
     9  N   -0.076409
    10  N   -0.304570
    11  C    0.014943
    12  C    0.104591
    13  C   -0.012267
    14  C   -0.096544
    15  C   -0.056330
    16  C    0.008052
    17  C   -0.192460
    18  C    0.019223
    19  C   -0.065306
    20  C   -0.098486
    21  C    0.091367
    22  C    0.145436
    23  C   -0.080523
    24  C   -0.052570
    25  C    0.175490
    26  C   -0.053921
    27  C    0.041297
    28  C    0.136048
    29  C    0.058574
    30  C   -0.042399
    31  C   -0.093662
    32  C   -0.020603
    33  C   -0.101959
    34  C    0.092767
    35  C    0.002290
    36  C   -0.025531
    37  C    0.212191
    38  C    0.043158
    39  C   -0.200449
    40  C    0.159836
    41  C   -0.037602
    42  C    0.078219
    43  C    0.041546
    44  H    0.035112
    45  H    0.002351
    46  H    0.003368
    47  H    0.144463
    48  H    0.179165
    49  H    0.013352
    50  H    0.015647
    51  H   -0.019141
    52  H    0.021972
    53  H    0.051605
    54  H    0.092800
    55  H   -0.014753
    56  H    0.011659
    57  H    0.022251
    58  H    0.083337
    59  H    0.019590
    60  H    0.168555
    61  H   -0.010820
    62  H    0.064076
    63  H    0.044907
    64  H    0.084611
    65  H    0.055207
    66  H    0.029310
    67  H    0.059160
    68  H    0.048192
    69  H    0.012262
    70  H    0.022202
    71  H    0.008272
    72  H    0.203465
    73  H    0.030298
    74  H    0.036759
    75  H    0.030257
    76  H    0.048378
    77  H    0.187779
    78  H    0.008141
    79  H   -0.012353
 Sum of Mulliken charges =  -0.00000

 Dipole moment (field-independent basis, Debye):
    X=             -0.5330    Y=              0.0412    Z=              2.3052  Tot=              2.3664
 Quadrupole moment (field-independent basis, Debye-Ang):
   XX=           -216.8803   YY=           -249.9261   ZZ=           -263.3605
   XY=              0.5405   XZ=             31.9120   YZ=              5.0794

 Normal termination of Gaussian 16 at Thu Sep 12 14:11:49 2019.
