 Gaussian 16, Revision A.03,
 Gaussian 16:  ES64L-G16RevA.03 25-Dec-2016

 --------------------------
 # td=(NStates=1) B3LYP/SVP
 --------------------------

 --
 TD
 --
 Symbolic Z-matrix:
 Charge =  0 Multiplicity = 1

                         Standard orientation:
 ---------------------------------------------------------------------
 Center     Atomic      Atomic             Coordinates (Angstroms)
 Number     Number       Type             X           Y           Z
 ---------------------------------------------------------------------
      1          8           0       -3.352323   -0.823334   -2.910431
      2          8           0        3.446731    2.543496    3.445946
      3          8           0        3.659796    0.686968    4.851947
      4          8           0        7.835805   -1.277889   -1.157740
      5          8           0        6.634688   -2.771883   -2.499035
      6          8           0       -2.710933    1.492460    1.598615
      7          7           0       -0.304962   -2.553950    0.598554
      8          7           0       -2.761748   -1.102985   -0.797654
      9          7           0        1.116238    0.080520   -0.784160
     10          7           0       -0.984060    1.456686    0.104519
     11          6           0       -3.335017   -1.483565    0.511894
     12          6           0       -2.587923   -2.539592    1.370349
     13          6           0       -1.148224   -2.339373    1.553297
     14          6           0       -0.504933   -1.642419    2.607821
     15          6           0        0.845871   -1.519665    2.307407
     16          6           0        0.962431   -2.017240    0.962315
     17          6           0       -4.757949   -1.895540    0.045869
     18          6           0        1.898464   -0.825418    3.108548
     19          6           0       -4.822215   -1.834045   -1.378781
     20          6           0        2.071875   -1.989481   -0.019349
     21          6           0        2.105164   -0.900118   -0.806111
     22          6           0       -3.608521   -1.240079   -1.826998
     23          6           0        3.039676   -0.345278   -1.887841
     24          6           0       -1.313385   -1.107410    3.844645
     25          6           0       -5.773189   -2.343617    0.932845
     26          6           0        2.444356    0.815114   -2.414654
     27          6           0        1.935075    0.668463    2.987481
     28          6           0        1.232255    1.057136   -1.694764
     29          6           0        4.207875   -1.122042   -2.207818
     30          6           0       -5.900204   -2.113434   -2.256698
     31          6           0        5.495945   -0.692016   -1.489948
     32          6           0        3.073568    1.679109   -3.466873
     33          6           0        0.464609    2.241195   -1.657239
     34          6           0        3.077798    1.215667    3.898124
     35          6           0       -0.594624    2.409967   -0.826313
     36          6           0       -6.948942   -2.856826   -2.042903
     37          6           0        6.641726   -1.703465   -1.837527
     38          6           0       -1.422786    3.671877   -0.721552
     39          6           0       -2.313901    3.414129    0.294337
     40          6           0       -2.060253    2.052657    0.744323
     41          6           0       -1.259254    4.825970   -1.687951
     42          6           0       -3.394406    4.367485    0.788543
     43          6           0       -2.088248    5.865716   -1.647747
     44          1           0       -3.426628   -0.528456    1.253086
     45          1           0       -2.607763   -3.477420    0.965435
     46          1           0       -3.096151   -2.549693    2.236606
     47          1           0       -0.486918   -2.859874   -0.273899
     48          1           0       -1.904361   -0.403673   -0.869978
     49          1           0        1.998200   -1.345832    4.102842
     50          1           0        2.795706   -1.143536    2.804806
     51          1           0        2.733791   -2.910108   -0.039005
     52          1           0       -2.121690   -1.718784    4.370679
     53          1           0       -0.528177   -0.880098    4.562371
     54          1           0       -1.730157    0.022918    3.586031
     55          1           0       -5.765005   -1.873267    1.842250
     56          1           0       -5.791235   -3.390405    1.141612
     57          1           0       -6.742921   -1.952252    0.501664
     58          1           0        2.053199    0.673490    1.782410
     59          1           0        0.951608    1.061308    3.286738
     60          1           0        0.393442    0.205738    0.019540
     61          1           0        4.349193   -1.051098   -3.328213
     62          1           0        4.053115   -2.296189   -2.038487
     63          1           0       -5.484739   -1.724021   -3.213298
     64          1           0        5.161778   -0.752588   -0.334487
     65          1           0        5.673459    0.407257   -1.753691
     66          1           0        4.043706    1.256302   -3.832010
     67          1           0        3.446710    2.593955   -2.918351
     68          1           0        2.501392    1.832155   -4.242502
     69          1           0        0.860839    2.870229   -2.373753
     70          1           0       -7.213705   -3.591579   -1.196075
     71          1           0       -7.695493   -3.073675   -2.704274
     72          1           0        3.952960    3.092406    4.260494
     73          1           0       -0.603656    4.779690   -2.419702
     74          1           0       -4.031194    4.439404   -0.056337
     75          1           0       -3.870148    3.785655    1.486518
     76          1           0       -3.008370    5.323198    1.253671
     77          1           0        8.515149   -1.857509   -1.193883
     78          1           0       -2.040190    6.453478   -2.622677
     79          1           0       -2.880396    5.979250   -1.049725
 ---------------------------------------------------------------------

 SCF Done:  E(RB3LYP) =  -1947.82935790     A.U. after   21 cycles

 Excitation energies and oscillator strengths:

 Excited State   1:      Singlet-A      1.0624 eV 1167.04 nm  f=0.0014  <S**2>=0.000
     155 ->156         0.70406
 This state for optimization and/or second-order correction.
 Total Energy, E(TD-HF/TD-DFT) =  -1947.79031606
 Copying the excited state density for this state as the 1-particle RhoCI density.

 The electronic state is 1-A.
 Alpha  occ. eigenvalues --  -19.17935 -19.17449 -19.15844 -19.14272 -19.11080
 Alpha  occ. eigenvalues --  -19.06751 -14.37580 -14.36979 -14.32242 -14.30450
 Alpha  occ. eigenvalues --  -10.35607 -10.33359 -10.27021 -10.26521 -10.25935
 Alpha  occ. eigenvalues --  -10.25130 -10.24590 -10.24561 -10.23450 -10.23249
 Alpha  occ. eigenvalues --  -10.23168 -10.22665 -10.22655 -10.22050 -10.21370
 Alpha  occ. eigenvalues --  -10.21288 -10.21259 -10.20496 -10.20342 -10.20298
 Alpha  occ. eigenvalues --  -10.19927 -10.19708 -10.19525 -10.18926 -10.18849
 Alpha  occ. eigenvalues --  -10.18126 -10.17978 -10.17966 -10.17789 -10.17747
 Alpha  occ. eigenvalues --  -10.17486 -10.17322 -10.16773  -1.08277  -1.05532
 Alpha  occ. eigenvalues --   -1.02999  -1.01666  -1.00937  -1.00043  -0.98596
 Alpha  occ. eigenvalues --   -0.97509  -0.92398  -0.90649  -0.84226  -0.83526
 Alpha  occ. eigenvalues --   -0.81551  -0.81296  -0.80529  -0.79306  -0.78934
 Alpha  occ. eigenvalues --   -0.77538  -0.76626  -0.76420  -0.75386  -0.73763
 Alpha  occ. eigenvalues --   -0.70964  -0.70341  -0.70167  -0.69247  -0.67375
 Alpha  occ. eigenvalues --   -0.66854  -0.65898  -0.63497  -0.61969  -0.61157
 Alpha  occ. eigenvalues --   -0.60267  -0.59835  -0.58215  -0.57264  -0.57065
 Alpha  occ. eigenvalues --   -0.56775  -0.55610  -0.55157  -0.54265  -0.53523
 Alpha  occ. eigenvalues --   -0.51864  -0.51791  -0.50669  -0.50249  -0.49400
 Alpha  occ. eigenvalues --   -0.49060  -0.48760  -0.48302  -0.48159  -0.47989
 Alpha  occ. eigenvalues --   -0.47360  -0.46999  -0.46729  -0.46461  -0.45920
 Alpha  occ. eigenvalues --   -0.45673  -0.45160  -0.44618  -0.44330  -0.44227
 Alpha  occ. eigenvalues --   -0.43931  -0.43280  -0.43109  -0.42624  -0.42354
 Alpha  occ. eigenvalues --   -0.42124  -0.41864  -0.41649  -0.41400  -0.41305
 Alpha  occ. eigenvalues --   -0.41000  -0.40713  -0.40408  -0.40054  -0.39937
 Alpha  occ. eigenvalues --   -0.39422  -0.39077  -0.38909  -0.38799  -0.38240
 Alpha  occ. eigenvalues --   -0.37688  -0.37382  -0.36911  -0.36622  -0.36394
 Alpha  occ. eigenvalues --   -0.36291  -0.35645  -0.35536  -0.35104  -0.34701
 Alpha  occ. eigenvalues --   -0.33475  -0.33393  -0.32565  -0.31933  -0.31499
 Alpha  occ. eigenvalues --   -0.31055  -0.30405  -0.29921  -0.29282  -0.28972
 Alpha  occ. eigenvalues --   -0.28723  -0.27127  -0.25540  -0.24330  -0.24039
 Alpha  occ. eigenvalues --   -0.23684  -0.23170  -0.22281  -0.21582  -0.19006
 Alpha virt. eigenvalues --   -0.12496  -0.07174  -0.04533  -0.04364  -0.02284
 Alpha virt. eigenvalues --   -0.01273   0.01504   0.01651   0.02512   0.03546
 Alpha virt. eigenvalues --    0.03806   0.04199   0.04604   0.05297   0.06259

 Mulliken charges:
               1
     1  O   -0.223790
     2  O   -0.322252
     3  O   -0.220486
     4  O   -0.205865
     5  O   -0.234014
     6  O   -0.200758
     7  N    0.046395
     8  N   -0.231116
     9  N   -0.123910
    10  N   -0.326938
    11  C    0.042513
    12  C    0.371948
    13  C   -0.160742
    14  C   -0.126240
    15  C   -0.100365
    16  C   -0.103536
    17  C   -0.197141
    18  C    0.144447
    19  C   -0.093150
    20  C   -0.160511
    21  C    0.187615
    22  C    0.101659
    23  C   -0.038771
    24  C    0.012849
    25  C    0.146388
    26  C   -0.161322
    27  C   -0.015425
    28  C    0.089569
    29  C   -0.018139
    30  C    0.050756
    31  C   -0.051890
    32  C    0.164990
    33  C   -0.090004
    34  C    0.211326
    35  C    0.172538
    36  C   -0.046542
    37  C    0.224673
    38  C    0.050613
    39  C   -0.259015
    40  C    0.164188
    41  C    0.057117
    42  C    0.171480
    43  C    0.039256
    44  H    0.083802
    45  H   -0.062930
    46  H   -0.066122
    47  H    0.069775
    48  H    0.164600
    49  H    0.014769
    50  H   -0.067575
    51  H    0.041678
    52  H    0.033889
    53  H   -0.004769
    54  H    0.056862
    55  H   -0.024243
    56  H    0.028861
    57  H    0.032088
    58  H    0.066538
    59  H    0.058994
    60  H    0.223635
    61  H    0.030619
    62  H    0.055917
    63  H    0.012146
    64  H    0.079022
    65  H    0.064117
    66  H    0.010306
    67  H    0.041722
    68  H    0.001573
    69  H   -0.065011
    70  H    0.021957
    71  H   -0.014804
    72  H    0.233237
    73  H   -0.072075
    74  H    0.028863
    75  H   -0.016924
    76  H    0.051503
    77  H    0.145167
    78  H    0.029739
    79  H   -0.025322
 Sum of Mulliken charges =  -0.00000

 Dipole moment (field-independent basis, Debye):
    X=              3.6758    Y=              2.5194    Z=             -0.6510  Tot=              4.5036
 Quadrupole moment (field-independent basis, Debye-Ang):
   XX=           -239.0383   YY=           -232.8968   ZZ=           -268.1786
   XY=              9.3199   XZ=            -21.4237   YZ=             -9.7131

 Normal termination of Gaussian 16 at Mon Jul 29 01:11:04 2019.
