 Gaussian 16, Revision A.03,
 Gaussian 16:  ES64L-G16RevA.03 25-Dec-2016

 --------------------------
 # td=(NStates=1) B3LYP/SVP
 --------------------------

 --
 TD
 --
 Symbolic Z-matrix:
 Charge =  0 Multiplicity = 1

                         Standard orientation:
 ---------------------------------------------------------------------
 Center     Atomic      Atomic             Coordinates (Angstroms)
 Number     Number       Type             X           Y           Z
 ---------------------------------------------------------------------
      1          8           0       -3.454930   -1.295411   -2.931813
      2          8           0        3.140373    2.934685    3.099887
      3          8           0        3.860435    1.168312    4.252090
      4          8           0        7.739587   -1.738305   -0.782215
      5          8           0        6.707695   -3.094556   -2.091243
      6          8           0       -2.793744    1.511154    1.295080
      7          7           0       -0.413337   -2.426212    0.842405
      8          7           0       -2.763943   -1.256476   -0.708790
      9          7           0        1.101201   -0.020202   -0.774273
     10          7           0       -0.969575    1.461390   -0.221032
     11          6           0       -3.453934   -1.388354    0.615531
     12          6           0       -2.704257   -2.356205    1.583061
     13          6           0       -1.292055   -2.071083    1.783155
     14          6           0       -0.551916   -1.299619    2.794592
     15          6           0        0.783417   -1.263316    2.395575
     16          6           0        0.876519   -1.940832    1.160324
     17          6           0       -4.802362   -1.826675    0.171718
     18          6           0        1.934860   -0.473915    3.030073
     19          6           0       -5.024349   -2.022843   -1.103250
     20          6           0        2.002145   -1.921465    0.150652
     21          6           0        2.074630   -0.930105   -0.744180
     22          6           0       -3.670990   -1.465274   -1.777557
     23          6           0        3.009314   -0.538407   -1.728021
     24          6           0       -1.286545   -0.577442    3.881385
     25          6           0       -5.837923   -2.109471    1.200399
     26          6           0        2.560017    0.618860   -2.397224
     27          6           0        2.100632    1.012489    2.586281
     28          6           0        1.354756    0.866017   -1.791674
     29          6           0        4.247481   -1.368326   -2.048372
     30          6           0       -5.966184   -2.335585   -1.916187
     31          6           0        5.472582   -1.199251   -1.035377
     32          6           0        3.086731    1.324815   -3.541293
     33          6           0        0.530718    2.074897   -1.965245
     34          6           0        3.077311    1.711203    3.384946
     35          6           0       -0.453093    2.383006   -1.135775
     36          6           0       -7.140254   -3.035638   -1.614318
     37          6           0        6.664568   -2.143351   -1.358903
     38          6           0       -1.290083    3.589332   -1.001710
     39          6           0       -2.292590    3.455600   -0.098812
     40          6           0       -2.049632    2.082744    0.475673
     41          6           0       -1.041242    4.783021   -1.860463
     42          6           0       -3.163075    4.419739    0.455332
     43          6           0       -1.634238    5.901022   -1.919635
     44          1           0       -3.571989   -0.417673    0.996228
     45          1           0       -2.735373   -3.407958    1.188586
     46          1           0       -3.321550   -2.466090    2.498235
     47          1           0       -0.600280   -2.923275   -0.199270
     48          1           0       -2.214966   -0.361008   -0.625752
     49          1           0        1.985721   -0.356277    4.060945
     50          1           0        2.822059   -1.065376    2.857850
     51          1           0        2.856447   -2.538625    0.208326
     52          1           0       -1.958006   -1.150701    4.346158
     53          1           0       -0.613874   -0.127132    4.616945
     54          1           0       -1.594999    0.352462    3.368718
     55          1           0       -6.019226   -1.329514    2.149865
     56          1           0       -5.900813   -3.173088    1.682889
     57          1           0       -6.877634   -1.811762    0.669906
     58          1           0        2.524972    1.149465    1.575613
     59          1           0        1.190416    1.682286    2.856281
     60          1           0        0.119590    0.251333   -0.467018
     61          1           0        4.637214   -1.047287   -2.961586
     62          1           0        4.047969   -2.483185   -1.986970
     63          1           0       -5.735325   -2.232861   -3.019865
     64          1           0        5.105877   -1.502177   -0.072762
     65          1           0        5.845714   -0.240563   -1.119515
     66          1           0        4.071493    0.778683   -3.842472
     67          1           0        3.273574    2.518749   -3.221317
     68          1           0        2.306014    1.151253   -4.422046
     69          1           0        0.880742    2.912086   -2.586724
     70          1           0       -7.109988   -3.471385   -0.564775
     71          1           0       -8.064584   -3.168015   -2.125008
     72          1           0        3.975074    3.166008    3.629706
     73          1           0       -0.340520    4.636268   -2.614405
     74          1           0       -3.893474    4.866205   -0.466519
     75          1           0       -3.966681    3.930798    0.959965
     76          1           0       -2.772968    5.372788    1.105618
     77          1           0        8.437233   -2.478850   -0.848544
     78          1           0       -1.258606    6.697068   -2.654344
     79          1           0       -2.530755    6.357299   -1.459593
 ---------------------------------------------------------------------

 SCF Done:  E(RB3LYP) =  -1947.81411745     A.U. after   19 cycles

 Excitation energies and oscillator strengths:

 Excited State   1:      Singlet-A      0.8022 eV 1545.57 nm  f=0.0066  <S**2>=0.000
     155 ->156         0.70487
 This state for optimization and/or second-order correction.
 Total Energy, E(TD-HF/TD-DFT) =  -1947.78463741
 Copying the excited state density for this state as the 1-particle RhoCI density.

 The electronic state is 1-A.
 Alpha  occ. eigenvalues --  -19.20377 -19.19979 -19.13059 -19.11402 -19.11044
 Alpha  occ. eigenvalues --  -19.09744 -14.37971 -14.36462 -14.32106 -14.30329
 Alpha  occ. eigenvalues --  -10.32885 -10.31264 -10.27957 -10.26963 -10.26184
 Alpha  occ. eigenvalues --  -10.24902 -10.24309 -10.23777 -10.23429 -10.23278
 Alpha  occ. eigenvalues --  -10.22316 -10.22307 -10.22210 -10.21215 -10.20908
 Alpha  occ. eigenvalues --  -10.20902 -10.20710 -10.20644 -10.20635 -10.20551
 Alpha  occ. eigenvalues --  -10.20317 -10.20126 -10.19676 -10.19562 -10.19503
 Alpha  occ. eigenvalues --  -10.19290 -10.18794 -10.18425 -10.18106 -10.17729
 Alpha  occ. eigenvalues --  -10.17006 -10.16872 -10.16113  -1.13665  -1.13136
 Alpha  occ. eigenvalues --   -1.02539  -1.01643  -1.01504  -1.01014  -0.96838
 Alpha  occ. eigenvalues --   -0.95923  -0.92027  -0.90842  -0.84459  -0.83680
 Alpha  occ. eigenvalues --   -0.81891  -0.81516  -0.80456  -0.79420  -0.78643
 Alpha  occ. eigenvalues --   -0.77168  -0.76849  -0.76130  -0.74594  -0.73453
 Alpha  occ. eigenvalues --   -0.71051  -0.70562  -0.69860  -0.68242  -0.67603
 Alpha  occ. eigenvalues --   -0.67028  -0.65747  -0.62974  -0.62321  -0.61384
 Alpha  occ. eigenvalues --   -0.60542  -0.59173  -0.59037  -0.57867  -0.56435
 Alpha  occ. eigenvalues --   -0.55233  -0.55133  -0.54259  -0.53387  -0.52946
 Alpha  occ. eigenvalues --   -0.52267  -0.51662  -0.51008  -0.50726  -0.50307
 Alpha  occ. eigenvalues --   -0.49784  -0.49266  -0.48815  -0.48379  -0.48036
 Alpha  occ. eigenvalues --   -0.47671  -0.47619  -0.47081  -0.46827  -0.46004
 Alpha  occ. eigenvalues --   -0.45267  -0.45169  -0.44923  -0.44595  -0.44082
 Alpha  occ. eigenvalues --   -0.43718  -0.43568  -0.42976  -0.42819  -0.42557
 Alpha  occ. eigenvalues --   -0.42288  -0.41782  -0.41618  -0.41088  -0.40664
 Alpha  occ. eigenvalues --   -0.40373  -0.40248  -0.40083  -0.39624  -0.39531
 Alpha  occ. eigenvalues --   -0.39477  -0.39248  -0.38851  -0.38482  -0.38389
 Alpha  occ. eigenvalues --   -0.37535  -0.37392  -0.37261  -0.37042  -0.36510
 Alpha  occ. eigenvalues --   -0.36086  -0.35672  -0.35293  -0.34953  -0.34373
 Alpha  occ. eigenvalues --   -0.33434  -0.33212  -0.32470  -0.32188  -0.31918
 Alpha  occ. eigenvalues --   -0.30751  -0.30699  -0.29474  -0.29015  -0.28438
 Alpha  occ. eigenvalues --   -0.27119  -0.26766  -0.25457  -0.25182  -0.24170
 Alpha  occ. eigenvalues --   -0.23943  -0.23289  -0.22242  -0.21319  -0.18587
 Alpha virt. eigenvalues --   -0.13087  -0.07664  -0.05050  -0.00273   0.00106
 Alpha virt. eigenvalues --    0.00491   0.01569   0.01941   0.02733   0.02839
 Alpha virt. eigenvalues --    0.03403   0.03611   0.03866   0.04090   0.05065

 Mulliken charges:
               1
     1  O   -0.181800
     2  O   -0.107626
     3  O   -0.335486
     4  O   -0.152481
     5  O   -0.225220
     6  O   -0.242064
     7  N   -0.121652
     8  N   -0.279386
     9  N   -0.042326
    10  N   -0.398376
    11  C    0.158777
    12  C    0.191635
    13  C   -0.076658
    14  C   -0.178649
    15  C   -0.046673
    16  C   -0.003633
    17  C   -0.184477
    18  C    0.159325
    19  C    0.069547
    20  C   -0.104878
    21  C    0.144001
    22  C    0.130739
    23  C   -0.062488
    24  C    0.187342
    25  C   -0.078198
    26  C   -0.109087
    27  C    0.013097
    28  C    0.053195
    29  C    0.085663
    30  C   -0.109704
    31  C    0.031496
    32  C    0.001943
    33  C   -0.091497
    34  C    0.081100
    35  C    0.132523
    36  C   -0.050764
    37  C    0.082488
    38  C    0.090641
    39  C   -0.162918
    40  C    0.196844
    41  C    0.066239
    42  C    0.013397
    43  C   -0.085863
    44  H    0.022655
    45  H   -0.020484
    46  H   -0.004935
    47  H    0.186088
    48  H    0.166174
    49  H   -0.019120
    50  H   -0.015660
    51  H   -0.020621
    52  H   -0.014267
    53  H   -0.027775
    54  H    0.031164
    55  H    0.030526
    56  H    0.060298
    57  H    0.041723
    58  H    0.041473
    59  H    0.057054
    60  H    0.190704
    61  H   -0.012460
    62  H    0.044760
    63  H    0.019656
    64  H    0.037739
    65  H    0.015023
    66  H    0.037894
    67  H    0.071202
    68  H    0.074772
    69  H   -0.017023
    70  H    0.026361
    71  H    0.020861
    72  H    0.193970
    73  H   -0.040694
    74  H    0.033755
    75  H    0.010087
    76  H    0.073180
    77  H    0.209635
    78  H    0.019639
    79  H    0.018554
 Sum of Mulliken charges =  -0.00000

 Dipole moment (field-independent basis, Debye):
    X=              4.6452    Y=              3.1462    Z=             -1.1607  Tot=              5.7292
 Quadrupole moment (field-independent basis, Debye-Ang):
   XX=           -232.9905   YY=           -234.6230   ZZ=           -272.0158
   XY=              4.2293   XZ=            -19.4380   YZ=            -10.3062

 Normal termination of Gaussian 16 at Fri Jul 26 12:48:19 2019.
