 Gaussian 16, Revision A.03,
 Gaussian 16:  ES64L-G16RevA.03 25-Dec-2016

 --------------------------
 # td=(NStates=1) B3LYP/SVP
 --------------------------

 --
 TD
 --
 Symbolic Z-matrix:
 Charge =  0 Multiplicity = 1

                         Standard orientation:
 ---------------------------------------------------------------------
 Center     Atomic      Atomic             Coordinates (Angstroms)
 Number     Number       Type             X           Y           Z
 ---------------------------------------------------------------------
      1          8           0       -3.309827   -1.579944   -2.855864
      2          8           0        2.561916    3.486000    3.246843
      3          8           0        3.532880    1.727031    4.340423
      4          8           0        7.772093   -1.694994   -0.472116
      5          8           0        6.633875   -3.100070   -1.804957
      6          8           0       -2.547969    1.570878    1.495294
      7          7           0       -0.230622   -2.418826    1.040729
      8          7           0       -2.647420   -1.243779   -0.655041
      9          7           0        1.205308    0.120972   -0.814089
     10          7           0       -0.948505    1.446197   -0.250590
     11          6           0       -3.283319   -1.349897    0.661341
     12          6           0       -2.611257   -2.444257    1.654645
     13          6           0       -1.219313   -2.028263    1.877454
     14          6           0       -0.507633   -1.110069    2.793053
     15          6           0        0.835697   -1.079355    2.377612
     16          6           0        0.992202   -1.852186    1.249004
     17          6           0       -4.631344   -1.835609    0.322842
     18          6           0        1.819672   -0.215732    3.079113
     19          6           0       -4.741764   -2.094126   -0.975532
     20          6           0        2.088031   -1.912880    0.264363
     21          6           0        2.096197   -0.939515   -0.715498
     22          6           0       -3.458766   -1.618596   -1.670049
     23          6           0        3.033279   -0.597627   -1.751932
     24          6           0       -1.278935   -0.443784    3.926885
     25          6           0       -5.780056   -2.024832    1.285671
     26          6           0        2.612236    0.447531   -2.516053
     27          6           0        1.717214    1.154776    2.730865
     28          6           0        1.441706    0.933762   -1.941285
     29          6           0        4.333054   -1.529225   -1.987711
     30          6           0       -5.820450   -2.522274   -1.847268
     31          6           0        5.594648   -1.081260   -1.090026
     32          6           0        3.294211    1.057623   -3.704430
     33          6           0        0.544816    1.966142   -2.117362
     34          6           0        2.801195    2.161739    3.486548
     35          6           0       -0.610924    2.142989   -1.408272
     36          6           0       -7.067300   -3.172856   -1.482202
     37          6           0        6.661683   -2.110444   -1.181929
     38          6           0       -1.360589    3.329388   -1.406426
     39          6           0       -2.197739    3.389349   -0.305303
     40          6           0       -1.908203    2.101965    0.542517
     41          6           0       -1.292227    4.338214   -2.448081
     42          6           0       -3.281983    4.276500    0.254004
     43          6           0       -2.204763    5.402561   -2.846640
     44          1           0       -3.379399   -0.197376    1.040549
     45          1           0       -2.719394   -3.469296    1.245988
     46          1           0       -3.232790   -2.402982    2.523565
     47          1           0       -0.530047   -2.833715    0.113729
     48          1           0       -1.682517   -0.518895   -0.817932
     49          1           0        1.804325   -0.592588    4.224211
     50          1           0        2.765993   -0.581210    2.957821
     51          1           0        2.868678   -2.682444    0.585937
     52          1           0       -2.270518   -1.073373    4.470136
     53          1           0       -0.623567    0.043233    4.692244
     54          1           0       -1.817482    0.390333    3.414584
     55          1           0       -6.290695   -1.190035    1.840008
     56          1           0       -5.716601   -3.106538    1.882514
     57          1           0       -6.630045   -2.097347    0.624133
     58          1           0        1.905426    1.289269    1.584639
     59          1           0        0.873147    1.828662    2.997799
     60          1           0        0.585552    0.355189    0.035474
     61          1           0        4.867512   -1.069911   -3.082665
     62          1           0        4.262549   -2.627474   -1.723231
     63          1           0       -5.586721   -2.208630   -2.943498
     64          1           0        5.174397   -0.869955   -0.055135
     65          1           0        5.890371    0.049836   -1.242545
     66          1           0        3.589886    0.087063   -4.466114
     67          1           0        4.163627    1.891879   -3.471880
     68          1           0        2.530955    1.431688   -4.341731
     69          1           0        0.789174    2.782367   -2.883851
     70          1           0       -7.414411   -3.262795   -0.332833
     71          1           0       -7.928765   -3.483691   -2.233093
     72          1           0        3.089405    4.037440    3.801754
     73          1           0       -0.325431    4.072718   -3.164121
     74          1           0       -4.336218    4.318724   -0.344255
     75          1           0       -3.487441    4.183210    1.508753
     76          1           0       -2.950065    5.322887    0.312789
     77          1           0        8.327135   -2.363621   -0.493418
     78          1           0       -2.064589    5.897448   -3.662768
     79          1           0       -2.952162    5.608260   -2.101125
 ---------------------------------------------------------------------

 SCF Done:  E(RB3LYP) =  -1947.71038915     A.U. after   23 cycles

 Excitation energies and oscillator strengths:

 Excited State   1:      Singlet-A      0.5101 eV 2430.78 nm  f=0.0002  <S**2>=0.000
     155 ->156         0.70387
 This state for optimization and/or second-order correction.
 Total Energy, E(TD-HF/TD-DFT) =  -1947.69164483
 Copying the excited state density for this state as the 1-particle RhoCI density.

 The electronic state is 1-A.
 Alpha  occ. eigenvalues --  -19.18578 -19.18002 -19.15295 -19.13249 -19.12931
 Alpha  occ. eigenvalues --  -19.07700 -14.37672 -14.37016 -14.33385 -14.30932
 Alpha  occ. eigenvalues --  -10.33824 -10.32284 -10.29186 -10.27610 -10.26338
 Alpha  occ. eigenvalues --  -10.25640 -10.25492 -10.24870 -10.24712 -10.24131
 Alpha  occ. eigenvalues --  -10.24124 -10.23445 -10.23295 -10.23232 -10.22509
 Alpha  occ. eigenvalues --  -10.22461 -10.22368 -10.22366 -10.21749 -10.21315
 Alpha  occ. eigenvalues --  -10.20760 -10.20600 -10.20418 -10.20365 -10.20134
 Alpha  occ. eigenvalues --  -10.19927 -10.19382 -10.19056 -10.18807 -10.18553
 Alpha  occ. eigenvalues --  -10.17320 -10.17249 -10.17186  -1.12705  -1.09368
 Alpha  occ. eigenvalues --   -1.04614  -1.01357  -1.01187  -1.01033  -1.00163
 Alpha  occ. eigenvalues --   -0.97292  -0.93263  -0.91516  -0.84004  -0.83112
 Alpha  occ. eigenvalues --   -0.81461  -0.80347  -0.79384  -0.79349  -0.78726
 Alpha  occ. eigenvalues --   -0.76499  -0.75178  -0.74524  -0.73502  -0.72063
 Alpha  occ. eigenvalues --   -0.71289  -0.69813  -0.68964  -0.67875  -0.67438
 Alpha  occ. eigenvalues --   -0.66660  -0.65653  -0.63658  -0.61723  -0.61035
 Alpha  occ. eigenvalues --   -0.60657  -0.60269  -0.58128  -0.58002  -0.56785
 Alpha  occ. eigenvalues --   -0.56162  -0.54941  -0.53774  -0.53465  -0.53107
 Alpha  occ. eigenvalues --   -0.52100  -0.51816  -0.50692  -0.50199  -0.49973
 Alpha  occ. eigenvalues --   -0.49759  -0.48929  -0.48606  -0.48015  -0.47883
 Alpha  occ. eigenvalues --   -0.47363  -0.46977  -0.46840  -0.46316  -0.45383
 Alpha  occ. eigenvalues --   -0.45080  -0.44738  -0.44089  -0.43939  -0.43647
 Alpha  occ. eigenvalues --   -0.43371  -0.43200  -0.42961  -0.42692  -0.42616
 Alpha  occ. eigenvalues --   -0.42077  -0.41598  -0.41380  -0.41081  -0.40533
 Alpha  occ. eigenvalues --   -0.40408  -0.40288  -0.40029  -0.39664  -0.39389
 Alpha  occ. eigenvalues --   -0.38959  -0.38328  -0.37953  -0.37818  -0.37591
 Alpha  occ. eigenvalues --   -0.37412  -0.37021  -0.36886  -0.36551  -0.36475
 Alpha  occ. eigenvalues --   -0.35871  -0.35457  -0.34763  -0.34715  -0.34421
 Alpha  occ. eigenvalues --   -0.33436  -0.33098  -0.32971  -0.32152  -0.31553
 Alpha  occ. eigenvalues --   -0.31140  -0.30794  -0.29271  -0.28969  -0.28464
 Alpha  occ. eigenvalues --   -0.27607  -0.27233  -0.25176  -0.24287  -0.23680
 Alpha  occ. eigenvalues --   -0.23428  -0.23100  -0.22449  -0.21386  -0.18867
 Alpha virt. eigenvalues --   -0.14473  -0.08876  -0.04142  -0.03596  -0.01961
 Alpha virt. eigenvalues --    0.00374   0.00712   0.02123   0.02280   0.02565
 Alpha virt. eigenvalues --    0.03574   0.04096   0.04432   0.04521   0.04896

 Mulliken charges:
               1
     1  O   -0.218303
     2  O   -0.183335
     3  O   -0.212871
     4  O   -0.142433
     5  O   -0.166332
     6  O   -0.239538
     7  N   -0.046069
     8  N   -0.299510
     9  N   -0.189417
    10  N   -0.372056
    11  C    0.054159
    12  C    0.220089
    13  C   -0.098017
    14  C   -0.088653
    15  C   -0.142606
    16  C   -0.083679
    17  C   -0.200594
    18  C    0.178536
    19  C   -0.049786
    20  C   -0.117772
    21  C    0.184657
    22  C    0.132975
    23  C   -0.062298
    24  C    0.013805
    25  C    0.046093
    26  C   -0.093966
    27  C   -0.033411
    28  C    0.183271
    29  C    0.015472
    30  C   -0.030642
    31  C   -0.104614
    32  C    0.016584
    33  C   -0.153325
    34  C    0.123143
    35  C    0.184552
    36  C   -0.121230
    37  C    0.163769
    38  C    0.035806
    39  C   -0.165812
    40  C    0.227476
    41  C   -0.116461
    42  C   -0.022998
    43  C    0.083191
    44  H    0.098526
    45  H   -0.003646
    46  H   -0.010419
    47  H    0.126467
    48  H    0.203577
    49  H    0.026655
    50  H   -0.057298
    51  H    0.055764
    52  H    0.028636
    53  H    0.006710
    54  H    0.042451
    55  H    0.026998
    56  H    0.051187
    57  H   -0.010819
    58  H    0.032406
    59  H    0.051813
    60  H    0.229483
    61  H    0.054352
    62  H    0.061097
    63  H    0.044236
    64  H    0.047524
    65  H    0.057379
    66  H    0.059228
    67  H    0.084783
    68  H    0.014691
    69  H    0.013391
    70  H    0.046248
    71  H    0.047938
    72  H    0.168386
    73  H    0.017273
    74  H    0.073030
    75  H    0.060560
    76  H    0.029233
    77  H    0.117055
    78  H   -0.019851
    79  H    0.017102
 Sum of Mulliken charges =  -0.00000

 Dipole moment (field-independent basis, Debye):
    X=              4.8697    Y=              4.1156    Z=             -0.7597  Tot=              6.4210
 Quadrupole moment (field-independent basis, Debye-Ang):
   XX=           -242.8790   YY=           -237.6597   ZZ=           -269.3494
   XY=             -3.2413   XZ=            -21.0181   YZ=            -13.9256

 Normal termination of Gaussian 16 at Fri Jul 26 18:28:30 2019.
