 Gaussian 16, Revision A.03,
 Gaussian 16:  ES64L-G16RevA.03 25-Dec-2016

 --------------------------
 # td=(NStates=1) B3LYP/SVP
 --------------------------

 --
 TD
 --
 Symbolic Z-matrix:
 Charge =  0 Multiplicity = 1

                         Standard orientation:
 ---------------------------------------------------------------------
 Center     Atomic      Atomic             Coordinates (Angstroms)
 Number     Number       Type             X           Y           Z
 ---------------------------------------------------------------------
      1          8           0        5.464948    0.210103   -3.323863
      2          8           0       -2.866629   -2.901890    3.131651
      3          8           0       -3.289933   -0.666566    2.933072
      4          8           0       -2.100630    6.880707    1.618272
      5          8           0       -1.192310    7.142475   -0.609284
      6          8           0       -1.428861   -4.056702    0.097017
      7          7           0        2.270058    1.015499    0.493925
      8          7           0        4.423058   -0.421506   -1.255767
      9          7           0       -1.873716    0.687895   -0.495586
     10          7           0       -2.314902   -2.022737   -0.603757
     11          6           0        4.891679   -1.070857   -0.044763
     12          6           0        4.360327   -0.140709    1.182751
     13          6           0        2.931950    0.050421    1.340645
     14          6           0        1.956196   -0.499103    2.050498
     15          6           0        0.720512    0.151591    1.762825
     16          6           0        0.961310    1.083360    0.774498
     17          6           0        6.400440   -1.120998   -0.056348
     18          6           0       -0.627994   -0.099674    2.517296
     19          6           0        6.731194   -0.644387   -1.277724
     20          6           0       -0.001129    2.160025    0.227673
     21          6           0       -1.231818    1.854609   -0.339975
     22          6           0        5.490120   -0.307388   -2.157920
     23          6           0       -2.178309    2.840856   -0.880230
     24          6           0        2.259915   -1.662780    3.055676
     25          6           0        7.162845   -1.816624    1.080503
     26          6           0       -3.287236    2.203942   -1.312163
     27          6           0       -1.086661   -1.471873    2.384812
     28          6           0       -3.122758    0.750652   -1.142962
     29          6           0       -1.852829    4.321747   -0.966411
     30          6           0        8.058410   -0.485132   -1.952024
     31          6           0       -2.088765    4.975781    0.391609
     32          6           0       -4.488811    2.811407   -1.886520
     33          6           0       -3.898836   -0.334040   -1.521420
     34          6           0       -2.496328   -1.621977    2.858481
     35          6           0       -3.468208   -1.661445   -1.236139
     36          6           0        9.246407   -0.558751   -1.248912
     37          6           0       -1.653433    6.429907    0.258301
     38          6           0       -4.370303   -2.918937   -1.352622
     39          6           0       -3.600737   -4.029241   -1.017932
     40          6           0       -2.343988   -3.461601   -0.355567
     41          6           0       -5.798481   -2.722649   -1.892657
     42          6           0       -3.947663   -5.478449   -0.993844
     43          6           0       -6.577878   -3.808267   -2.180098
     44          1           0        4.507448   -2.150822    0.204083
     45          1           0        5.154094    0.744302    1.073091
     46          1           0        4.752841   -0.830332    2.024221
     47          1           0        2.596198    1.367754   -0.555386
     48          1           0        3.496609   -0.760638   -1.659084
     49          1           0       -0.508170    0.087827    3.589636
     50          1           0       -1.321830    0.675057    2.251725
     51          1           0        0.402643    3.158953    0.028888
     52          1           0        3.423052   -1.533909    3.445430
     53          1           0        1.679695   -1.620941    4.060379
     54          1           0        1.917941   -2.652457    2.976353
     55          1           0        6.439997   -2.019839    2.046397
     56          1           0        7.982638   -1.074791    1.508814
     57          1           0        7.596260   -2.686561    0.529401
     58          1           0       -1.224933   -1.749107    1.261754
     59          1           0       -0.449938   -2.140584    2.980135
     60          1           0       -1.775674   -0.142231   -0.131090
     61          1           0       -2.395432    4.955583   -1.812791
     62          1           0       -0.705706    4.307572   -1.283981
     63          1           0        7.998338   -0.245437   -2.996609
     64          1           0       -1.458743    4.761526    1.208281
     65          1           0       -3.273765    4.778071    0.781927
     66          1           0       -4.397369    3.829955   -2.190546
     67          1           0       -5.378972    2.587501   -1.175480
     68          1           0       -4.775944    2.433087   -2.918116
     69          1           0       -4.774120   -0.078003   -2.060293
     70          1           0        9.324616   -0.626637   -0.129870
     71          1           0       10.220689   -0.475430   -1.848256
     72          1           0       -3.740691   -2.807585    3.439484
     73          1           0       -6.080486   -1.745059   -2.074966
     74          1           0       -4.694184   -5.797494   -0.565662
     75          1           0       -4.183604   -5.767429   -2.012729
     76          1           0       -2.914586   -6.171906   -0.852044
     77          1           0       -2.127767    7.914750    1.659390
     78          1           0       -7.524165   -3.627071   -2.854712
     79          1           0       -6.305998   -4.893230   -2.110413
 ---------------------------------------------------------------------

 SCF Done:  E(RB3LYP) =  -1947.80878557     A.U. after   16 cycles

 Excitation energies and oscillator strengths:

 Excited State   1:      Singlet-A      2.0253 eV  612.17 nm  f=0.2807  <S**2>=0.000
     155 ->156         0.69471
 This state for optimization and/or second-order correction.
 Total Energy, E(TD-HF/TD-DFT) =  -1947.73435643
 Copying the excited state density for this state as the 1-particle RhoCI density.

 The electronic state is 1-A.
 Alpha  occ. eigenvalues --  -19.17314 -19.16664 -19.16313 -19.12119 -19.11151
 Alpha  occ. eigenvalues --  -19.10962 -14.37055 -14.36559 -14.36054 -14.30134
 Alpha  occ. eigenvalues --  -10.33872 -10.30648 -10.29580 -10.27811 -10.25673
 Alpha  occ. eigenvalues --  -10.25091 -10.24966 -10.24895 -10.23873 -10.23024
 Alpha  occ. eigenvalues --  -10.23017 -10.22400 -10.22395 -10.22137 -10.22019
 Alpha  occ. eigenvalues --  -10.21817 -10.21665 -10.21634 -10.21580 -10.21338
 Alpha  occ. eigenvalues --  -10.20986 -10.20882 -10.20863 -10.20771 -10.20536
 Alpha  occ. eigenvalues --  -10.20520 -10.20442 -10.20328 -10.18882 -10.18729
 Alpha  occ. eigenvalues --  -10.18226 -10.17883 -10.17769  -1.08616  -1.07181
 Alpha  occ. eigenvalues --   -1.04412  -1.00119  -0.99655  -0.98721  -0.98316
 Alpha  occ. eigenvalues --   -0.96715  -0.93557  -0.90695  -0.83578  -0.81807
 Alpha  occ. eigenvalues --   -0.81630  -0.80187  -0.79811  -0.79283  -0.78582
 Alpha  occ. eigenvalues --   -0.76604  -0.76337  -0.75338  -0.74462  -0.72377
 Alpha  occ. eigenvalues --   -0.70649  -0.70232  -0.69803  -0.68812  -0.68160
 Alpha  occ. eigenvalues --   -0.66405  -0.66025  -0.63481  -0.61438  -0.59850
 Alpha  occ. eigenvalues --   -0.59661  -0.58109  -0.57937  -0.57399  -0.56375
 Alpha  occ. eigenvalues --   -0.55410  -0.55314  -0.54562  -0.53860  -0.53066
 Alpha  occ. eigenvalues --   -0.52421  -0.51340  -0.50619  -0.50181  -0.49350
 Alpha  occ. eigenvalues --   -0.48984  -0.48631  -0.47786  -0.47676  -0.47375
 Alpha  occ. eigenvalues --   -0.47155  -0.46622  -0.46482  -0.46109  -0.45652
 Alpha  occ. eigenvalues --   -0.45362  -0.44640  -0.44508  -0.44072  -0.43911
 Alpha  occ. eigenvalues --   -0.43559  -0.42782  -0.42754  -0.42238  -0.42129
 Alpha  occ. eigenvalues --   -0.41950  -0.41435  -0.41155  -0.41068  -0.41044
 Alpha  occ. eigenvalues --   -0.40885  -0.40726  -0.40484  -0.39779  -0.39593
 Alpha  occ. eigenvalues --   -0.39384  -0.39269  -0.38581  -0.38300  -0.38212
 Alpha  occ. eigenvalues --   -0.37865  -0.37267  -0.36793  -0.36445  -0.36242
 Alpha  occ. eigenvalues --   -0.35802  -0.35409  -0.35213  -0.34965  -0.34899
 Alpha  occ. eigenvalues --   -0.33980  -0.33452  -0.32945  -0.31879  -0.31532
 Alpha  occ. eigenvalues --   -0.31304  -0.30860  -0.30033  -0.28676  -0.27975
 Alpha  occ. eigenvalues --   -0.27169  -0.26516  -0.26382  -0.25715  -0.24645
 Alpha  occ. eigenvalues --   -0.24380  -0.23820  -0.23575  -0.22565  -0.19830
 Alpha virt. eigenvalues --   -0.11349  -0.06755  -0.06029  -0.02982  -0.01655
 Alpha virt. eigenvalues --   -0.00596   0.00902   0.01203   0.02108   0.03144
 Alpha virt. eigenvalues --    0.03401   0.04169   0.04280   0.04758   0.05323

 Mulliken charges:
               1
     1  O   -0.270963
     2  O   -0.150524
     3  O   -0.275283
     4  O   -0.336205
     5  O   -0.183585
     6  O   -0.145337
     7  N   -0.168279
     8  N   -0.195478
     9  N    0.023136
    10  N   -0.338633
    11  C   -0.012787
    12  C    0.083819
    13  C    0.002800
    14  C   -0.036554
    15  C   -0.105656
    16  C    0.000739
    17  C   -0.117620
    18  C    0.136975
    19  C   -0.115371
    20  C   -0.094959
    21  C    0.121242
    22  C    0.200183
    23  C   -0.060099
    24  C    0.014858
    25  C    0.006514
    26  C   -0.102475
    27  C    0.001439
    28  C    0.066150
    29  C    0.004090
    30  C    0.024055
    31  C   -0.038102
    32  C    0.075386
    33  C   -0.058785
    34  C    0.102616
    35  C    0.115808
    36  C   -0.061033
    37  C    0.206862
    38  C   -0.017831
    39  C   -0.191359
    40  C    0.167760
    41  C    0.054900
    42  C    0.158616
    43  C   -0.054661
    44  H    0.035828
    45  H    0.027061
    46  H   -0.014983
    47  H    0.176365
    48  H    0.159961
    49  H   -0.013931
    50  H   -0.007998
    51  H    0.000690
    52  H    0.032783
    53  H   -0.001951
    54  H    0.025467
    55  H    0.058820
    56  H    0.067887
    57  H    0.072559
    58  H    0.117179
    59  H    0.013549
    60  H    0.058536
    61  H    0.052532
    62  H    0.045857
    63  H    0.008648
    64  H    0.041955
    65  H    0.098858
    66  H   -0.004554
    67  H    0.049558
    68  H    0.022896
    69  H   -0.035725
    70  H    0.026721
    71  H    0.042016
    72  H    0.151660
    73  H   -0.029201
    74  H   -0.042359
    75  H    0.006659
    76  H    0.046322
    77  H    0.198799
    78  H    0.040498
    79  H    0.034669
 Sum of Mulliken charges =  -0.00000

 Dipole moment (field-independent basis, Debye):
    X=             -2.2252    Y=              0.0232    Z=              1.4749  Tot=              2.6697
 Quadrupole moment (field-independent basis, Debye-Ang):
   XX=           -219.7656   YY=           -245.7489   ZZ=           -262.7012
   XY=            -11.0286   XZ=             34.5061   YZ=              3.7922

 Normal termination of Gaussian 16 at Sat Sep 14 05:00:31 2019.
