 Gaussian 16, Revision A.03,
 Gaussian 16:  ES64L-G16RevA.03 25-Dec-2016

 --------------------------
 # td=(NStates=1) B3LYP/SVP
 --------------------------

 --
 TD
 --
 Symbolic Z-matrix:
 Charge =  0 Multiplicity = 1

                         Standard orientation:
 ---------------------------------------------------------------------
 Center     Atomic      Atomic             Coordinates (Angstroms)
 Number     Number       Type             X           Y           Z
 ---------------------------------------------------------------------
      1          8           0       -3.329277   -1.238606   -2.908831
      2          8           0        3.248688    2.943583    3.237973
      3          8           0        3.656487    1.285633    4.655601
      4          8           0        7.775224   -1.236823   -1.009260
      5          8           0        6.679601   -3.022632   -2.033794
      6          8           0       -2.650199    1.501113    1.359085
      7          7           0       -0.289918   -2.381862    0.923432
      8          7           0       -2.604521   -1.257746   -0.670363
      9          7           0        1.206480    0.022599   -0.716628
     10          7           0       -0.916317    1.428301   -0.201010
     11          6           0       -3.352724   -1.421562    0.580665
     12          6           0       -2.728504   -2.463268    1.482763
     13          6           0       -1.288224   -2.180618    1.784891
     14          6           0       -0.592175   -1.333821    2.755295
     15          6           0        0.741090   -1.219607    2.435464
     16          6           0        0.951448   -1.931613    1.201982
     17          6           0       -4.764677   -1.817308    0.225019
     18          6           0        1.811824   -0.401824    3.289787
     19          6           0       -4.855287   -1.754892   -1.108583
     20          6           0        2.084072   -1.868332    0.270055
     21          6           0        2.081974   -0.909046   -0.689636
     22          6           0       -3.526864   -1.482680   -1.699719
     23          6           0        2.926928   -0.763634   -1.856077
     24          6           0       -1.314017   -0.656662    3.855222
     25          6           0       -5.795526   -2.081802    1.344563
     26          6           0        2.548577    0.402307   -2.523088
     27          6           0        1.926920    1.026660    2.931187
     28          6           0        1.395559    0.898352   -1.800102
     29          6           0        4.183474   -1.478731   -2.081594
     30          6           0       -5.989619   -2.154860   -2.087325
     31          6           0        5.358459   -1.097655   -1.225459
     32          6           0        3.191161    1.164573   -3.649334
     33          6           0        0.561084    1.994214   -1.927428
     34          6           0        3.003036    1.769347    3.657659
     35          6           0       -0.552292    2.283688   -1.140178
     36          6           0       -6.972313   -2.980075   -1.838454
     37          6           0        6.665449   -1.866991   -1.495253
     38          6           0       -1.461318    3.520081   -1.193275
     39          6           0       -2.415393    3.236581   -0.273237
     40          6           0       -2.017046    1.943592    0.425776
     41          6           0       -1.224137    4.673883   -2.123629
     42          6           0       -3.454190    4.199636    0.385102
     43          6           0       -1.828727    5.813468   -2.074326
     44          1           0       -3.263893   -0.209669    1.002601
     45          1           0       -2.589747   -3.453448    0.947286
     46          1           0       -3.259168   -2.416628    2.422203
     47          1           0       -0.207796   -2.920345    0.071034
     48          1           0       -1.888226   -0.550642   -0.791572
     49          1           0        1.762276   -0.538001    4.413708
     50          1           0        2.958238   -0.707484    3.067898
     51          1           0        2.726045   -2.856078    0.292084
     52          1           0       -1.827518   -1.317214    4.558021
     53          1           0       -0.540912   -0.183956    4.427253
     54          1           0       -2.235906    0.132036    3.427130
     55          1           0       -5.353455   -1.406060    2.156523
     56          1           0       -5.774745   -3.101415    1.848110
     57          1           0       -6.837745   -1.692555    0.986673
     58          1           0        1.961694    1.381155    1.776095
     59          1           0        0.942655    1.590386    3.144467
     60          1           0        0.222710    0.275342   -0.208439
     61          1           0        4.490378   -1.456143   -3.096130
     62          1           0        4.148225   -2.639869   -2.026750
     63          1           0       -5.708332   -1.923401   -3.115160
     64          1           0        5.251957   -1.064667   -0.051965
     65          1           0        5.565387   -0.240851   -1.346465
     66          1           0        4.044267    0.784967   -4.402876
     67          1           0        3.598873    2.194806   -3.298868
     68          1           0        2.515016    1.340159   -4.330677
     69          1           0        0.731945    2.576661   -2.856767
     70          1           0       -7.119340   -3.149388   -0.693009
     71          1           0       -7.732598   -3.147630   -2.576657
     72          1           0        3.972588    3.283881    3.863917
     73          1           0       -0.178564    4.707154   -2.842887
     74          1           0       -4.378036    4.264337   -0.334691
     75          1           0       -3.997236    3.587065    1.001358
     76          1           0       -3.083022    5.081240    1.025974
     77          1           0        8.607815   -1.831226   -1.147537
     78          1           0       -1.440004    6.600281   -2.658857
     79          1           0       -2.686241    6.101594   -1.439636
 ---------------------------------------------------------------------

 SCF Done:  E(RB3LYP) =  -1947.79574611     A.U. after   19 cycles

 Excitation energies and oscillator strengths:

 Excited State   1:      Singlet-A      0.8604 eV 1441.04 nm  f=0.0001  <S**2>=0.000
     155 ->156         0.70467
 This state for optimization and/or second-order correction.
 Total Energy, E(TD-HF/TD-DFT) =  -1947.76412768
 Copying the excited state density for this state as the 1-particle RhoCI density.

 The electronic state is 1-A.
 Alpha  occ. eigenvalues --  -19.20616 -19.19804 -19.13635 -19.13328 -19.10633
 Alpha  occ. eigenvalues --  -19.07879 -14.37103 -14.36427 -14.33043 -14.32447
 Alpha  occ. eigenvalues --  -10.34024 -10.31380 -10.29245 -10.26615 -10.26474
 Alpha  occ. eigenvalues --  -10.26155 -10.24720 -10.23437 -10.22900 -10.22740
 Alpha  occ. eigenvalues --  -10.22729 -10.22641 -10.22589 -10.22056 -10.21534
 Alpha  occ. eigenvalues --  -10.21500 -10.21286 -10.21095 -10.21084 -10.20858
 Alpha  occ. eigenvalues --  -10.20633 -10.20367 -10.20171 -10.20039 -10.20029
 Alpha  occ. eigenvalues --  -10.19981 -10.19955 -10.18740 -10.18417 -10.18039
 Alpha  occ. eigenvalues --  -10.17583 -10.17294 -10.16169  -1.11966  -1.08749
 Alpha  occ. eigenvalues --   -1.05028  -1.01231  -0.99062  -0.98978  -0.98098
 Alpha  occ. eigenvalues --   -0.96249  -0.95944  -0.91451  -0.84364  -0.83398
 Alpha  occ. eigenvalues --   -0.81899  -0.80280  -0.79746  -0.79545  -0.78892
 Alpha  occ. eigenvalues --   -0.77026  -0.76361  -0.76201  -0.74812  -0.73970
 Alpha  occ. eigenvalues --   -0.71306  -0.70414  -0.69896  -0.69247  -0.67924
 Alpha  occ. eigenvalues --   -0.66836  -0.66251  -0.63107  -0.61683  -0.61347
 Alpha  occ. eigenvalues --   -0.60304  -0.58892  -0.58386  -0.58044  -0.57252
 Alpha  occ. eigenvalues --   -0.56158  -0.55470  -0.54367  -0.53780  -0.52948
 Alpha  occ. eigenvalues --   -0.52054  -0.51845  -0.50883  -0.49750  -0.49143
 Alpha  occ. eigenvalues --   -0.48923  -0.48834  -0.48551  -0.48266  -0.47854
 Alpha  occ. eigenvalues --   -0.47573  -0.47487  -0.46778  -0.46359  -0.46199
 Alpha  occ. eigenvalues --   -0.46018  -0.45396  -0.44821  -0.44671  -0.43880
 Alpha  occ. eigenvalues --   -0.43807  -0.43616  -0.43083  -0.43009  -0.42745
 Alpha  occ. eigenvalues --   -0.42541  -0.41711  -0.41218  -0.40968  -0.40671
 Alpha  occ. eigenvalues --   -0.40294  -0.39892  -0.39615  -0.39139  -0.38960
 Alpha  occ. eigenvalues --   -0.38933  -0.38471  -0.38264  -0.38130  -0.37950
 Alpha  occ. eigenvalues --   -0.37541  -0.37250  -0.37186  -0.36870  -0.36303
 Alpha  occ. eigenvalues --   -0.35647  -0.35185  -0.35073  -0.34739  -0.34302
 Alpha  occ. eigenvalues --   -0.33304  -0.32987  -0.32678  -0.31589  -0.30993
 Alpha  occ. eigenvalues --   -0.30735  -0.30107  -0.29939  -0.29856  -0.28832
 Alpha  occ. eigenvalues --   -0.27223  -0.26996  -0.26478  -0.25328  -0.24611
 Alpha  occ. eigenvalues --   -0.23352  -0.23345  -0.22773  -0.22382  -0.18795
 Alpha virt. eigenvalues --   -0.13007  -0.07648  -0.03589  -0.02383  -0.01574
 Alpha virt. eigenvalues --    0.00140   0.02030   0.02097   0.02334   0.02788
 Alpha virt. eigenvalues --    0.03454   0.03767   0.04533   0.04727   0.04868

 Mulliken charges:
               1
     1  O   -0.276771
     2  O   -0.116317
     3  O   -0.328750
     4  O   -0.218607
     5  O   -0.282134
     6  O   -0.200638
     7  N    0.008569
     8  N   -0.215341
     9  N   -0.099698
    10  N   -0.293786
    11  C   -0.091197
    12  C    0.276914
    13  C   -0.117206
    14  C   -0.141948
    15  C   -0.039089
    16  C   -0.117545
    17  C   -0.123718
    18  C    0.048480
    19  C   -0.074981
    20  C   -0.167551
    21  C    0.145409
    22  C    0.149769
    23  C   -0.057500
    24  C    0.040649
    25  C    0.032520
    26  C   -0.057305
    27  C   -0.053230
    28  C    0.066710
    29  C    0.091209
    30  C   -0.000120
    31  C    0.150480
    32  C    0.076586
    33  C   -0.098214
    34  C    0.117425
    35  C    0.093635
    36  C   -0.017205
    37  C    0.147995
    38  C    0.092823
    39  C   -0.252213
    40  C    0.179884
    41  C   -0.043803
    42  C    0.114548
    43  C   -0.013040
    44  H    0.131452
    45  H   -0.002147
    46  H   -0.015142
    47  H    0.100520
    48  H    0.131615
    49  H    0.042220
    50  H    0.011233
    51  H    0.050553
    52  H    0.003102
    53  H   -0.013362
    54  H    0.056400
    55  H    0.035221
    56  H    0.054888
    57  H    0.062163
    58  H    0.042474
    59  H    0.044230
    60  H    0.245780
    61  H   -0.010390
    62  H    0.032462
    63  H    0.007409
    64  H    0.058717
    65  H   -0.099452
    66  H    0.041554
    67  H    0.045299
    68  H   -0.010908
    69  H   -0.010425
    70  H    0.021776
    71  H    0.021898
    72  H    0.202981
    73  H    0.039782
    74  H    0.026366
    75  H   -0.023086
    76  H    0.068548
    77  H    0.224370
    78  H    0.012592
    79  H    0.033606
 Sum of Mulliken charges =  -0.00000

 Dipole moment (field-independent basis, Debye):
    X=              3.2553    Y=              4.6258    Z=             -1.6562  Tot=              5.8939
 Quadrupole moment (field-independent basis, Debye-Ang):
   XX=           -229.3190   YY=           -235.9058   ZZ=           -274.0278
   XY=              7.7537   XZ=            -26.7833   YZ=            -12.1947

 Normal termination of Gaussian 16 at Wed Jul 24 18:50:09 2019.
