 Gaussian 16, Revision A.03,
 Gaussian 16:  ES64L-G16RevA.03 25-Dec-2016

 --------------------------
 # td=(NStates=1) B3LYP/SVP
 --------------------------

 --
 TD
 --
 Symbolic Z-matrix:
 Charge =  0 Multiplicity = 1

                         Standard orientation:
 ---------------------------------------------------------------------
 Center     Atomic      Atomic             Coordinates (Angstroms)
 Number     Number       Type             X           Y           Z
 ---------------------------------------------------------------------
      1          8           0       -3.273731   -1.421514   -2.866975
      2          8           0        3.124565    3.135515    3.325513
      3          8           0        3.461151    1.443074    4.735830
      4          8           0        7.642916   -1.842400   -0.457864
      5          8           0        6.754471   -3.008038   -2.295256
      6          8           0       -2.675851    1.685924    1.342433
      7          7           0       -0.267375   -2.287102    0.901913
      8          7           0       -2.653305   -1.195713   -0.594629
      9          7           0        1.111411    0.092723   -0.724219
     10          7           0       -1.000996    1.448253   -0.319685
     11          6           0       -3.454617   -1.312354    0.645957
     12          6           0       -2.683175   -2.286152    1.697375
     13          6           0       -1.219095   -1.860432    1.753163
     14          6           0       -0.653051   -1.181004    2.845682
     15          6           0        0.755789   -1.069949    2.471438
     16          6           0        0.982119   -1.868529    1.257003
     17          6           0       -4.827670   -1.793839    0.232952
     18          6           0        1.807537   -0.420645    3.136172
     19          6           0       -4.860623   -2.001867   -1.057479
     20          6           0        2.068992   -1.794149    0.331850
     21          6           0        2.043189   -0.873974   -0.680729
     22          6           0       -3.539515   -1.546587   -1.725644
     23          6           0        2.985904   -0.663473   -1.849414
     24          6           0       -1.356894   -0.631617    3.950317
     25          6           0       -5.786258   -2.123054    1.287653
     26          6           0        2.565611    0.384492   -2.520704
     27          6           0        2.052938    1.085321    2.681019
     28          6           0        1.378181    0.892209   -1.877022
     29          6           0        4.224511   -1.545988   -2.087876
     30          6           0       -5.898763   -2.598718   -1.905778
     31          6           0        5.413617   -1.130004   -1.181641
     32          6           0        3.152211    1.054849   -3.723481
     33          6           0        0.533226    2.007428   -1.990928
     34          6           0        2.973912    1.883524    3.745831
     35          6           0       -0.476140    2.336970   -1.274736
     36          6           0       -6.835744   -3.476104   -1.506626
     37          6           0        6.689638   -2.070828   -1.359859
     38          6           0       -1.317246    3.627406   -1.266871
     39          6           0       -2.191064    3.472068   -0.276064
     40          6           0       -1.940289    2.091628    0.409279
     41          6           0       -1.242585    4.610450   -2.337417
     42          6           0       -3.384602    4.303228    0.058571
     43          6           0       -1.749097    5.870870   -2.313389
     44          1           0       -3.665028   -0.274920    1.216020
     45          1           0       -2.731956   -3.262111    1.310571
     46          1           0       -3.189795   -2.132637    2.679737
     47          1           0       -0.706416   -2.522177   -0.055805
     48          1           0       -2.080986   -0.321608   -0.828756
     49          1           0        1.844395   -0.326354    4.311936
     50          1           0        2.868744   -0.969140    3.003244
     51          1           0        2.700766   -2.678009    0.350153
     52          1           0       -1.712746   -1.488527    4.502279
     53          1           0       -0.623460   -0.120906    4.464555
     54          1           0       -2.080570    0.278795    3.574197
     55          1           0       -5.539639   -1.668374    2.149660
     56          1           0       -5.636426   -3.197368    1.478290
     57          1           0       -6.831623   -1.887438    0.981965
     58          1           0        2.265600    1.193427    1.646804
     59          1           0        1.158216    1.553264    2.725773
     60          1           0        0.020998    0.457850   -0.430095
     61          1           0        4.621848   -1.636547   -3.264872
     62          1           0        3.780339   -2.619614   -1.701524
     63          1           0       -5.868194   -2.304527   -3.082885
     64          1           0        5.299955   -1.069310   -0.152120
     65          1           0        5.801873   -0.115997   -1.339767
     66          1           0        4.011594    0.480565   -4.224923
     67          1           0        3.635907    1.988078   -3.512073
     68          1           0        2.498808    1.008663   -4.643093
     69          1           0        0.925553    2.616450   -2.798244
     70          1           0       -6.980798   -3.837806   -0.442135
     71          1           0       -7.647428   -3.723753   -2.219145
     72          1           0        3.617149    3.736350    4.106344
     73          1           0       -0.502006    4.331364   -3.248442
     74          1           0       -3.956383    4.707941   -0.810460
     75          1           0       -4.087954    3.655930    0.699082
     76          1           0       -3.266824    5.265009    0.641410
     77          1           0        8.381224   -2.601224   -0.839580
     78          1           0       -1.733255    6.603399   -3.301756
     79          1           0       -2.453460    6.306613   -1.471091
 ---------------------------------------------------------------------

 SCF Done:  E(RB3LYP) =  -1947.83232066     A.U. after   20 cycles

 Excitation energies and oscillator strengths:

 Excited State   1:      Singlet-A      0.8288 eV 1495.90 nm  f=0.0012  <S**2>=0.000
     155 ->156         0.70465
 This state for optimization and/or second-order correction.
 Total Energy, E(TD-HF/TD-DFT) =  -1947.80186177
 Copying the excited state density for this state as the 1-particle RhoCI density.

 The electronic state is 1-A.
 Alpha  occ. eigenvalues --  -19.22399 -19.18569 -19.13781 -19.12354 -19.11319
 Alpha  occ. eigenvalues --  -19.10494 -14.36329 -14.35924 -14.32727 -14.32486
 Alpha  occ. eigenvalues --  -10.34581 -10.31505 -10.28729 -10.27538 -10.26908
 Alpha  occ. eigenvalues --  -10.25461 -10.25076 -10.24955 -10.23428 -10.23079
 Alpha  occ. eigenvalues --  -10.22593 -10.22511 -10.22437 -10.22412 -10.22409
 Alpha  occ. eigenvalues --  -10.22045 -10.21326 -10.20863 -10.20296 -10.20136
 Alpha  occ. eigenvalues --  -10.19902 -10.19821 -10.19527 -10.19360 -10.19038
 Alpha  occ. eigenvalues --  -10.18967 -10.18614 -10.18551 -10.18484 -10.18039
 Alpha  occ. eigenvalues --  -10.16945 -10.16696 -10.15790  -1.09951  -1.09052
 Alpha  occ. eigenvalues --   -1.03505  -1.01073  -1.00273  -0.99007  -0.97013
 Alpha  occ. eigenvalues --   -0.96188  -0.93698  -0.90039  -0.83949  -0.83258
 Alpha  occ. eigenvalues --   -0.81621  -0.80791  -0.79613  -0.79381  -0.78569
 Alpha  occ. eigenvalues --   -0.76218  -0.75492  -0.75052  -0.73849  -0.72879
 Alpha  occ. eigenvalues --   -0.70628  -0.70211  -0.69878  -0.69101  -0.67020
 Alpha  occ. eigenvalues --   -0.65738  -0.64865  -0.63011  -0.60742  -0.60209
 Alpha  occ. eigenvalues --   -0.59483  -0.58822  -0.57419  -0.56696  -0.56531
 Alpha  occ. eigenvalues --   -0.55423  -0.55283  -0.53336  -0.52914  -0.52007
 Alpha  occ. eigenvalues --   -0.51183  -0.50781  -0.50335  -0.50232  -0.49539
 Alpha  occ. eigenvalues --   -0.49002  -0.48470  -0.48068  -0.47613  -0.47419
 Alpha  occ. eigenvalues --   -0.47311  -0.47084  -0.46413  -0.45822  -0.45682
 Alpha  occ. eigenvalues --   -0.45395  -0.44628  -0.44525  -0.44247  -0.43683
 Alpha  occ. eigenvalues --   -0.43450  -0.43066  -0.42889  -0.42483  -0.42188
 Alpha  occ. eigenvalues --   -0.41928  -0.41783  -0.41481  -0.41170  -0.40983
 Alpha  occ. eigenvalues --   -0.40311  -0.39834  -0.39559  -0.39507  -0.39353
 Alpha  occ. eigenvalues --   -0.39275  -0.38870  -0.38413  -0.38181  -0.37657
 Alpha  occ. eigenvalues --   -0.37568  -0.37036  -0.36960  -0.36784  -0.36175
 Alpha  occ. eigenvalues --   -0.36051  -0.35833  -0.35426  -0.34977  -0.34655
 Alpha  occ. eigenvalues --   -0.33633  -0.32574  -0.32371  -0.32017  -0.31944
 Alpha  occ. eigenvalues --   -0.30688  -0.30176  -0.29821  -0.29282  -0.28660
 Alpha  occ. eigenvalues --   -0.27873  -0.27595  -0.25851  -0.25503  -0.24499
 Alpha  occ. eigenvalues --   -0.24205  -0.23265  -0.22841  -0.21391  -0.18596
 Alpha virt. eigenvalues --   -0.12763  -0.06791  -0.03272  -0.02852  -0.01727
 Alpha virt. eigenvalues --   -0.00484   0.00976   0.01967   0.02228   0.02338
 Alpha virt. eigenvalues --    0.02589   0.03541   0.04175   0.04674   0.05120

 Mulliken charges:
               1
     1  O   -0.168806
     2  O   -0.234249
     3  O   -0.201576
     4  O   -0.212258
     5  O   -0.335259
     6  O   -0.255315
     7  N   -0.046292
     8  N   -0.310366
     9  N   -0.182742
    10  N   -0.332795
    11  C   -0.013181
    12  C    0.245838
    13  C   -0.151027
    14  C   -0.130378
    15  C   -0.044641
    16  C   -0.002454
    17  C   -0.177960
    18  C   -0.055219
    19  C   -0.069769
    20  C   -0.082516
    21  C    0.132697
    22  C    0.155600
    23  C   -0.031366
    24  C    0.132408
    25  C    0.174321
    26  C   -0.079286
    27  C    0.045437
    28  C    0.027312
    29  C    0.004827
    30  C   -0.044988
    31  C    0.053020
    32  C    0.076017
    33  C   -0.087065
    34  C    0.130415
    35  C    0.157117
    36  C   -0.064862
    37  C    0.178202
    38  C    0.106659
    39  C   -0.181794
    40  C    0.214400
    41  C   -0.039870
    42  C    0.020612
    43  C   -0.112799
    44  H    0.080165
    45  H   -0.037770
    46  H   -0.005159
    47  H    0.144257
    48  H    0.170945
    49  H    0.032232
    50  H    0.006598
    51  H    0.011129
    52  H    0.018983
    53  H   -0.038543
    54  H    0.062487
    55  H   -0.027905
    56  H    0.032819
    57  H    0.040420
    58  H    0.007106
    59  H   -0.007959
    60  H    0.244732
    61  H    0.080183
    62  H    0.056749
    63  H    0.040791
    64  H    0.014376
    65  H    0.032162
    66  H    0.006108
    67  H    0.035755
    68  H    0.044701
    69  H   -0.029521
    70  H    0.024087
    71  H    0.024727
    72  H    0.227677
    73  H    0.035757
    74  H    0.028766
    75  H    0.041282
    76  H    0.035804
    77  H    0.251742
    78  H    0.055864
    79  H    0.052403
 Sum of Mulliken charges =  -0.00000

 Dipole moment (field-independent basis, Debye):
    X=              3.5138    Y=              3.4441    Z=             -1.5784  Tot=              5.1672
 Quadrupole moment (field-independent basis, Debye-Ang):
   XX=           -228.8663   YY=           -238.3138   ZZ=           -267.4665
   XY=              6.4916   XZ=            -17.3476   YZ=            -12.7125

 Normal termination of Gaussian 16 at Tue Jul 30 08:17:12 2019.
