 Gaussian 16, Revision A.03,
 Gaussian 16:  ES64L-G16RevA.03 25-Dec-2016

 --------------------------
 # td=(NStates=1) B3LYP/SVP
 --------------------------

 --
 TD
 --
 Symbolic Z-matrix:
 Charge =  0 Multiplicity = 1

                         Standard orientation:
 ---------------------------------------------------------------------
 Center     Atomic      Atomic             Coordinates (Angstroms)
 Number     Number       Type             X           Y           Z
 ---------------------------------------------------------------------
      1          8           0        5.253396    0.002552   -3.287749
      2          8           0       -2.922732   -2.984560    3.410758
      3          8           0       -3.358204   -0.837015    2.897118
      4          8           0       -1.714536    7.144081    1.517593
      5          8           0       -0.752313    7.067525   -0.455155
      6          8           0       -1.616359   -4.069130    0.142592
      7          7           0        2.388008    1.115887    0.555220
      8          7           0        4.330563   -0.569293   -1.254562
      9          7           0       -1.965227    0.716875   -0.281789
     10          7           0       -2.415874   -1.955515   -0.548941
     11          6           0        4.720696   -1.086049   -0.025422
     12          6           0        4.351191   -0.173550    1.343983
     13          6           0        2.997262    0.153669    1.385559
     14          6           0        1.974497   -0.513757    2.098430
     15          6           0        0.813971    0.046310    1.791554
     16          6           0        0.936601    1.111831    0.801953
     17          6           0        6.203506   -1.227109   -0.197633
     18          6           0       -0.506083   -0.210846    2.503775
     19          6           0        6.580464   -0.783155   -1.363542
     20          6           0        0.158890    2.032451    0.133850
     21          6           0       -1.153276    1.932055   -0.333597
     22          6           0        5.344887   -0.369228   -2.214085
     23          6           0       -2.044064    2.915603   -0.909759
     24          6           0        2.224798   -1.606945    3.165922
     25          6           0        7.096218   -1.840455    0.933261
     26          6           0       -3.244432    2.235584   -1.268594
     27          6           0       -1.069647   -1.675883    2.700410
     28          6           0       -3.131343    0.888662   -1.025020
     29          6           0       -1.796046    4.359507   -0.991983
     30          6           0        7.950012   -0.757993   -2.000345
     31          6           0       -1.943544    5.041100    0.319357
     32          6           0       -4.482178    2.910210   -1.924659
     33          6           0       -3.871468   -0.211775   -1.449606
     34          6           0       -2.511969   -1.758296    2.983966
     35          6           0       -3.540963   -1.547401   -1.157042
     36          6           0        9.204157   -0.900756   -1.533917
     37          6           0       -1.439975    6.501328    0.408037
     38          6           0       -4.424429   -2.759842   -1.524789
     39          6           0       -3.693671   -3.833762   -1.095599
     40          6           0       -2.488333   -3.369544   -0.471184
     41          6           0       -5.696616   -2.596823   -2.137461
     42          6           0       -4.080506   -5.312240   -0.913374
     43          6           0       -6.569902   -3.591567   -2.580624
     44          1           0        4.251242   -2.120358    0.089036
     45          1           0        5.130059    0.702525    1.317316
     46          1           0        4.680812   -0.943599    2.152970
     47          1           0        2.717300    1.867356   -0.085454
     48          1           0        3.459176   -0.779345   -1.684687
     49          1           0       -0.372805    0.169855    3.458380
     50          1           0       -1.329297    0.381443    2.016651
     51          1           0        0.651849    2.921606   -0.205069
     52          1           0        3.126682   -1.759945    3.286062
     53          1           0        1.565603   -1.460467    4.056048
     54          1           0        1.782449   -2.440103    2.720283
     55          1           0        6.452758   -2.183830    1.672756
     56          1           0        7.812163   -1.073162    1.449356
     57          1           0        7.673530   -2.820916    0.505302
     58          1           0       -0.792626   -2.146486    1.823604
     59          1           0       -0.430916   -2.283309    3.381029
     60          1           0       -1.546630   -0.263584   -0.120526
     61          1           0       -2.521313    4.833875   -1.741982
     62          1           0       -0.672609    4.657998   -1.541125
     63          1           0        7.773363   -0.497795   -3.178355
     64          1           0       -1.444475    4.417548    1.034259
     65          1           0       -2.935440    4.912023    0.752237
     66          1           0       -4.452200    3.969365   -2.008825
     67          1           0       -5.432704    2.651159   -1.514048
     68          1           0       -4.570555    2.405520   -3.112289
     69          1           0       -4.989964    0.180164   -1.911800
     70          1           0        9.345253   -1.006959   -0.410514
     71          1           0        9.955852   -0.489000   -2.225493
     72          1           0       -3.924355   -2.779317    3.348717
     73          1           0       -6.223067   -1.503412   -2.115138
     74          1           0       -5.149051   -5.384139   -0.472514
     75          1           0       -4.145386   -5.743678   -2.001500
     76          1           0       -3.205149   -5.979984   -0.371908
     77          1           0       -1.086404    7.983465    1.605484
     78          1           0       -7.650325   -3.423982   -3.066026
     79          1           0       -6.191349   -4.721827   -2.703931
 ---------------------------------------------------------------------

 SCF Done:  E(RB3LYP) =  -1947.84567509     A.U. after   19 cycles

 Excitation energies and oscillator strengths:

 Excited State   1:      Singlet-A      1.9137 eV  647.89 nm  f=0.5322  <S**2>=0.000
     154 ->156         0.12682
     155 ->156         0.69685
     155 <-156        -0.13520
 This state for optimization and/or second-order correction.
 Total Energy, E(TD-HF/TD-DFT) =  -1947.77534903
 Copying the excited state density for this state as the 1-particle RhoCI density.

 The electronic state is 1-A.
 Alpha  occ. eigenvalues --  -19.19692 -19.17218 -19.12699 -19.12424 -19.11378
 Alpha  occ. eigenvalues --  -19.09556 -14.39504 -14.35664 -14.35057 -14.28802
 Alpha  occ. eigenvalues --  -10.32967 -10.31199 -10.29520 -10.25884 -10.25700
 Alpha  occ. eigenvalues --  -10.24816 -10.24481 -10.24093 -10.23729 -10.23702
 Alpha  occ. eigenvalues --  -10.23147 -10.22592 -10.22541 -10.22357 -10.21758
 Alpha  occ. eigenvalues --  -10.21731 -10.21643 -10.21580 -10.21548 -10.21399
 Alpha  occ. eigenvalues --  -10.21324 -10.20954 -10.20405 -10.20305 -10.20283
 Alpha  occ. eigenvalues --  -10.20199 -10.20069 -10.20053 -10.19823 -10.19300
 Alpha  occ. eigenvalues --  -10.19075 -10.18980 -10.18971  -1.10510  -1.08231
 Alpha  occ. eigenvalues --   -1.07607  -0.99086  -0.98115  -0.97316  -0.97012
 Alpha  occ. eigenvalues --   -0.96205  -0.95872  -0.90604  -0.83172  -0.82738
 Alpha  occ. eigenvalues --   -0.82146  -0.81951  -0.79590  -0.79340  -0.77556
 Alpha  occ. eigenvalues --   -0.77185  -0.76353  -0.75363  -0.73754  -0.73405
 Alpha  occ. eigenvalues --   -0.71686  -0.71223  -0.69607  -0.68228  -0.67702
 Alpha  occ. eigenvalues --   -0.67476  -0.66312  -0.63676  -0.61140  -0.60660
 Alpha  occ. eigenvalues --   -0.60216  -0.59312  -0.58291  -0.57928  -0.56891
 Alpha  occ. eigenvalues --   -0.55580  -0.55162  -0.54584  -0.53991  -0.53228
 Alpha  occ. eigenvalues --   -0.51582  -0.51274  -0.50828  -0.50286  -0.49672
 Alpha  occ. eigenvalues --   -0.49189  -0.48648  -0.48037  -0.47809  -0.47463
 Alpha  occ. eigenvalues --   -0.47185  -0.46768  -0.46581  -0.46273  -0.45695
 Alpha  occ. eigenvalues --   -0.45503  -0.44941  -0.44395  -0.44037  -0.43593
 Alpha  occ. eigenvalues --   -0.43175  -0.42852  -0.42636  -0.42406  -0.42314
 Alpha  occ. eigenvalues --   -0.42220  -0.41876  -0.41762  -0.41569  -0.41161
 Alpha  occ. eigenvalues --   -0.40896  -0.40652  -0.40550  -0.40430  -0.39824
 Alpha  occ. eigenvalues --   -0.39682  -0.39229  -0.39157  -0.38497  -0.38207
 Alpha  occ. eigenvalues --   -0.38138  -0.37946  -0.37562  -0.36924  -0.36312
 Alpha  occ. eigenvalues --   -0.36059  -0.35353  -0.34925  -0.34257  -0.33792
 Alpha  occ. eigenvalues --   -0.33592  -0.33278  -0.33013  -0.32154  -0.32027
 Alpha  occ. eigenvalues --   -0.31204  -0.30245  -0.28867  -0.28227  -0.27836
 Alpha  occ. eigenvalues --   -0.27377  -0.26974  -0.26538  -0.26281  -0.25211
 Alpha  occ. eigenvalues --   -0.24956  -0.23801  -0.23643  -0.21958  -0.18622
 Alpha virt. eigenvalues --   -0.11346  -0.07433  -0.05541  -0.01663  -0.00888
 Alpha virt. eigenvalues --   -0.00194   0.00350   0.01215   0.02218   0.02504
 Alpha virt. eigenvalues --    0.02929   0.03398   0.03880   0.04640   0.04979

 Mulliken charges:
               1
     1  O   -0.107908
     2  O   -0.203298
     3  O   -0.283381
     4  O   -0.189867
     5  O   -0.263617
     6  O   -0.265874
     7  N   -0.161334
     8  N   -0.181348
     9  N   -0.185205
    10  N   -0.280842
    11  C    0.062100
    12  C    0.074176
    13  C    0.040241
    14  C   -0.188987
    15  C   -0.074040
    16  C    0.122385
    17  C   -0.204924
    18  C    0.053747
    19  C   -0.080743
    20  C   -0.073829
    21  C    0.069288
    22  C    0.127942
    23  C   -0.052567
    24  C    0.314967
    25  C    0.055132
    26  C   -0.105541
    27  C    0.052175
    28  C    0.117722
    29  C   -0.021670
    30  C   -0.054361
    31  C    0.050047
    32  C    0.059568
    33  C   -0.149886
    34  C    0.177526
    35  C    0.093218
    36  C   -0.032964
    37  C    0.146511
    38  C    0.092402
    39  C   -0.173438
    40  C    0.165874
    41  C   -0.067843
    42  C   -0.007824
    43  C   -0.119574
    44  H    0.026510
    45  H    0.022627
    46  H    0.027584
    47  H    0.136021
    48  H    0.115716
    49  H   -0.005382
    50  H    0.036834
    51  H   -0.025231
    52  H   -0.100287
    53  H    0.028318
    54  H    0.008943
    55  H   -0.011793
    56  H    0.059790
    57  H    0.067199
    58  H    0.029410
    59  H    0.011065
    60  H    0.178294
    61  H    0.026149
    62  H    0.059426
    63  H    0.038206
    64  H    0.019521
    65  H    0.021100
    66  H    0.008193
    67  H    0.024045
    68  H    0.042732
    69  H    0.028796
    70  H    0.026775
    71  H    0.040852
    72  H    0.194738
    73  H    0.035039
    74  H    0.047622
    75  H    0.035040
    76  H    0.069496
    77  H    0.230504
    78  H    0.055371
    79  H    0.046623
 Sum of Mulliken charges =  -0.00000

 Dipole moment (field-independent basis, Debye):
    X=              2.2593    Y=              2.9101    Z=              3.4101  Tot=              5.0202
 Quadrupole moment (field-independent basis, Debye-Ang):
   XX=           -225.8965   YY=           -253.3812   ZZ=           -261.7422
   XY=             -7.5922   XZ=             31.1216   YZ=              9.8306

 Normal termination of Gaussian 16 at Tue Sep 24 21:38:00 2019.
