 Gaussian 16, Revision A.03,
 Gaussian 16:  ES64L-G16RevA.03 25-Dec-2016

 --------------------------
 # td=(NStates=1) B3LYP/SVP
 --------------------------

 --
 TD
 --
 Symbolic Z-matrix:
 Charge =  0 Multiplicity = 1

                         Standard orientation:
 ---------------------------------------------------------------------
 Center     Atomic      Atomic             Coordinates (Angstroms)
 Number     Number       Type             X           Y           Z
 ---------------------------------------------------------------------
      1          8           0        5.469614    0.115397   -3.287684
      2          8           0       -3.020435   -2.975786    3.196696
      3          8           0       -3.297363   -0.734731    3.016650
      4          8           0       -1.743880    7.195927    1.567741
      5          8           0       -0.802893    7.034453   -0.489714
      6          8           0       -1.805834   -3.998968    0.197641
      7          7           0        2.357562    0.980728    0.652888
      8          7           0        4.418734   -0.570035   -1.263594
      9          7           0       -1.724472    0.714907   -0.527390
     10          7           0       -2.636783   -1.933119   -0.600870
     11          6           0        4.754154   -1.134316   -0.106476
     12          6           0        4.379073   -0.458536    1.117306
     13          6           0        2.985692   -0.086756    1.341888
     14          6           0        1.985229   -0.680939    2.240333
     15          6           0        0.694096   -0.033942    1.843540
     16          6           0        0.956638    0.959426    0.871276
     17          6           0        6.329002   -1.316328   -0.181636
     18          6           0       -0.593337   -0.240962    2.607813
     19          6           0        6.747404   -0.961299   -1.438480
     20          6           0        0.179164    1.960353    0.181725
     21          6           0       -1.085684    1.833693   -0.338733
     22          6           0        5.520756   -0.335674   -2.161779
     23          6           0       -1.854038    2.957495   -0.920062
     24          6           0        2.093996   -1.828908    3.071852
     25          6           0        7.072211   -1.940560    1.011054
     26          6           0       -3.114928    2.398916   -1.348129
     27          6           0       -1.110376   -1.699615    2.612390
     28          6           0       -2.980514    0.917891   -1.101952
     29          6           0       -1.540547    4.395613   -0.791510
     30          6           0        8.077162   -0.775620   -2.040637
     31          6           0       -1.792686    5.129177    0.535536
     32          6           0       -4.316109    3.012288   -1.860815
     33          6           0       -3.897170   -0.134419   -1.362880
     34          6           0       -2.559224   -1.737617    3.004639
     35          6           0       -3.728794   -1.494811   -1.226546
     36          6           0        9.201883   -0.688237   -1.376234
     37          6           0       -1.359547    6.541841    0.432342
     38          6           0       -4.563495   -2.620368   -1.566064
     39          6           0       -3.939304   -3.765473   -1.084703
     40          6           0       -2.683030   -3.369031   -0.368251
     41          6           0       -5.841079   -2.495834   -2.290619
     42          6           0       -4.297261   -5.136263   -1.144975
     43          6           0       -6.760215   -3.490226   -2.566517
     44          1           0        4.294533   -2.218199    0.173677
     45          1           0        4.647995    0.596532    1.026122
     46          1           0        4.887109   -0.935098    1.929764
     47          1           0        2.940181    1.525235   -0.110487
     48          1           0        3.420959   -0.408762   -1.539308
     49          1           0       -0.383907    0.272720    3.547146
     50          1           0       -1.456464    0.468745    2.013123
     51          1           0        0.437357    2.932719   -0.299979
     52          1           0        3.362154   -2.196921    3.311256
     53          1           0        1.587568   -1.655459    4.165832
     54          1           0        1.721458   -2.702609    2.566434
     55          1           0        6.306742   -2.661062    1.528570
     56          1           0        7.447921   -1.162839    1.852416
     57          1           0        7.880505   -2.539041    0.512149
     58          1           0       -1.007365   -2.256939    1.592038
     59          1           0       -0.628334   -2.342953    3.463084
     60          1           0       -1.280533   -0.218136   -0.363955
     61          1           0       -2.235497    4.877489   -1.497707
     62          1           0       -0.546755    4.576899   -1.469552
     63          1           0        8.011965   -0.783748   -3.134686
     64          1           0       -1.261896    4.798216    1.437855
     65          1           0       -2.922904    4.975674    0.797727
     66          1           0       -4.011169    4.099916   -2.042298
     67          1           0       -5.009038    2.744233   -1.057640
     68          1           0       -4.439916    2.361698   -2.756361
     69          1           0       -4.893705    0.116224   -1.719225
     70          1           0        9.435600   -0.745408   -0.184198
     71          1           0       10.111516   -0.491292   -1.857677
     72          1           0       -3.977806   -3.219318    3.293514
     73          1           0       -6.318136   -1.384431   -2.706917
     74          1           0       -5.192722   -5.372037   -0.561860
     75          1           0       -4.618763   -5.696627   -1.965901
     76          1           0       -3.456803   -5.703810   -0.664263
     77          1           0       -1.803225    8.236014    1.228563
     78          1           0       -7.579348   -2.986198   -2.951863
     79          1           0       -6.522981   -4.424902   -2.561434
 ---------------------------------------------------------------------

 SCF Done:  E(RB3LYP) =  -1947.80338421     A.U. after   18 cycles

 Excitation energies and oscillator strengths:

 Excited State   1:      Singlet-A      1.7685 eV  701.06 nm  f=0.3029  <S**2>=0.000
     154 ->156         0.24586
     155 ->156         0.65642
     155 <-156        -0.12696
 This state for optimization and/or second-order correction.
 Total Energy, E(TD-HF/TD-DFT) =  -1947.73839177
 Copying the excited state density for this state as the 1-particle RhoCI density.

 The electronic state is 1-A.
 Alpha  occ. eigenvalues --  -19.19105 -19.16458 -19.14022 -19.11702 -19.11184
 Alpha  occ. eigenvalues --  -19.09747 -14.38949 -14.36833 -14.36005 -14.27037
 Alpha  occ. eigenvalues --  -10.32498 -10.30290 -10.30100 -10.26429 -10.25212
 Alpha  occ. eigenvalues --  -10.24686 -10.23945 -10.23826 -10.23148 -10.23139
 Alpha  occ. eigenvalues --  -10.22861 -10.22305 -10.22000 -10.21801 -10.21698
 Alpha  occ. eigenvalues --  -10.21650 -10.21624 -10.21294 -10.21153 -10.21078
 Alpha  occ. eigenvalues --  -10.20904 -10.20554 -10.20343 -10.20271 -10.20055
 Alpha  occ. eigenvalues --  -10.19995 -10.19958 -10.19825 -10.19622 -10.19595
 Alpha  occ. eigenvalues --  -10.18933 -10.17844 -10.17771  -1.09999  -1.06548
 Alpha  occ. eigenvalues --   -1.03368  -1.01510  -1.01340  -0.98969  -0.96750
 Alpha  occ. eigenvalues --   -0.96708  -0.95473  -0.90968  -0.82891  -0.82093
 Alpha  occ. eigenvalues --   -0.81924  -0.80766  -0.80216  -0.79547  -0.78199
 Alpha  occ. eigenvalues --   -0.76924  -0.76295  -0.75534  -0.74593  -0.73302
 Alpha  occ. eigenvalues --   -0.71591  -0.70811  -0.70080  -0.68575  -0.68091
 Alpha  occ. eigenvalues --   -0.66579  -0.65915  -0.63579  -0.61730  -0.60583
 Alpha  occ. eigenvalues --   -0.59830  -0.58545  -0.57912  -0.57139  -0.56410
 Alpha  occ. eigenvalues --   -0.55360  -0.54940  -0.54584  -0.53655  -0.52833
 Alpha  occ. eigenvalues --   -0.52274  -0.52004  -0.51266  -0.50771  -0.49983
 Alpha  occ. eigenvalues --   -0.49458  -0.48688  -0.48207  -0.48048  -0.47705
 Alpha  occ. eigenvalues --   -0.46867  -0.46636  -0.46391  -0.46168  -0.45584
 Alpha  occ. eigenvalues --   -0.45079  -0.44629  -0.44195  -0.43784  -0.43557
 Alpha  occ. eigenvalues --   -0.43524  -0.43106  -0.42972  -0.42738  -0.42568
 Alpha  occ. eigenvalues --   -0.42378  -0.42037  -0.41857  -0.41709  -0.41208
 Alpha  occ. eigenvalues --   -0.40561  -0.40428  -0.40013  -0.39892  -0.39637
 Alpha  occ. eigenvalues --   -0.39007  -0.38966  -0.38648  -0.38442  -0.38117
 Alpha  occ. eigenvalues --   -0.37914  -0.37796  -0.37358  -0.36455  -0.35956
 Alpha  occ. eigenvalues --   -0.35910  -0.35080  -0.34831  -0.34477  -0.34295
 Alpha  occ. eigenvalues --   -0.34022  -0.33275  -0.33098  -0.32003  -0.30573
 Alpha  occ. eigenvalues --   -0.29983  -0.29674  -0.29546  -0.27939  -0.26922
 Alpha  occ. eigenvalues --   -0.26622  -0.26306  -0.25181  -0.25085  -0.24997
 Alpha  occ. eigenvalues --   -0.24101  -0.23226  -0.22859  -0.20977  -0.18049
 Alpha virt. eigenvalues --   -0.11010  -0.06513  -0.05881  -0.01018  -0.00569
 Alpha virt. eigenvalues --    0.00288   0.00502   0.01657   0.01861   0.02261
 Alpha virt. eigenvalues --    0.02608   0.03082   0.03590   0.04514   0.04874

 Mulliken charges:
               1
     1  O   -0.201663
     2  O   -0.204141
     3  O   -0.267149
     4  O   -0.261827
     5  O   -0.187540
     6  O   -0.201230
     7  N   -0.181552
     8  N   -0.180978
     9  N   -0.008733
    10  N   -0.330074
    11  C    0.042737
    12  C    0.207074
    13  C   -0.058640
    14  C   -0.086204
    15  C   -0.111050
    16  C    0.138344
    17  C   -0.153488
    18  C    0.012026
    19  C   -0.079572
    20  C   -0.050447
    21  C   -0.051193
    22  C    0.173916
    23  C   -0.100466
    24  C   -0.025992
    25  C    0.002766
    26  C   -0.159175
    27  C   -0.050404
    28  C    0.118523
    29  C    0.036921
    30  C    0.037536
    31  C    0.013580
    32  C    0.111311
    33  C   -0.081019
    34  C    0.157308
    35  C    0.048626
    36  C   -0.054659
    37  C    0.134733
    38  C    0.117594
    39  C   -0.185890
    40  C    0.181859
    41  C   -0.155473
    42  C    0.089371
    43  C    0.090956
    44  H    0.016521
    45  H   -0.029886
    46  H   -0.019963
    47  H    0.155704
    48  H    0.140533
    49  H    0.027432
    50  H    0.060514
    51  H   -0.010400
    52  H    0.011688
    53  H    0.051463
    54  H    0.054994
    55  H    0.042878
    56  H    0.071798
    57  H    0.055401
    58  H    0.107885
    59  H    0.037962
    60  H    0.155431
    61  H   -0.008403
    62  H    0.053539
    63  H    0.020324
    64  H    0.047109
    65  H    0.063374
    66  H    0.036198
    67  H    0.052236
    68  H    0.047612
    69  H   -0.047277
    70  H    0.044486
    71  H    0.012254
    72  H    0.203759
    73  H    0.035236
    74  H    0.005603
    75  H    0.006197
    76  H    0.024963
    77  H    0.230231
    78  H    0.008605
    79  H   -0.052623
 Sum of Mulliken charges =  -0.00000

 Dipole moment (field-independent basis, Debye):
    X=              0.1621    Y=              2.0855    Z=              2.0115  Tot=              2.9020
 Quadrupole moment (field-independent basis, Debye-Ang):
   XX=           -218.4289   YY=           -238.4869   ZZ=           -265.1685
   XY=            -12.7176   XZ=             26.8968   YZ=             -0.0436

 Normal termination of Gaussian 16 at Tue Sep 24 15:57:28 2019.
