 Gaussian 16, Revision A.03,
 Gaussian 16:  ES64L-G16RevA.03 25-Dec-2016

 --------------------------
 # td=(NStates=1) B3LYP/SVP
 --------------------------

 --
 TD
 --
 Symbolic Z-matrix:
 Charge =  0 Multiplicity = 1

                         Standard orientation:
 ---------------------------------------------------------------------
 Center     Atomic      Atomic             Coordinates (Angstroms)
 Number     Number       Type             X           Y           Z
 ---------------------------------------------------------------------
      1          8           0       -3.284123   -1.962998   -2.647071
      2          8           0        2.611666    3.918130    2.510596
      3          8           0        3.703436    2.322062    3.797727
      4          8           0        7.713728   -1.663228   -0.345982
      5          8           0        6.643788   -3.381140   -1.286969
      6          8           0       -2.703982    1.753820    1.200522
      7          7           0       -0.181046   -2.239950    1.255886
      8          7           0       -2.611580   -1.430847   -0.461350
      9          7           0        1.123455    0.004976   -0.677628
     10          7           0       -0.941625    1.381583   -0.403167
     11          6           0       -3.322344   -1.248991    0.805195
     12          6           0       -2.571925   -2.036745    1.971099
     13          6           0       -1.104911   -1.659120    2.074477
     14          6           0       -0.534532   -0.712748    2.921191
     15          6           0        0.793024   -0.629644    2.588029
     16          6           0        1.044470   -1.651111    1.553621
     17          6           0       -4.665405   -1.862468    0.608193
     18          6           0        1.910063    0.291055    3.056511
     19          6           0       -4.828121   -2.109701   -0.742315
     20          6           0        2.204990   -1.830286    0.711591
     21          6           0        2.143244   -0.980269   -0.420499
     22          6           0       -3.499712   -1.852565   -1.370911
     23          6           0        2.983272   -1.004431   -1.604585
     24          6           0       -1.326325    0.255868    3.729983
     25          6           0       -5.642864   -1.851097    1.752900
     26          6           0        2.482051   -0.038420   -2.509511
     27          6           0        1.747049    1.690325    2.432582
     28          6           0        1.392792    0.574195   -1.923503
     29          6           0        4.258291   -1.876624   -1.679870
     30          6           0       -5.856557   -2.772846   -1.587120
     31          6           0        5.370806   -1.241198   -0.967194
     32          6           0        3.090605    0.327395   -3.861265
     33          6           0        0.504244    1.598729   -2.412712
     34          6           0        2.889738    2.532253    2.923781
     35          6           0       -0.608661    2.033250   -1.604149
     36          6           0       -6.913581   -3.493900   -1.238053
     37          6           0        6.634100   -2.197786   -0.936512
     38          6           0       -1.485641    3.144232   -1.704218
     39          6           0       -2.354382    3.110283   -0.734762
     40          6           0       -2.033169    2.108853    0.183704
     41          6           0       -1.256937    4.108173   -2.846953
     42          6           0       -3.325540    4.251537   -0.316416
     43          6           0       -1.815931    5.322342   -2.967065
     44          1           0       -3.469083   -0.249075    1.267755
     45          1           0       -2.587478   -3.171090    1.827546
     46          1           0       -2.920676   -1.935397    2.896449
     47          1           0       -0.120324   -2.986182    0.533164
     48          1           0       -1.882198   -0.749400   -0.696491
     49          1           0        1.789715    0.328487    4.242171
     50          1           0        2.556074   -0.197652    2.506138
     51          1           0        3.082911   -2.445884    0.781471
     52          1           0       -2.240842   -0.290436    4.266974
     53          1           0       -0.592074    0.851385    4.529804
     54          1           0       -1.727509    0.777357    2.809342
     55          1           0       -5.691834   -0.981641    2.526475
     56          1           0       -5.298644   -2.641202    2.580888
     57          1           0       -6.674808   -2.158237    1.295467
     58          1           0        1.871799    1.533829    1.413582
     59          1           0        0.681646    1.973189    2.782783
     60          1           0        0.271847    0.218938   -0.039294
     61          1           0        4.558932   -1.941866   -2.783148
     62          1           0        4.308878   -2.894024   -1.346581
     63          1           0       -5.620048   -2.568249   -2.763698
     64          1           0        5.251953   -1.109680    0.134715
     65          1           0        5.558102   -0.122889   -1.412699
     66          1           0        4.130020   -0.215763   -4.178838
     67          1           0        3.089471    1.621935   -3.810724
     68          1           0        2.286536    0.111702   -4.723049
     69          1           0        0.630652    1.996431   -3.480362
     70          1           0       -7.229091   -3.945023   -0.377734
     71          1           0       -7.482008   -3.662010   -2.207028
     72          1           0        3.403420    4.255334    2.795083
     73          1           0       -0.547783    3.927071   -3.524786
     74          1           0       -3.912922    4.389550   -1.345496
     75          1           0       -3.953118    3.942501    0.431269
     76          1           0       -2.929255    5.284369    0.013993
     77          1           0        8.200388   -2.469954   -0.247879
     78          1           0       -1.382629    6.078871   -3.718513
     79          1           0       -2.423743    5.749978   -2.116986
 ---------------------------------------------------------------------

 SCF Done:  E(RB3LYP) =  -1947.77997309     A.U. after   23 cycles

 Excitation energies and oscillator strengths:

 Excited State   1:      Singlet-A      0.6191 eV 2002.75 nm  f=0.0008  <S**2>=0.000
     155 ->156         0.70341
 This state for optimization and/or second-order correction.
 Total Energy, E(TD-HF/TD-DFT) =  -1947.75722269
 Copying the excited state density for this state as the 1-particle RhoCI density.

 The electronic state is 1-A.
 Alpha  occ. eigenvalues --  -19.20412 -19.15634 -19.15010 -19.14675 -19.13165
 Alpha  occ. eigenvalues --  -19.07168 -14.37871 -14.37540 -14.34094 -14.31040
 Alpha  occ. eigenvalues --  -10.34559 -10.32486 -10.28400 -10.27390 -10.26383
 Alpha  occ. eigenvalues --  -10.26172 -10.25641 -10.25612 -10.24313 -10.24192
 Alpha  occ. eigenvalues --  -10.23993 -10.23611 -10.23130 -10.22614 -10.22466
 Alpha  occ. eigenvalues --  -10.21681 -10.21421 -10.21314 -10.21131 -10.21015
 Alpha  occ. eigenvalues --  -10.20927 -10.20454 -10.20285 -10.20211 -10.20093
 Alpha  occ. eigenvalues --  -10.19617 -10.19425 -10.18977 -10.18954 -10.18693
 Alpha  occ. eigenvalues --  -10.17619 -10.17615 -10.16752  -1.12900  -1.07952
 Alpha  occ. eigenvalues --   -1.01934  -1.01639  -1.00206  -0.98526  -0.98079
 Alpha  occ. eigenvalues --   -0.96843  -0.93586  -0.90951  -0.84258  -0.82734
 Alpha  occ. eigenvalues --   -0.81680  -0.81326  -0.80373  -0.79691  -0.78945
 Alpha  occ. eigenvalues --   -0.77497  -0.76522  -0.75638  -0.74202  -0.72571
 Alpha  occ. eigenvalues --   -0.70600  -0.70264  -0.69518  -0.69101  -0.67537
 Alpha  occ. eigenvalues --   -0.66882  -0.65912  -0.63753  -0.61593  -0.60320
 Alpha  occ. eigenvalues --   -0.59511  -0.59294  -0.57668  -0.57539  -0.56793
 Alpha  occ. eigenvalues --   -0.56266  -0.55812  -0.55486  -0.53183  -0.52767
 Alpha  occ. eigenvalues --   -0.52314  -0.52013  -0.51407  -0.51036  -0.50946
 Alpha  occ. eigenvalues --   -0.49935  -0.49530  -0.49424  -0.49121  -0.48580
 Alpha  occ. eigenvalues --   -0.47645  -0.47284  -0.46696  -0.46167  -0.45872
 Alpha  occ. eigenvalues --   -0.45354  -0.44906  -0.44447  -0.44386  -0.44250
 Alpha  occ. eigenvalues --   -0.43834  -0.43401  -0.43231  -0.42649  -0.42320
 Alpha  occ. eigenvalues --   -0.42006  -0.41891  -0.41617  -0.41140  -0.41061
 Alpha  occ. eigenvalues --   -0.40862  -0.40468  -0.40200  -0.39648  -0.39508
 Alpha  occ. eigenvalues --   -0.38947  -0.38771  -0.38741  -0.38092  -0.37719
 Alpha  occ. eigenvalues --   -0.37526  -0.37390  -0.36945  -0.36666  -0.36124
 Alpha  occ. eigenvalues --   -0.35884  -0.35766  -0.35472  -0.35375  -0.34764
 Alpha  occ. eigenvalues --   -0.34317  -0.34239  -0.32899  -0.31932  -0.31830
 Alpha  occ. eigenvalues --   -0.31437  -0.30458  -0.29512  -0.29329  -0.29156
 Alpha  occ. eigenvalues --   -0.28960  -0.27315  -0.26151  -0.24879  -0.24614
 Alpha  occ. eigenvalues --   -0.23360  -0.22951  -0.22601  -0.22126  -0.19061
 Alpha virt. eigenvalues --   -0.14078  -0.09111  -0.04487  -0.02797  -0.02417
 Alpha virt. eigenvalues --   -0.02040   0.00693   0.01333   0.02251   0.02410
 Alpha virt. eigenvalues --    0.03516   0.03917   0.04246   0.05071   0.05176

 Mulliken charges:
               1
     1  O   -0.329580
     2  O   -0.220967
     3  O   -0.201189
     4  O   -0.137258
     5  O   -0.256538
     6  O   -0.257559
     7  N   -0.055601
     8  N   -0.137195
     9  N   -0.183669
    10  N   -0.404822
    11  C    0.050059
    12  C    0.251461
    13  C   -0.150589
    14  C   -0.089506
    15  C   -0.184414
    16  C   -0.038461
    17  C   -0.103609
    18  C    0.203520
    19  C   -0.055460
    20  C   -0.055748
    21  C    0.068542
    22  C    0.135558
    23  C   -0.057453
    24  C   -0.008227
    25  C   -0.008603
    26  C   -0.083807
    27  C    0.014026
    28  C    0.153858
    29  C    0.106074
    30  C   -0.037410
    31  C   -0.083321
    32  C   -0.051080
    33  C   -0.113940
    34  C    0.164800
    35  C    0.109598
    36  C   -0.013691
    37  C    0.149733
    38  C    0.112498
    39  C   -0.178414
    40  C    0.221803
    41  C    0.043825
    42  C    0.050657
    43  C   -0.049275
    44  H    0.062309
    45  H   -0.017757
    46  H   -0.067906
    47  H    0.138840
    48  H    0.141323
    49  H    0.048349
    50  H   -0.075170
    51  H   -0.001244
    52  H    0.019486
    53  H    0.038494
    54  H    0.086006
    55  H    0.049554
    56  H    0.036729
    57  H    0.050113
    58  H    0.004709
    59  H    0.084096
    60  H    0.240492
    61  H    0.023335
    62  H    0.023925
    63  H    0.057666
    64  H    0.054902
    65  H    0.065086
    66  H    0.071414
    67  H    0.059088
    68  H    0.067350
    69  H    0.023438
    70  H   -0.008907
    71  H    0.030396
    72  H    0.125436
    73  H   -0.064371
    74  H    0.043544
    75  H    0.002666
    76  H    0.057471
    77  H    0.162828
    78  H    0.042279
    79  H    0.035404
 Sum of Mulliken charges =  -0.00000

 Dipole moment (field-independent basis, Debye):
    X=              4.0858    Y=              1.9529    Z=             -1.1087  Tot=              4.6623
 Quadrupole moment (field-independent basis, Debye-Ang):
   XX=           -244.9060   YY=           -247.6533   ZZ=           -261.7657
   XY=             -4.4380   XZ=            -26.3693   YZ=            -23.5831

 Normal termination of Gaussian 16 at Mon Jul 29 00:10:23 2019.
