 Gaussian 16, Revision A.03,
 Gaussian 16:  ES64L-G16RevA.03 25-Dec-2016

 --------------------------
 # td=(NStates=1) B3LYP/SVP
 --------------------------

 --
 TD
 --
 Symbolic Z-matrix:
 Charge =  0 Multiplicity = 1

                         Standard orientation:
 ---------------------------------------------------------------------
 Center     Atomic      Atomic             Coordinates (Angstroms)
 Number     Number       Type             X           Y           Z
 ---------------------------------------------------------------------
      1          8           0       -3.437816   -1.241527   -2.997998
      2          8           0        3.249471    2.788167    3.213953
      3          8           0        3.604360    1.048892    4.561029
      4          8           0        7.878035   -1.465765   -0.996677
      5          8           0        6.729259   -2.931642   -2.153542
      6          8           0       -2.514971    1.664209    1.698230
      7          7           0       -0.250084   -2.420312    0.721181
      8          7           0       -2.807354   -1.152414   -0.743451
      9          7           0        1.230488    0.191318   -0.620319
     10          7           0       -0.884731    1.535164    0.030376
     11          6           0       -3.425136   -1.366804    0.553378
     12          6           0       -2.617934   -2.462931    1.440146
     13          6           0       -1.176813   -2.036167    1.599373
     14          6           0       -0.544137   -1.389716    2.697608
     15          6           0        0.769971   -1.310149    2.386988
     16          6           0        0.896021   -1.838229    1.128607
     17          6           0       -4.763457   -1.904099    0.219226
     18          6           0        1.845562   -0.613380    3.101946
     19          6           0       -4.907482   -1.995510   -1.128381
     20          6           0        2.050851   -1.937124    0.197123
     21          6           0        2.144461   -0.881143   -0.636831
     22          6           0       -3.598504   -1.331213   -1.829299
     23          6           0        3.057392   -0.498547   -1.746894
     24          6           0       -1.363805   -0.738797    3.825352
     25          6           0       -5.678133   -2.247795    1.282300
     26          6           0        2.572493    0.607442   -2.408112
     27          6           0        1.930662    0.880245    2.735276
     28          6           0        1.427686    1.093151   -1.622171
     29          6           0        4.262116   -1.331365   -2.201037
     30          6           0       -5.865126   -2.433781   -2.050409
     31          6           0        5.474521   -1.021988   -1.236632
     32          6           0        3.056541    1.355931   -3.546564
     33          6           0        0.455361    2.148227   -1.894366
     34          6           0        3.067525    1.570340    3.578940
     35          6           0       -0.622774    2.310582   -1.047676
     36          6           0       -7.173551   -3.011493   -1.795318
     37          6           0        6.640871   -1.948294   -1.509797
     38          6           0       -1.419180    3.492222   -1.007919
     39          6           0       -2.265720    3.378739    0.019874
     40          6           0       -1.909998    2.074210    0.683380
     41          6           0       -1.260518    4.634767   -2.009028
     42          6           0       -3.432786    4.262015    0.410539
     43          6           0       -1.959289    5.803860   -2.108731
     44          1           0       -3.481066   -0.465754    1.157898
     45          1           0       -2.809224   -3.328042    0.860250
     46          1           0       -3.104706   -2.381619    2.287446
     47          1           0       -0.427377   -2.584683   -0.207685
     48          1           0       -1.970245   -0.600333   -0.616531
     49          1           0        1.615097   -0.754470    4.088682
     50          1           0        2.832931   -1.106655    2.923171
     51          1           0        2.622475   -2.770327    0.291080
     52          1           0       -2.033213   -1.336678    4.382728
     53          1           0       -0.602271    0.005495    4.453760
     54          1           0       -2.206573    0.040777    3.358045
     55          1           0       -5.536382   -1.782284    2.228855
     56          1           0       -5.970811   -3.373425    1.283231
     57          1           0       -6.749891   -1.741173    0.903214
     58          1           0        2.335778    1.220121    1.727157
     59          1           0        0.959480    1.437767    2.990757
     60          1           0        0.342871    0.334591   -0.005265
     61          1           0        4.464223   -1.282503   -3.162076
     62          1           0        4.285295   -2.523062   -2.186616
     63          1           0       -5.612662   -2.307805   -3.081625
     64          1           0        5.245422   -1.248259   -0.107065
     65          1           0        5.844114    0.053597   -1.302809
     66          1           0        4.041139    1.074136   -3.850326
     67          1           0        3.014622    2.573184   -3.398403
     68          1           0        2.390655    1.040563   -4.575876
     69          1           0        0.682017    2.752834   -2.718788
     70          1           0       -7.558649   -3.288168   -0.826859
     71          1           0       -7.784019   -3.229769   -2.738404
     72          1           0        4.153705    3.148504    3.751725
     73          1           0       -0.629122    4.287921   -2.676949
     74          1           0       -4.129261    4.592163   -0.539935
     75          1           0       -4.137098    3.938075    1.172523
     76          1           0       -3.073347    5.302617    0.869399
     77          1           0        8.426012   -2.294789   -1.072515
     78          1           0       -1.770204    6.491774   -3.073351
     79          1           0       -2.760803    6.251484   -1.388658
 ---------------------------------------------------------------------

 SCF Done:  E(RB3LYP) =  -1947.84343401     A.U. after   19 cycles

 Excitation energies and oscillator strengths:

 Excited State   1:      Singlet-A      0.9227 eV 1343.71 nm  f=0.0013  <S**2>=0.000
     155 ->156         0.70036
 This state for optimization and/or second-order correction.
 Total Energy, E(TD-HF/TD-DFT) =  -1947.80952544
 Copying the excited state density for this state as the 1-particle RhoCI density.

 The electronic state is 1-A.
 Alpha  occ. eigenvalues --  -19.19974 -19.17434 -19.15129 -19.11300 -19.11151
 Alpha  occ. eigenvalues --  -19.09547 -14.38027 -14.36919 -14.33940 -14.30789
 Alpha  occ. eigenvalues --  -10.33556 -10.31147 -10.27781 -10.27449 -10.27438
 Alpha  occ. eigenvalues --  -10.26648 -10.24980 -10.24703 -10.24313 -10.24107
 Alpha  occ. eigenvalues --  -10.23619 -10.23003 -10.22769 -10.22159 -10.21697
 Alpha  occ. eigenvalues --  -10.21372 -10.21177 -10.20911 -10.20797 -10.20429
 Alpha  occ. eigenvalues --  -10.20404 -10.20205 -10.20111 -10.20026 -10.19348
 Alpha  occ. eigenvalues --  -10.19168 -10.19106 -10.18655 -10.18561 -10.18315
 Alpha  occ. eigenvalues --  -10.17584 -10.16938 -10.16623  -1.10949  -1.10402
 Alpha  occ. eigenvalues --   -1.02890  -1.01557  -1.00525  -1.00241  -0.99317
 Alpha  occ. eigenvalues --   -0.98722  -0.94782  -0.93344  -0.84299  -0.83399
 Alpha  occ. eigenvalues --   -0.81781  -0.81074  -0.80686  -0.79743  -0.78911
 Alpha  occ. eigenvalues --   -0.77108  -0.76053  -0.74988  -0.74171  -0.73272
 Alpha  occ. eigenvalues --   -0.70498  -0.69734  -0.69643  -0.68449  -0.67594
 Alpha  occ. eigenvalues --   -0.67440  -0.66045  -0.63816  -0.61432  -0.60952
 Alpha  occ. eigenvalues --   -0.60592  -0.59378  -0.58820  -0.57887  -0.57256
 Alpha  occ. eigenvalues --   -0.57049  -0.56180  -0.55704  -0.54170  -0.53870
 Alpha  occ. eigenvalues --   -0.52329  -0.51902  -0.51178  -0.50929  -0.50438
 Alpha  occ. eigenvalues --   -0.49422  -0.49004  -0.48806  -0.48482  -0.48310
 Alpha  occ. eigenvalues --   -0.47860  -0.46877  -0.46483  -0.46086  -0.45621
 Alpha  occ. eigenvalues --   -0.45574  -0.45327  -0.45026  -0.44479  -0.44430
 Alpha  occ. eigenvalues --   -0.43757  -0.43548  -0.43341  -0.43016  -0.42467
 Alpha  occ. eigenvalues --   -0.42228  -0.41724  -0.41607  -0.41413  -0.41234
 Alpha  occ. eigenvalues --   -0.41191  -0.40813  -0.40429  -0.40278  -0.40147
 Alpha  occ. eigenvalues --   -0.39500  -0.39387  -0.38868  -0.38749  -0.38224
 Alpha  occ. eigenvalues --   -0.38155  -0.37946  -0.37365  -0.36620  -0.36378
 Alpha  occ. eigenvalues --   -0.36250  -0.35827  -0.35321  -0.35064  -0.34551
 Alpha  occ. eigenvalues --   -0.34223  -0.33649  -0.33101  -0.32560  -0.31674
 Alpha  occ. eigenvalues --   -0.31455  -0.30121  -0.29628  -0.29328  -0.29151
 Alpha  occ. eigenvalues --   -0.27815  -0.26751  -0.25703  -0.25137  -0.24547
 Alpha  occ. eigenvalues --   -0.24277  -0.24004  -0.23231  -0.20960  -0.18924
 Alpha virt. eigenvalues --   -0.12969  -0.07562  -0.04605  -0.02085  -0.01637
 Alpha virt. eigenvalues --    0.00172   0.01263   0.01655   0.01804   0.02457
 Alpha virt. eigenvalues --    0.02804   0.03307   0.04782   0.05064   0.05377

 Mulliken charges:
               1
     1  O   -0.189404
     2  O   -0.188868
     3  O   -0.267303
     4  O   -0.257850
     5  O   -0.185521
     6  O   -0.239367
     7  N    0.063968
     8  N   -0.191598
     9  N   -0.139957
    10  N   -0.279411
    11  C    0.016433
    12  C    0.352867
    13  C   -0.182536
    14  C   -0.070459
    15  C   -0.092183
    16  C   -0.132593
    17  C   -0.156636
    18  C    0.203649
    19  C   -0.056360
    20  C   -0.093215
    21  C    0.221447
    22  C    0.161104
    23  C   -0.037138
    24  C   -0.011964
    25  C    0.030041
    26  C   -0.078781
    27  C   -0.055200
    28  C    0.065809
    29  C    0.083849
    30  C   -0.042114
    31  C   -0.039292
    32  C   -0.004235
    33  C   -0.081982
    34  C    0.108438
    35  C    0.170397
    36  C   -0.059029
    37  C    0.129368
    38  C   -0.008743
    39  C   -0.164121
    40  C    0.148267
    41  C    0.128713
    42  C   -0.002830
    43  C   -0.082490
    44  H    0.036818
    45  H   -0.032298
    46  H   -0.075886
    47  H    0.086451
    48  H    0.117373
    49  H   -0.017768
    50  H   -0.009115
    51  H   -0.023065
    52  H    0.003716
    53  H    0.028181
    54  H    0.062530
    55  H    0.019065
    56  H    0.053845
    57  H    0.042249
    58  H    0.037419
    59  H    0.069470
    60  H    0.232793
    61  H   -0.030793
    62  H    0.049921
    63  H   -0.003196
    64  H    0.075442
    65  H    0.061207
    66  H    0.016274
    67  H    0.070241
    68  H    0.065618
    69  H   -0.037399
    70  H    0.011867
    71  H    0.034791
    72  H    0.237730
    73  H   -0.082911
    74  H    0.051089
    75  H    0.026499
    76  H    0.041758
    77  H    0.186378
    78  H    0.045793
    79  H    0.054742
 Sum of Mulliken charges =  -0.00000

 Dipole moment (field-independent basis, Debye):
    X=              4.4562    Y=              2.5853    Z=             -1.7692  Tot=              5.4472
 Quadrupole moment (field-independent basis, Debye-Ang):
   XX=           -247.7158   YY=           -237.9897   ZZ=           -271.8313
   XY=              3.1433   XZ=            -22.0008   YZ=            -10.6522

 Normal termination of Gaussian 16 at Sat Jul 27 06:02:33 2019.
