 Gaussian 16, Revision A.03,
 Gaussian 16:  ES64L-G16RevA.03 25-Dec-2016

 --------------------------
 # td=(NStates=1) B3LYP/SVP
 --------------------------

 --
 TD
 --
 Symbolic Z-matrix:
 Charge =  0 Multiplicity = 1

                         Standard orientation:
 ---------------------------------------------------------------------
 Center     Atomic      Atomic             Coordinates (Angstroms)
 Number     Number       Type             X           Y           Z
 ---------------------------------------------------------------------
      1          8           0        5.330399   -0.273161   -3.275365
      2          8           0       -2.967374   -2.917346    3.342318
      3          8           0       -3.492680   -0.726764    2.808760
      4          8           0       -1.683679    7.263753    1.388773
      5          8           0       -1.015481    7.103828   -0.783290
      6          8           0       -1.616682   -3.999695    0.049278
      7          7           0        2.276509    1.085055    0.621563
      8          7           0        4.374908   -0.577245   -1.227418
      9          7           0       -1.784649    0.685841   -0.447684
     10          7           0       -2.443070   -2.021651   -0.577011
     11          6           0        4.836865   -1.031603    0.052028
     12          6           0        4.435581   -0.039578    1.301628
     13          6           0        2.923780    0.150174    1.345877
     14          6           0        1.959217   -0.508626    2.123715
     15          6           0        0.721505    0.150169    1.860592
     16          6           0        0.989257    1.117231    0.774212
     17          6           0        6.288680   -1.274959   -0.104408
     18          6           0       -0.596759   -0.024480    2.615642
     19          6           0        6.640464   -0.834843   -1.291097
     20          6           0        0.241021    2.072581    0.151498
     21          6           0       -1.091018    1.804546   -0.358623
     22          6           0        5.381117   -0.562528   -2.162784
     23          6           0       -1.985759    2.899433   -0.960640
     24          6           0        2.317200   -1.348262    3.346607
     25          6           0        7.122038   -1.861826    0.966858
     26          6           0       -3.191383    2.182173   -1.320670
     27          6           0       -1.153459   -1.546507    2.691817
     28          6           0       -3.113332    0.723382   -0.995192
     29          6           0       -1.637314    4.297190   -1.004494
     30          6           0        7.885091   -0.910144   -2.074238
     31          6           0       -1.667519    5.011248    0.352512
     32          6           0       -4.463006    2.890828   -1.931361
     33          6           0       -3.952020   -0.225268   -1.362262
     34          6           0       -2.583524   -1.615478    2.955508
     35          6           0       -3.568447   -1.617045   -1.213584
     36          6           0        9.068480   -0.900234   -1.558515
     37          6           0       -1.445020    6.516563    0.238709
     38          6           0       -4.391514   -2.859806   -1.543104
     39          6           0       -3.757496   -3.909462   -1.045930
     40          6           0       -2.480766   -3.346794   -0.512610
     41          6           0       -5.828362   -2.588358   -1.898152
     42          6           0       -4.190609   -5.366319   -1.071743
     43          6           0       -6.761548   -3.555552   -2.194441
     44          1           0        4.335469   -2.023891    0.274109
     45          1           0        4.863372    0.931225    1.045799
     46          1           0        4.819699   -0.525481    2.146583
     47          1           0        2.996544    1.572833    0.006366
     48          1           0        3.450963   -0.859812   -1.733409
     49          1           0       -0.263204    0.427073    3.637274
     50          1           0       -1.440412    0.528144    2.066789
     51          1           0        0.578352    3.084428    0.007614
     52          1           0        3.432922   -1.263937    3.811623
     53          1           0        1.564295   -1.008953    4.325202
     54          1           0        1.957100   -2.392388    3.361655
     55          1           0        6.759962   -2.650104    1.597296
     56          1           0        7.993205   -1.155331    1.530565
     57          1           0        7.732997   -2.709983    0.417774
     58          1           0       -1.101567   -2.029173    1.785607
     59          1           0       -0.737199   -2.153302    3.524902
     60          1           0       -1.370643   -0.200136   -0.220093
     61          1           0       -2.255672    4.753459   -1.721347
     62          1           0       -0.502292    4.165677   -1.429444
     63          1           0        7.942497   -1.008836   -3.141787
     64          1           0       -0.808188    4.611809    1.036615
     65          1           0       -2.736395    4.921396    0.772085
     66          1           0       -3.984653    3.917986   -2.553689
     67          1           0       -5.367629    3.316648   -1.256354
     68          1           0       -4.639116    2.129754   -2.789175
     69          1           0       -4.865039    0.072035   -2.032429
     70          1           0        9.009081   -0.862597   -0.519749
     71          1           0       10.003666   -1.028620   -2.144724
     72          1           0       -3.991307   -3.109785    3.502503
     73          1           0       -5.872628   -1.685806   -2.287505
     74          1           0       -5.359162   -5.525544   -0.650975
     75          1           0       -4.090492   -5.772098   -2.063826
     76          1           0       -3.424812   -5.921686   -0.485734
     77          1           0       -1.160849    8.005135    1.213184
     78          1           0       -7.778056   -3.078383   -2.651990
     79          1           0       -6.801345   -4.607769   -2.251386
 ---------------------------------------------------------------------

 SCF Done:  E(RB3LYP) =  -1947.78401267     A.U. after   19 cycles

 Excitation energies and oscillator strengths:

 Excited State   1:      Singlet-A      1.9520 eV  635.15 nm  f=0.4533  <S**2>=0.000
     155 ->156         0.70812
     155 <-156        -0.13316
 This state for optimization and/or second-order correction.
 Total Energy, E(TD-HF/TD-DFT) =  -1947.71227624
 Copying the excited state density for this state as the 1-particle RhoCI density.

 The electronic state is 1-A.
 Alpha  occ. eigenvalues --  -19.18504 -19.16141 -19.13675 -19.11242 -19.10859
 Alpha  occ. eigenvalues --  -19.09620 -14.38980 -14.37050 -14.35707 -14.29053
 Alpha  occ. eigenvalues --  -10.33487 -10.31123 -10.28212 -10.25585 -10.25429
 Alpha  occ. eigenvalues --  -10.25225 -10.24729 -10.24277 -10.23763 -10.23445
 Alpha  occ. eigenvalues --  -10.22665 -10.22635 -10.22606 -10.22364 -10.22182
 Alpha  occ. eigenvalues --  -10.21843 -10.21785 -10.21654 -10.21609 -10.21360
 Alpha  occ. eigenvalues --  -10.21145 -10.20996 -10.20658 -10.20109 -10.20083
 Alpha  occ. eigenvalues --  -10.19999 -10.19743 -10.19465 -10.19436 -10.19393
 Alpha  occ. eigenvalues --  -10.19038 -10.18653 -10.17994  -1.09608  -1.06674
 Alpha  occ. eigenvalues --   -1.03584  -1.01516  -1.01067  -0.99676  -0.97878
 Alpha  occ. eigenvalues --   -0.95368  -0.95038  -0.92516  -0.82985  -0.82812
 Alpha  occ. eigenvalues --   -0.82069  -0.80597  -0.80261  -0.80045  -0.78152
 Alpha  occ. eigenvalues --   -0.76828  -0.76706  -0.75878  -0.74842  -0.71947
 Alpha  occ. eigenvalues --   -0.71436  -0.70343  -0.69188  -0.68470  -0.67494
 Alpha  occ. eigenvalues --   -0.67309  -0.66443  -0.64444  -0.61292  -0.60227
 Alpha  occ. eigenvalues --   -0.59809  -0.59591  -0.58051  -0.57770  -0.56006
 Alpha  occ. eigenvalues --   -0.55369  -0.55033  -0.54969  -0.54382  -0.53970
 Alpha  occ. eigenvalues --   -0.52216  -0.51717  -0.51310  -0.50171  -0.50005
 Alpha  occ. eigenvalues --   -0.48796  -0.48556  -0.48267  -0.47792  -0.47379
 Alpha  occ. eigenvalues --   -0.47134  -0.46653  -0.46017  -0.45655  -0.45531
 Alpha  occ. eigenvalues --   -0.44978  -0.44637  -0.44482  -0.44349  -0.43958
 Alpha  occ. eigenvalues --   -0.43497  -0.43455  -0.43105  -0.42904  -0.42657
 Alpha  occ. eigenvalues --   -0.42189  -0.42120  -0.41423  -0.41198  -0.40847
 Alpha  occ. eigenvalues --   -0.40646  -0.40329  -0.40016  -0.39910  -0.39673
 Alpha  occ. eigenvalues --   -0.39321  -0.39113  -0.38769  -0.38476  -0.37565
 Alpha  occ. eigenvalues --   -0.37517  -0.37245  -0.36802  -0.36412  -0.36296
 Alpha  occ. eigenvalues --   -0.35760  -0.35299  -0.34811  -0.34507  -0.34050
 Alpha  occ. eigenvalues --   -0.33969  -0.33742  -0.33159  -0.32667  -0.32117
 Alpha  occ. eigenvalues --   -0.31071  -0.29323  -0.28631  -0.28216  -0.27458
 Alpha  occ. eigenvalues --   -0.26834  -0.26535  -0.25663  -0.25406  -0.24828
 Alpha  occ. eigenvalues --   -0.24571  -0.24289  -0.24053  -0.22852  -0.18473
 Alpha virt. eigenvalues --   -0.11143  -0.06362  -0.04996  -0.02298  -0.01588
 Alpha virt. eigenvalues --    0.00394   0.01635   0.02184   0.02352   0.02508
 Alpha virt. eigenvalues --    0.03115   0.03732   0.03933   0.04208   0.04306

 Mulliken charges:
               1
     1  O   -0.134373
     2  O   -0.289321
     3  O   -0.289050
     4  O   -0.176338
     5  O   -0.260612
     6  O   -0.204536
     7  N    0.013286
     8  N   -0.219643
     9  N   -0.063161
    10  N   -0.211101
    11  C    0.064266
    12  C    0.285120
    13  C   -0.176210
    14  C   -0.051101
    15  C   -0.125357
    16  C    0.107139
    17  C   -0.123279
    18  C    0.030096
    19  C   -0.056816
    20  C   -0.127420
    21  C    0.009400
    22  C    0.098809
    23  C   -0.098578
    24  C   -0.044151
    25  C    0.004165
    26  C   -0.146286
    27  C    0.095545
    28  C    0.234316
    29  C    0.093145
    30  C   -0.034244
    31  C    0.001505
    32  C   -0.051580
    33  C   -0.148666
    34  C    0.158478
    35  C    0.025665
    36  C    0.022433
    37  C    0.144537
    38  C    0.001660
    39  C   -0.205005
    40  C    0.101782
    41  C    0.094843
    42  C    0.054153
    43  C   -0.057007
    44  H    0.018708
    45  H   -0.017206
    46  H   -0.020852
    47  H    0.136888
    48  H    0.159024
    49  H    0.042106
    50  H    0.049319
    51  H   -0.016907
    52  H    0.049244
    53  H    0.018135
    54  H    0.034017
    55  H    0.008760
    56  H    0.083444
    57  H    0.035065
    58  H    0.039080
    59  H    0.033700
    60  H    0.131448
    61  H   -0.012944
    62  H    0.048254
    63  H   -0.006473
    64  H    0.072500
    65  H    0.063632
    66  H    0.036609
    67  H    0.085634
    68  H    0.048130
    69  H    0.037253
    70  H   -0.031407
    71  H    0.026907
    72  H    0.226075
    73  H   -0.045847
    74  H    0.051503
    75  H    0.028125
    76  H    0.028338
    77  H    0.156234
    78  H    0.032274
    79  H    0.024720
 Sum of Mulliken charges =  -0.00000

 Dipole moment (field-independent basis, Debye):
    X=              1.8037    Y=              0.6054    Z=              2.4035  Tot=              3.0654
 Quadrupole moment (field-independent basis, Debye-Ang):
   XX=           -221.8530   YY=           -253.4028   ZZ=           -261.0954
   XY=             -0.6640   XZ=             30.4882   YZ=              7.5103

 Normal termination of Gaussian 16 at Mon Sep 23 14:42:46 2019.
