 Gaussian 16, Revision A.03,
 Gaussian 16:  ES64L-G16RevA.03 25-Dec-2016

 --------------------------
 # td=(NStates=1) B3LYP/SVP
 --------------------------

 --
 TD
 --
 Symbolic Z-matrix:
 Charge =  0 Multiplicity = 1

                         Standard orientation:
 ---------------------------------------------------------------------
 Center     Atomic      Atomic             Coordinates (Angstroms)
 Number     Number       Type             X           Y           Z
 ---------------------------------------------------------------------
      1          8           0       -3.176354   -1.663124   -2.804246
      2          8           0        2.731380    3.623818    2.921971
      3          8           0        3.192871    2.199363    4.525849
      4          8           0        7.773330   -1.631971   -0.595052
      5          8           0        6.695187   -3.197699   -1.710396
      6          8           0       -2.583560    1.759999    1.188236
      7          7           0       -0.203584   -2.477753    1.266305
      8          7           0       -2.604952   -1.145693   -0.580249
      9          7           0        1.116395   -0.070467   -0.762829
     10          7           0       -0.944140    1.380139   -0.378965
     11          6           0       -3.346017   -1.297566    0.671063
     12          6           0       -2.584624   -2.310838    1.675812
     13          6           0       -1.186469   -1.931131    1.925379
     14          6           0       -0.729097   -1.019036    2.879387
     15          6           0        0.725188   -0.763245    2.545507
     16          6           0        1.007338   -1.699623    1.488859
     17          6           0       -4.676305   -1.846514    0.401422
     18          6           0        1.713237    0.117110    3.304017
     19          6           0       -4.697647   -2.204060   -0.932589
     20          6           0        2.145289   -1.860054    0.587136
     21          6           0        2.069522   -0.965356   -0.520705
     22          6           0       -3.429409   -1.622757   -1.604447
     23          6           0        3.047886   -0.866154   -1.579001
     24          6           0       -1.458729   -0.178817    3.881094
     25          6           0       -5.713422   -1.940325    1.461617
     26          6           0        2.663855    0.254153   -2.377888
     27          6           0        1.725032    1.561748    2.667324
     28          6           0        1.386077    0.710228   -1.860689
     29          6           0        4.345961   -1.770211   -1.696856
     30          6           0       -5.776827   -2.662573   -1.757998
     31          6           0        5.496959   -1.308696   -0.989199
     32          6           0        3.322819    0.742955   -3.613837
     33          6           0        0.587225    1.810313   -2.248421
     34          6           0        2.644295    2.501514    3.457379
     35          6           0       -0.566999    2.201032   -1.458380
     36          6           0       -6.707048   -3.529284   -1.348270
     37          6           0        6.707450   -2.196076   -1.137078
     38          6           0       -1.410340    3.345589   -1.593748
     39          6           0       -2.330769    3.336521   -0.630281
     40          6           0       -2.032857    2.045018    0.144612
     41          6           0       -1.058312    4.280361   -2.758391
     42          6           0       -3.480974    4.209081   -0.302589
     43          6           0       -1.945520    5.283987   -3.141018
     44          1           0       -3.434387   -0.406671    1.305022
     45          1           0       -2.525647   -3.280788    0.998156
     46          1           0       -3.328673   -2.582044    2.573768
     47          1           0       -0.333516   -3.175832    0.397704
     48          1           0       -1.967508   -0.314984   -0.559291
     49          1           0        1.622443    0.178259    4.318749
     50          1           0        2.646287   -0.498694    3.152710
     51          1           0        2.911590   -2.702156    0.799481
     52          1           0       -2.271941   -0.859549    4.253416
     53          1           0       -1.023975    0.118184    4.836790
     54          1           0       -1.856484    0.759897    3.258446
     55          1           0       -5.667736   -1.009611    2.092152
     56          1           0       -5.412064   -2.830200    1.815310
     57          1           0       -6.680885   -2.162468    0.928560
     58          1           0        2.023864    1.740625    1.645413
     59          1           0        0.714958    1.926422    2.654389
     60          1           0        0.317209    0.216393   -0.122170
     61          1           0        4.728260   -1.738007   -2.778297
     62          1           0        3.902809   -2.710321   -1.452266
     63          1           0       -5.871705   -2.205424   -2.677762
     64          1           0        5.199788   -1.083286    0.049506
     65          1           0        5.814271   -0.344442   -1.232748
     66          1           0        4.394396    0.316221   -3.596187
     67          1           0        3.357401    1.832410   -3.603182
     68          1           0        2.762206    0.185255   -4.607589
     69          1           0        0.804894    2.622721   -2.939401
     70          1           0       -6.725748   -3.991775   -0.354237
     71          1           0       -7.437779   -3.876263   -1.895063
     72          1           0        3.305360    4.216760    3.564913
     73          1           0       -0.207957    4.052922   -3.248377
     74          1           0       -4.321384    4.184348   -1.036408
     75          1           0       -3.761026    3.963153    0.821194
     76          1           0       -3.059993    5.135531   -0.301467
     77          1           0        8.540392   -2.065654   -0.777166
     78          1           0       -1.602546    5.949480   -4.002555
     79          1           0       -2.904643    5.349139   -2.537595
 ---------------------------------------------------------------------

 SCF Done:  E(RB3LYP) =  -1947.87016480     A.U. after   19 cycles

 Excitation energies and oscillator strengths:

 Excited State   1:      Singlet-A      1.0675 eV 1161.50 nm  f=0.0176  <S**2>=0.000
     155 ->156         0.70194
 This state for optimization and/or second-order correction.
 Total Energy, E(TD-HF/TD-DFT) =  -1947.83093661
 Copying the excited state density for this state as the 1-particle RhoCI density.

 The electronic state is 1-A.
 Alpha  occ. eigenvalues --  -19.20096 -19.18656 -19.13620 -19.11864 -19.10715
 Alpha  occ. eigenvalues --  -19.07893 -14.37350 -14.37062 -14.32440 -14.30780
 Alpha  occ. eigenvalues --  -10.32500 -10.30896 -10.27669 -10.26727 -10.26606
 Alpha  occ. eigenvalues --  -10.25416 -10.25130 -10.23532 -10.22755 -10.22560
 Alpha  occ. eigenvalues --  -10.22235 -10.22035 -10.21567 -10.21500 -10.21475
 Alpha  occ. eigenvalues --  -10.21317 -10.21280 -10.21125 -10.20998 -10.20852
 Alpha  occ. eigenvalues --  -10.20323 -10.20308 -10.20030 -10.19725 -10.19481
 Alpha  occ. eigenvalues --  -10.18904 -10.18780 -10.18405 -10.17909 -10.17830
 Alpha  occ. eigenvalues --  -10.17697 -10.16903 -10.16589  -1.13306  -1.12906
 Alpha  occ. eigenvalues --   -1.04691  -1.03367  -1.00267  -0.99348  -0.98551
 Alpha  occ. eigenvalues --   -0.96162  -0.93111  -0.91001  -0.83627  -0.82040
 Alpha  occ. eigenvalues --   -0.81562  -0.80723  -0.79514  -0.79102  -0.77842
 Alpha  occ. eigenvalues --   -0.76840  -0.75933  -0.75233  -0.73962  -0.72322
 Alpha  occ. eigenvalues --   -0.71526  -0.69981  -0.69771  -0.69677  -0.67844
 Alpha  occ. eigenvalues --   -0.66255  -0.65541  -0.62911  -0.62475  -0.60754
 Alpha  occ. eigenvalues --   -0.60115  -0.60046  -0.59175  -0.56996  -0.56256
 Alpha  occ. eigenvalues --   -0.55667  -0.54904  -0.53760  -0.53212  -0.52997
 Alpha  occ. eigenvalues --   -0.52497  -0.51523  -0.51285  -0.50579  -0.49503
 Alpha  occ. eigenvalues --   -0.49385  -0.49281  -0.48654  -0.48412  -0.48239
 Alpha  occ. eigenvalues --   -0.47747  -0.47520  -0.47159  -0.46576  -0.46012
 Alpha  occ. eigenvalues --   -0.45461  -0.45009  -0.44491  -0.44358  -0.43797
 Alpha  occ. eigenvalues --   -0.43478  -0.43127  -0.42965  -0.42614  -0.42401
 Alpha  occ. eigenvalues --   -0.41901  -0.41652  -0.41603  -0.41465  -0.41213
 Alpha  occ. eigenvalues --   -0.40909  -0.40670  -0.40165  -0.39831  -0.39474
 Alpha  occ. eigenvalues --   -0.39253  -0.38890  -0.38596  -0.38332  -0.37930
 Alpha  occ. eigenvalues --   -0.37431  -0.37123  -0.36954  -0.36595  -0.36190
 Alpha  occ. eigenvalues --   -0.36134  -0.35902  -0.35375  -0.34814  -0.34541
 Alpha  occ. eigenvalues --   -0.34469  -0.34071  -0.33162  -0.31466  -0.31230
 Alpha  occ. eigenvalues --   -0.30108  -0.29782  -0.29695  -0.29134  -0.28411
 Alpha  occ. eigenvalues --   -0.26885  -0.26434  -0.25713  -0.24421  -0.24058
 Alpha  occ. eigenvalues --   -0.23338  -0.22494  -0.21994  -0.21796  -0.18903
 Alpha virt. eigenvalues --   -0.12693  -0.07500  -0.03003  -0.02301   0.00873
 Alpha virt. eigenvalues --    0.01625   0.02070   0.02454   0.02500   0.02943
 Alpha virt. eigenvalues --    0.03225   0.03853   0.04466   0.04901   0.05297

 Mulliken charges:
               1
     1  O   -0.239641
     2  O   -0.116597
     3  O   -0.282051
     4  O   -0.120366
     5  O   -0.156226
     6  O   -0.203669
     7  N   -0.088466
     8  N   -0.220295
     9  N   -0.057256
    10  N   -0.364654
    11  C    0.048348
    12  C    0.057224
    13  C   -0.030985
    14  C   -0.132491
    15  C   -0.120523
    16  C   -0.035412
    17  C   -0.187187
    18  C    0.174431
    19  C   -0.073624
    20  C   -0.126666
    21  C    0.096176
    22  C    0.161217
    23  C   -0.119584
    24  C    0.037196
    25  C    0.165944
    26  C   -0.151476
    27  C   -0.008154
    28  C    0.167131
    29  C    0.137253
    30  C    0.010448
    31  C    0.027094
    32  C    0.039414
    33  C   -0.064091
    34  C    0.089357
    35  C    0.023904
    36  C    0.017635
    37  C    0.096133
    38  C    0.071387
    39  C   -0.244086
    40  C    0.161290
    41  C    0.025900
    42  C    0.107796
    43  C   -0.019772
    44  H    0.033894
    45  H   -0.025464
    46  H    0.032606
    47  H    0.165743
    48  H    0.161681
    49  H   -0.013281
    50  H    0.005170
    51  H    0.054151
    52  H   -0.004943
    53  H    0.007992
    54  H    0.077795
    55  H    0.048543
    56  H    0.005378
    57  H    0.023495
    58  H    0.014993
    59  H    0.040073
    60  H    0.212278
    61  H    0.014765
    62  H    0.017065
    63  H   -0.018844
    64  H    0.022199
    65  H   -0.001618
    66  H    0.026465
    67  H    0.034710
    68  H    0.076269
    69  H   -0.022017
    70  H    0.001278
    71  H   -0.032552
    72  H    0.212014
    73  H   -0.057292
    74  H    0.059591
    75  H    0.050092
    76  H    0.001589
    77  H    0.140873
    78  H    0.046624
    79  H    0.036677
 Sum of Mulliken charges =  -0.00000

 Dipole moment (field-independent basis, Debye):
    X=              4.0142    Y=              3.9364    Z=             -1.0683  Tot=              5.7228
 Quadrupole moment (field-independent basis, Debye-Ang):
   XX=           -225.6741   YY=           -233.9881   ZZ=           -271.6496
   XY=              1.6326   XZ=            -21.5416   YZ=            -17.5960

 Normal termination of Gaussian 16 at Wed Jul 24 20:28:26 2019.
