 Gaussian 16, Revision A.03,
 Gaussian 16:  ES64L-G16RevA.03 25-Dec-2016

 --------------------------
 # td=(NStates=1) B3LYP/SVP
 --------------------------

 --
 TD
 --
 Symbolic Z-matrix:
 Charge =  0 Multiplicity = 1

                         Standard orientation:
 ---------------------------------------------------------------------
 Center     Atomic      Atomic             Coordinates (Angstroms)
 Number     Number       Type             X           Y           Z
 ---------------------------------------------------------------------
      1          8           0        5.314103   -0.150692   -3.332555
      2          8           0       -2.881994   -2.936640    3.366370
      3          8           0       -3.277812   -0.719901    3.181623
      4          8           0       -1.957312    7.135059    1.410143
      5          8           0       -0.946744    6.998993   -0.569017
      6          8           0       -1.512652   -4.015513   -0.017717
      7          7           0        2.336661    1.006159    0.593047
      8          7           0        4.277208   -0.336073   -1.264826
      9          7           0       -1.873765    0.696178   -0.562190
     10          7           0       -2.477562   -2.000992   -0.588253
     11          6           0        4.765633   -1.079444    0.023856
     12          6           0        4.415936   -0.169736    1.259064
     13          6           0        2.940191    0.107013    1.384356
     14          6           0        1.944412   -0.526207    2.207187
     15          6           0        0.740886    0.083515    1.898997
     16          6           0        0.931703    1.027426    0.847945
     17          6           0        6.215111   -1.246906   -0.101076
     18          6           0       -0.606953   -0.199240    2.539634
     19          6           0        6.605159   -0.726648   -1.373039
     20          6           0        0.142696    1.990102    0.155006
     21          6           0       -1.154812    1.822720   -0.369421
     22          6           0        5.377804   -0.434685   -2.130272
     23          6           0       -2.060798    2.828150   -0.896459
     24          6           0        2.202729   -1.627436    3.192070
     25          6           0        7.097511   -1.804250    0.885168
     26          6           0       -3.228500    2.236730   -1.432334
     27          6           0       -1.047417   -1.619363    2.740778
     28          6           0       -3.088928    0.802261   -1.088102
     29          6           0       -1.667534    4.338626   -0.947035
     30          6           0        7.882299   -0.517404   -2.042969
     31          6           0       -1.903358    5.039194    0.407589
     32          6           0       -4.519145    2.875756   -1.945500
     33          6           0       -3.928072   -0.183075   -1.341838
     34          6           0       -2.490121   -1.647276    3.152254
     35          6           0       -3.647030   -1.599858   -1.044986
     36          6           0        9.200456   -0.650269   -1.523198
     37          6           0       -1.459863    6.443356    0.340061
     38          6           0       -4.431500   -2.801004   -1.383684
     39          6           0       -3.615031   -3.892271   -1.127011
     40          6           0       -2.481546   -3.513636   -0.561862
     41          6           0       -5.773344   -2.660468   -2.014041
     42          6           0       -3.973925   -5.368443   -1.171489
     43          6           0       -6.546915   -3.549192   -2.661145
     44          1           0        4.223072   -2.156271    0.239823
     45          1           0        4.976372    0.678393    1.180761
     46          1           0        4.844470   -0.836248    2.113967
     47          1           0        2.888215    1.455138   -0.295371
     48          1           0        3.407109   -0.724229   -1.726388
     49          1           0       -0.519576    0.482792    3.523759
     50          1           0       -1.510861    0.322447    1.912886
     51          1           0        0.725063    2.938895   -0.008721
     52          1           0        3.463888   -2.052959    3.061522
     53          1           0        2.262187   -1.254927    4.603933
     54          1           0        1.318396   -2.482354    2.927024
     55          1           0        6.696585   -2.285801    1.931850
     56          1           0        7.701121   -1.054630    1.269919
     57          1           0        7.822079   -2.488124    0.398046
     58          1           0       -0.808560   -2.234120    1.887752
     59          1           0       -0.567875   -1.916145    3.772076
     60          1           0       -1.588517   -0.314630   -0.228769
     61          1           0       -2.258798    4.962057   -1.744616
     62          1           0       -0.609056    4.379375   -1.322273
     63          1           0        7.991549   -0.079009   -3.221702
     64          1           0       -1.389454    4.632293    1.238222
     65          1           0       -2.819418    4.815470    0.697360
     66          1           0       -4.294048    4.040952   -2.084313
     67          1           0       -5.516057    2.809490   -1.425124
     68          1           0       -4.691937    2.319784   -3.046906
     69          1           0       -4.967214    0.082429   -1.693210
     70          1           0        9.327636   -1.043960   -0.455939
     71          1           0       10.170665   -0.239533   -2.097419
     72          1           0       -3.775373   -2.970770    3.686765
     73          1           0       -6.197503   -1.618318   -1.986774
     74          1           0       -4.837690   -5.586684   -0.805091
     75          1           0       -3.815390   -5.820613   -2.162289
     76          1           0       -3.277581   -5.826557   -0.474560
     77          1           0       -1.505039    8.144262    1.272295
     78          1           0       -7.502461   -3.257138   -3.164707
     79          1           0       -6.130924   -4.536338   -2.600036
 ---------------------------------------------------------------------

 SCF Done:  E(RB3LYP) =  -1947.77656108     A.U. after   25 cycles

 Excitation energies and oscillator strengths:

 Excited State   1:      Singlet-A      1.6019 eV  774.00 nm  f=0.3124  <S**2>=0.000
     155 ->156         0.70629
     155 <-156        -0.13541
 This state for optimization and/or second-order correction.
 Total Energy, E(TD-HF/TD-DFT) =  -1947.71769341
 Copying the excited state density for this state as the 1-particle RhoCI density.

 The electronic state is 1-A.
 Alpha  occ. eigenvalues --  -19.18149 -19.16662 -19.13140 -19.11821 -19.11414
 Alpha  occ. eigenvalues --  -19.10458 -14.38840 -14.36502 -14.35636 -14.28358
 Alpha  occ. eigenvalues --  -10.31629 -10.31110 -10.28735 -10.26772 -10.26037
 Alpha  occ. eigenvalues --  -10.25003 -10.24064 -10.23844 -10.23321 -10.22861
 Alpha  occ. eigenvalues --  -10.22822 -10.22624 -10.22603 -10.22324 -10.22311
 Alpha  occ. eigenvalues --  -10.22255 -10.22159 -10.22060 -10.22051 -10.21743
 Alpha  occ. eigenvalues --  -10.21263 -10.21147 -10.20800 -10.20772 -10.20656
 Alpha  occ. eigenvalues --  -10.20297 -10.19887 -10.19305 -10.19285 -10.19116
 Alpha  occ. eigenvalues --  -10.19060 -10.18964 -10.17543  -1.09368  -1.08138
 Alpha  occ. eigenvalues --   -1.02030  -1.01952  -0.99998  -0.99326  -0.98709
 Alpha  occ. eigenvalues --   -0.97587  -0.92827  -0.91771  -0.83343  -0.81904
 Alpha  occ. eigenvalues --   -0.81169  -0.80596  -0.80117  -0.79252  -0.77738
 Alpha  occ. eigenvalues --   -0.77289  -0.76816  -0.76310  -0.74791  -0.72140
 Alpha  occ. eigenvalues --   -0.71167  -0.70037  -0.69398  -0.67789  -0.66980
 Alpha  occ. eigenvalues --   -0.66160  -0.65890  -0.64868  -0.61113  -0.59536
 Alpha  occ. eigenvalues --   -0.59064  -0.57856  -0.57491  -0.57122  -0.56346
 Alpha  occ. eigenvalues --   -0.55841  -0.54768  -0.54200  -0.53487  -0.52878
 Alpha  occ. eigenvalues --   -0.51527  -0.51032  -0.50470  -0.50318  -0.49245
 Alpha  occ. eigenvalues --   -0.49106  -0.48529  -0.48164  -0.48002  -0.47752
 Alpha  occ. eigenvalues --   -0.47209  -0.46666  -0.46542  -0.45964  -0.45639
 Alpha  occ. eigenvalues --   -0.45283  -0.44941  -0.44704  -0.44246  -0.44130
 Alpha  occ. eigenvalues --   -0.43405  -0.42905  -0.42480  -0.42207  -0.41783
 Alpha  occ. eigenvalues --   -0.41674  -0.41212  -0.41086  -0.40952  -0.40655
 Alpha  occ. eigenvalues --   -0.40298  -0.40187  -0.39588  -0.39491  -0.39311
 Alpha  occ. eigenvalues --   -0.39252  -0.39146  -0.38734  -0.38165  -0.37941
 Alpha  occ. eigenvalues --   -0.37786  -0.37573  -0.37430  -0.37329  -0.36834
 Alpha  occ. eigenvalues --   -0.35567  -0.35019  -0.34914  -0.34544  -0.34231
 Alpha  occ. eigenvalues --   -0.34160  -0.33597  -0.32348  -0.31811  -0.31441
 Alpha  occ. eigenvalues --   -0.31297  -0.31052  -0.28979  -0.28584  -0.28175
 Alpha  occ. eigenvalues --   -0.27229  -0.26976  -0.25720  -0.24967  -0.24496
 Alpha  occ. eigenvalues --   -0.24156  -0.23938  -0.23663  -0.22463  -0.17879
 Alpha virt. eigenvalues --   -0.11553  -0.07934  -0.07078  -0.00986  -0.00221
 Alpha virt. eigenvalues --    0.00284   0.00500   0.00529   0.01243   0.01825
 Alpha virt. eigenvalues --    0.02632   0.03382   0.03867   0.04146   0.05006

 Mulliken charges:
               1
     1  O   -0.230943
     2  O   -0.184681
     3  O   -0.229367
     4  O   -0.270451
     5  O   -0.197400
     6  O   -0.177839
     7  N   -0.134632
     8  N   -0.227998
     9  N   -0.068125
    10  N   -0.329387
    11  C   -0.013332
    12  C    0.208804
    13  C   -0.057478
    14  C   -0.063427
    15  C   -0.047931
    16  C    0.068691
    17  C   -0.108108
    18  C   -0.049005
    19  C   -0.014294
    20  C   -0.133584
    21  C    0.119458
    22  C    0.135105
    23  C   -0.115797
    24  C   -0.133948
    25  C    0.057609
    26  C   -0.086085
    27  C    0.008004
    28  C    0.113798
    29  C    0.033183
    30  C   -0.079481
    31  C    0.103169
    32  C   -0.023727
    33  C   -0.111745
    34  C    0.134260
    35  C    0.057066
    36  C   -0.108432
    37  C    0.138759
    38  C    0.083418
    39  C   -0.226851
    40  C    0.151049
    41  C   -0.070302
    42  C    0.194100
    43  C    0.015554
    44  H    0.059879
    45  H   -0.037226
    46  H    0.013036
    47  H    0.181448
    48  H    0.158652
    49  H    0.035850
    50  H    0.050649
    51  H    0.015359
    52  H    0.029883
    53  H    0.035037
    54  H    0.091324
    55  H    0.049141
    56  H    0.025227
    57  H    0.054219
    58  H    0.082753
    59  H    0.054551
    60  H    0.174490
    61  H    0.032501
    62  H    0.027288
    63  H    0.072558
    64  H    0.015021
    65  H   -0.012460
    66  H    0.036577
    67  H    0.055867
    68  H    0.045913
    69  H   -0.014751
    70  H    0.020803
    71  H    0.066046
    72  H    0.166022
    73  H    0.003340
    74  H   -0.030559
    75  H    0.025676
    76  H    0.006831
    77  H    0.227667
    78  H    0.044447
    79  H    0.009266
 Sum of Mulliken charges =  -0.00000

 Dipole moment (field-independent basis, Debye):
    X=              0.5909    Y=              0.1315    Z=              3.0391  Tot=              3.0988
 Quadrupole moment (field-independent basis, Debye-Ang):
   XX=           -205.2655   YY=           -248.6039   ZZ=           -265.3121
   XY=              1.3600   XZ=             31.2666   YZ=              4.5149

 Normal termination of Gaussian 16 at Sun Sep 15 18:36:27 2019.
