 Gaussian 16, Revision A.03,
 Gaussian 16:  ES64L-G16RevA.03 25-Dec-2016

 --------------------------
 # td=(NStates=1) B3LYP/SVP
 --------------------------

 --
 TD
 --
 Symbolic Z-matrix:
 Charge =  0 Multiplicity = 1

                         Standard orientation:
 ---------------------------------------------------------------------
 Center     Atomic      Atomic             Coordinates (Angstroms)
 Number     Number       Type             X           Y           Z
 ---------------------------------------------------------------------
      1          8           0       -3.151429   -1.604302   -2.698422
      2          8           0        2.940014    3.443825    2.709316
      3          8           0        3.532992    2.018377    4.311563
      4          8           0        7.594749   -1.704734   -0.461068
      5          8           0        6.720796   -3.253994   -1.768151
      6          8           0       -2.532754    1.825215    1.307376
      7          7           0       -0.263669   -2.352212    1.218084
      8          7           0       -2.615662   -1.314226   -0.519239
      9          7           0        1.095502   -0.063889   -0.758039
     10          7           0       -0.886481    1.545882   -0.355301
     11          6           0       -3.373639   -1.298545    0.765684
     12          6           0       -2.700390   -2.206521    1.793704
     13          6           0       -1.271677   -1.916494    2.016739
     14          6           0       -0.675004   -0.967644    2.951702
     15          6           0        0.618994   -0.908513    2.622440
     16          6           0        0.902293   -1.705083    1.531718
     17          6           0       -4.759583   -1.825731    0.260909
     18          6           0        1.662165    0.057848    3.237017
     19          6           0       -4.787208   -2.119380   -1.016344
     20          6           0        2.175160   -1.740326    0.670802
     21          6           0        2.103107   -1.007460   -0.503132
     22          6           0       -3.451858   -1.667546   -1.594414
     23          6           0        2.995418   -0.930769   -1.666277
     24          6           0       -1.386543   -0.133007    4.022454
     25          6           0       -5.866223   -1.920183    1.263466
     26          6           0        2.505624    0.066809   -2.452466
     27          6           0        1.760329    1.356214    2.541140
     28          6           0        1.310436    0.622262   -1.839147
     29          6           0        4.237655   -1.779520   -1.858298
     30          6           0       -5.864248   -2.704029   -1.943061
     31          6           0        5.426432   -1.287319   -1.079484
     32          6           0        3.235799    0.660820   -3.717121
     33          6           0        0.615320    1.718514   -2.138506
     34          6           0        2.779255    2.249248    3.255711
     35          6           0       -0.430337    2.262038   -1.415986
     36          6           0       -6.855713   -3.421966   -1.457031
     37          6           0        6.657996   -2.196336   -1.193256
     38          6           0       -1.315560    3.481839   -1.518261
     39          6           0       -2.206263    3.377538   -0.476055
     40          6           0       -1.905698    2.259505    0.253782
     41          6           0       -1.076415    4.358176   -2.538085
     42          6           0       -3.296123    4.408849   -0.239490
     43          6           0       -1.831688    5.525143   -2.912923
     44          1           0       -3.418472   -0.207769    1.247820
     45          1           0       -2.704147   -3.303471    1.390261
     46          1           0       -3.275127   -2.131214    2.663692
     47          1           0       -0.247984   -2.814766    0.496880
     48          1           0       -1.857989   -0.668616   -0.668400
     49          1           0        1.524501    0.295462    4.320912
     50          1           0        2.601812   -0.438650    3.138136
     51          1           0        2.885390   -2.659154    0.876279
     52          1           0       -2.254174   -0.712312    4.451043
     53          1           0       -0.537830    0.246000    4.704657
     54          1           0       -1.959024    0.644610    3.403878
     55          1           0       -5.925372   -1.375612    2.096176
     56          1           0       -5.923528   -2.989972    1.876853
     57          1           0       -6.948621   -1.826889    0.889276
     58          1           0        2.047054    1.066779    1.484689
     59          1           0        0.869582    1.802676    2.633765
     60          1           0        0.331681    0.268845   -0.039869
     61          1           0        4.613605   -2.066799   -2.876419
     62          1           0        3.879381   -2.764681   -1.413269
     63          1           0       -5.799831   -2.385580   -2.981848
     64          1           0        4.904510   -1.267024   -0.003754
     65          1           0        5.759260   -0.251151   -1.461667
     66          1           0        3.922842   -0.062502   -4.127764
     67          1           0        3.868237    1.543113   -3.381959
     68          1           0        2.475616    0.838481   -4.525575
     69          1           0        1.003134    2.407082   -3.093132
     70          1           0       -7.120978   -3.905548   -0.432854
     71          1           0       -7.736951   -3.758201   -2.113691
     72          1           0        3.677001    3.927888    3.276286
     73          1           0       -0.070824    4.423732   -3.106728
     74          1           0       -4.114840    4.313839   -1.084019
     75          1           0       -3.574241    4.007494    0.717831
     76          1           0       -2.978373    5.440111    0.076695
     77          1           0        8.146384   -2.497654   -0.488402
     78          1           0       -1.246843    6.316040   -3.701284
     79          1           0       -2.548484    6.030844   -2.315525
 ---------------------------------------------------------------------

 SCF Done:  E(RB3LYP) =  -1947.81031838     A.U. after   21 cycles

 Excitation energies and oscillator strengths:

 Excited State   1:      Singlet-A      0.7190 eV 1724.35 nm  f=0.0003  <S**2>=0.000
     155 ->156         0.70332
 This state for optimization and/or second-order correction.
 Total Energy, E(TD-HF/TD-DFT) =  -1947.78389484
 Copying the excited state density for this state as the 1-particle RhoCI density.

 The electronic state is 1-A.
 Alpha  occ. eigenvalues --  -19.20781 -19.18882 -19.14335 -19.11866 -19.11334
 Alpha  occ. eigenvalues --  -19.08740 -14.37876 -14.35997 -14.31585 -14.30915
 Alpha  occ. eigenvalues --  -10.33490 -10.32211 -10.27665 -10.26536 -10.26130
 Alpha  occ. eigenvalues --  -10.26088 -10.25175 -10.24211 -10.23172 -10.23146
 Alpha  occ. eigenvalues --  -10.22947 -10.22895 -10.22869 -10.22479 -10.22242
 Alpha  occ. eigenvalues --  -10.22118 -10.21989 -10.21718 -10.20815 -10.20358
 Alpha  occ. eigenvalues --  -10.20346 -10.20220 -10.20179 -10.19840 -10.19767
 Alpha  occ. eigenvalues --  -10.19436 -10.19269 -10.19046 -10.18361 -10.18331
 Alpha  occ. eigenvalues --  -10.17822 -10.16181 -10.16028  -1.15071  -1.08600
 Alpha  occ. eigenvalues --   -1.04559  -1.03156  -1.01706  -1.00051  -0.98589
 Alpha  occ. eigenvalues --   -0.94659  -0.93533  -0.90525  -0.84584  -0.82721
 Alpha  occ. eigenvalues --   -0.82045  -0.81651  -0.80023  -0.79354  -0.78662
 Alpha  occ. eigenvalues --   -0.77863  -0.76874  -0.75505  -0.74420  -0.72486
 Alpha  occ. eigenvalues --   -0.70420  -0.70053  -0.69678  -0.69352  -0.68281
 Alpha  occ. eigenvalues --   -0.67490  -0.65776  -0.63425  -0.61541  -0.60878
 Alpha  occ. eigenvalues --   -0.59787  -0.59109  -0.58152  -0.57531  -0.57195
 Alpha  occ. eigenvalues --   -0.56962  -0.56460  -0.56075  -0.53120  -0.52980
 Alpha  occ. eigenvalues --   -0.52387  -0.51934  -0.51517  -0.51040  -0.50614
 Alpha  occ. eigenvalues --   -0.50018  -0.49222  -0.48781  -0.48424  -0.47897
 Alpha  occ. eigenvalues --   -0.47665  -0.47243  -0.47138  -0.46537  -0.46090
 Alpha  occ. eigenvalues --   -0.45442  -0.45124  -0.44632  -0.43930  -0.43555
 Alpha  occ. eigenvalues --   -0.43401  -0.43102  -0.42879  -0.42755  -0.42250
 Alpha  occ. eigenvalues --   -0.42065  -0.41621  -0.41503  -0.41250  -0.40666
 Alpha  occ. eigenvalues --   -0.40537  -0.40282  -0.39909  -0.39682  -0.39430
 Alpha  occ. eigenvalues --   -0.39118  -0.38657  -0.38390  -0.38216  -0.37779
 Alpha  occ. eigenvalues --   -0.37394  -0.37314  -0.37051  -0.36879  -0.36159
 Alpha  occ. eigenvalues --   -0.35836  -0.35452  -0.35025  -0.34901  -0.34500
 Alpha  occ. eigenvalues --   -0.34353  -0.33788  -0.32880  -0.32665  -0.31178
 Alpha  occ. eigenvalues --   -0.30264  -0.30192  -0.29708  -0.29229  -0.28575
 Alpha  occ. eigenvalues --   -0.28008  -0.26464  -0.26121  -0.24894  -0.24269
 Alpha  occ. eigenvalues --   -0.24126  -0.23558  -0.23476  -0.22496  -0.18729
 Alpha virt. eigenvalues --   -0.13749  -0.08935  -0.03162  -0.02879  -0.01282
 Alpha virt. eigenvalues --   -0.01247   0.01705   0.02208   0.02757   0.03059
 Alpha virt. eigenvalues --    0.03830   0.04020   0.04454   0.04912   0.05193

 Mulliken charges:
               1
     1  O   -0.146333
     2  O   -0.188670
     3  O   -0.338252
     4  O   -0.096458
     5  O   -0.228597
     6  O   -0.282437
     7  N    0.108342
     8  N   -0.249292
     9  N   -0.095412
    10  N   -0.324929
    11  C    0.033593
    12  C    0.247335
    13  C   -0.132317
    14  C   -0.131472
    15  C   -0.078722
    16  C   -0.151805
    17  C   -0.122719
    18  C    0.076724
    19  C   -0.069459
    20  C   -0.124977
    21  C    0.114006
    22  C    0.101504
    23  C   -0.028750
    24  C    0.074525
    25  C    0.054612
    26  C   -0.164403
    27  C    0.082779
    28  C    0.135113
    29  C    0.060866
    30  C    0.056661
    31  C   -0.079402
    32  C    0.098465
    33  C   -0.155095
    34  C    0.154801
    35  C    0.070073
    36  C   -0.086068
    37  C    0.121936
    38  C    0.200559
    39  C   -0.174032
    40  C    0.178387
    41  C   -0.147886
    42  C    0.071978
    43  C   -0.069333
    44  H    0.078246
    45  H   -0.013177
    46  H   -0.037488
    47  H    0.005919
    48  H    0.119382
    49  H    0.014309
    50  H   -0.018910
    51  H    0.061249
    52  H    0.004677
    53  H    0.031253
    54  H    0.052106
    55  H   -0.029722
    56  H    0.023247
    57  H    0.028855
    58  H    0.048301
    59  H    0.005249
    60  H    0.235876
    61  H    0.031328
    62  H    0.022201
    63  H    0.018186
    64  H    0.073713
    65  H    0.051146
    66  H    0.010822
    67  H    0.050370
    68  H    0.044156
    69  H    0.024367
    70  H    0.043184
    71  H    0.021114
    72  H    0.220380
    73  H    0.038708
    74  H    0.066719
    75  H    0.010381
    76  H    0.040189
    77  H    0.162219
    78  H    0.051412
    79  H    0.034593
 Sum of Mulliken charges =  -0.00000

 Dipole moment (field-independent basis, Debye):
    X=              3.0491    Y=              2.9814    Z=             -2.6323  Tot=              5.0115
 Quadrupole moment (field-independent basis, Debye-Ang):
   XX=           -232.1577   YY=           -235.3098   ZZ=           -272.8635
   XY=              2.5863   XZ=            -20.8608   YZ=            -17.8901

 Normal termination of Gaussian 16 at Sat Jul 27 01:20:01 2019.
