 Gaussian 16, Revision A.03,
 Gaussian 16:  ES64L-G16RevA.03 25-Dec-2016

 --------------------------
 # td=(NStates=1) B3LYP/SVP
 --------------------------

 --
 TD
 --
 Symbolic Z-matrix:
 Charge =  0 Multiplicity = 1

                         Standard orientation:
 ---------------------------------------------------------------------
 Center     Atomic      Atomic             Coordinates (Angstroms)
 Number     Number       Type             X           Y           Z
 ---------------------------------------------------------------------
      1          8           0        5.470722   -0.282253   -3.241260
      2          8           0       -3.109936   -3.039899    2.930764
      3          8           0       -3.356630   -0.743516    2.980803
      4          8           0       -1.472823    7.138924    1.585676
      5          8           0       -0.948116    7.076162   -0.725943
      6          8           0       -1.785797   -3.863515    0.128190
      7          7           0        2.347008    0.989694    0.532920
      8          7           0        4.443599   -0.668682   -1.236647
      9          7           0       -1.827758    0.655035   -0.456426
     10          7           0       -2.704927   -1.815473   -0.565172
     11          6           0        4.851634   -1.045077    0.103797
     12          6           0        4.340354   -0.246720    1.239995
     13          6           0        2.926873   -0.025713    1.303697
     14          6           0        1.987843   -0.620369    1.926379
     15          6           0        0.647815   -0.042203    1.732615
     16          6           0        0.981322    0.939932    0.753678
     17          6           0        6.356806   -1.295545   -0.095179
     18          6           0       -0.669050   -0.183439    2.540967
     19          6           0        6.779239   -0.840055   -1.332718
     20          6           0        0.141402    1.960345    0.173317
     21          6           0       -1.079420    1.816861   -0.245585
     22          6           0        5.546414   -0.522524   -2.078654
     23          6           0       -1.912845    2.904011   -0.841469
     24          6           0        2.113595   -1.744147    3.046737
     25          6           0        7.194534   -1.844945    1.025137
     26          6           0       -3.116160    2.361067   -1.211301
     27          6           0       -1.111774   -1.595499    2.400363
     28          6           0       -3.070267    0.902755   -1.031051
     29          6           0       -1.441211    4.308078   -0.909077
     30          6           0        8.119505   -0.910313   -1.980633
     31          6           0       -1.603363    5.024013    0.362337
     32          6           0       -4.159521    3.087672   -1.811596
     33          6           0       -4.097826   -0.087997   -1.268775
     34          6           0       -2.690962   -1.698870    2.857241
     35          6           0       -3.872909   -1.451671   -1.035925
     36          6           0        9.271509   -0.934054   -1.353274
     37          6           0       -1.380593    6.563263    0.312723
     38          6           0       -4.680773   -2.651090   -1.379438
     39          6           0       -3.918799   -3.730746   -1.027329
     40          6           0       -2.705614   -3.223815   -0.381377
     41          6           0       -5.976830   -2.420325   -2.051212
     42          6           0       -4.302693   -5.197538   -1.024799
     43          6           0       -6.756099   -3.472591   -2.486376
     44          1           0        4.563607   -2.124423    0.278707
     45          1           0        4.994741    0.651225    1.348305
     46          1           0        4.744585   -0.589467    2.219139
     47          1           0        2.765469    1.683632   -0.055361
     48          1           0        3.654366   -0.762097   -1.624656
     49          1           0       -0.608769    0.121279    3.604281
     50          1           0       -1.321942    0.627051    2.377034
     51          1           0        0.676344    2.991844    0.218072
     52          1           0        3.295113   -1.904814    3.165436
     53          1           0        1.678559   -1.398787    3.897036
     54          1           0        1.549846   -2.566714    2.817572
     55          1           0        6.580211   -2.611839    1.519988
     56          1           0        7.614764   -0.885237    1.646792
     57          1           0        7.980007   -2.407222    0.600851
     58          1           0       -0.973330   -2.159170    1.512985
     59          1           0       -0.376623   -2.141755    3.128796
     60          1           0       -1.593044   -0.370290   -0.533946
     61          1           0       -2.111264    4.890898   -1.484480
     62          1           0       -0.413899    4.437889   -1.259925
     63          1           0        8.010276   -0.731247   -3.183874
     64          1           0       -0.664135    4.571002    1.360529
     65          1           0       -2.679250    4.732080    0.970769
     66          1           0       -3.887726    4.071315   -2.150015
     67          1           0       -5.231197    2.993171   -1.361530
     68          1           0       -4.325671    2.658400   -2.908935
     69          1           0       -5.032968    0.233889   -1.723620
     70          1           0        9.507259   -0.970684   -0.339956
     71          1           0       10.206289   -0.901287   -2.054845
     72          1           0       -4.076176   -2.839069    3.017924
     73          1           0       -6.310788   -1.408552   -2.179181
     74          1           0       -5.158934   -5.387939   -0.354872
     75          1           0       -4.814449   -5.602145   -2.059286
     76          1           0       -3.474244   -5.887839   -0.690860
     77          1           0       -1.124829    7.944382    1.030035
     78          1           0       -7.699918   -3.269143   -2.907923
     79          1           0       -6.399916   -4.596081   -2.428833
 ---------------------------------------------------------------------

 SCF Done:  E(RB3LYP) =  -1947.81222600     A.U. after   16 cycles

 Excitation energies and oscillator strengths:

 Excited State   1:      Singlet-A      2.1005 eV  590.25 nm  f=0.3238  <S**2>=0.000
     153 ->156        -0.10678
     154 ->156         0.10418
     155 ->156         0.68921
 This state for optimization and/or second-order correction.
 Total Energy, E(TD-HF/TD-DFT) =  -1947.73503251
 Copying the excited state density for this state as the 1-particle RhoCI density.

 The electronic state is 1-A.
 Alpha  occ. eigenvalues --  -19.20863 -19.16946 -19.16239 -19.13192 -19.10795
 Alpha  occ. eigenvalues --  -19.09374 -14.37171 -14.36228 -14.33324 -14.28451
 Alpha  occ. eigenvalues --  -10.34962 -10.31131 -10.27485 -10.26645 -10.25697
 Alpha  occ. eigenvalues --  -10.25441 -10.24617 -10.23883 -10.22779 -10.22489
 Alpha  occ. eigenvalues --  -10.22161 -10.21575 -10.21451 -10.21409 -10.21270
 Alpha  occ. eigenvalues --  -10.21165 -10.21146 -10.20950 -10.20931 -10.20915
 Alpha  occ. eigenvalues --  -10.20852 -10.20704 -10.20634 -10.20395 -10.20040
 Alpha  occ. eigenvalues --  -10.19845 -10.19836 -10.19408 -10.19237 -10.18758
 Alpha  occ. eigenvalues --  -10.18745 -10.18518 -10.18019  -1.10814  -1.08595
 Alpha  occ. eigenvalues --   -1.03487  -1.02334  -1.01073  -1.00648  -0.98009
 Alpha  occ. eigenvalues --   -0.97188  -0.94114  -0.92693  -0.84056  -0.82645
 Alpha  occ. eigenvalues --   -0.82157  -0.80946  -0.80180  -0.79992  -0.78524
 Alpha  occ. eigenvalues --   -0.77163  -0.76357  -0.75605  -0.74146  -0.72285
 Alpha  occ. eigenvalues --   -0.72113  -0.70463  -0.69629  -0.69058  -0.67603
 Alpha  occ. eigenvalues --   -0.66070  -0.65183  -0.63861  -0.60974  -0.60675
 Alpha  occ. eigenvalues --   -0.59005  -0.57605  -0.57502  -0.57363  -0.56373
 Alpha  occ. eigenvalues --   -0.56159  -0.55760  -0.54393  -0.54207  -0.53425
 Alpha  occ. eigenvalues --   -0.52459  -0.52328  -0.51971  -0.51208  -0.50187
 Alpha  occ. eigenvalues --   -0.49824  -0.48760  -0.48384  -0.48220  -0.47958
 Alpha  occ. eigenvalues --   -0.47588  -0.46960  -0.46665  -0.46406  -0.46051
 Alpha  occ. eigenvalues --   -0.45373  -0.44986  -0.44004  -0.43924  -0.43796
 Alpha  occ. eigenvalues --   -0.43392  -0.43261  -0.43064  -0.42811  -0.42623
 Alpha  occ. eigenvalues --   -0.42487  -0.42137  -0.42004  -0.41839  -0.41662
 Alpha  occ. eigenvalues --   -0.40995  -0.40750  -0.40442  -0.40228  -0.40087
 Alpha  occ. eigenvalues --   -0.39944  -0.39502  -0.39108  -0.38859  -0.38449
 Alpha  occ. eigenvalues --   -0.38393  -0.38200  -0.37757  -0.36973  -0.36346
 Alpha  occ. eigenvalues --   -0.36032  -0.35507  -0.34888  -0.34620  -0.34512
 Alpha  occ. eigenvalues --   -0.33882  -0.33085  -0.32918  -0.31933  -0.31660
 Alpha  occ. eigenvalues --   -0.31423  -0.30668  -0.30413  -0.28937  -0.27733
 Alpha  occ. eigenvalues --   -0.27301  -0.26159  -0.25671  -0.25235  -0.24504
 Alpha  occ. eigenvalues --   -0.24219  -0.24171  -0.23619  -0.22308  -0.19720
 Alpha virt. eigenvalues --   -0.10989  -0.06620  -0.05193  -0.04581  -0.00889
 Alpha virt. eigenvalues --    0.01136   0.01762   0.01961   0.02219   0.02724
 Alpha virt. eigenvalues --    0.03948   0.04203   0.04580   0.05130   0.05270

 Mulliken charges:
               1
     1  O   -0.196057
     2  O   -0.216816
     3  O   -0.179126
     4  O   -0.208724
     5  O   -0.251126
     6  O   -0.207450
     7  N   -0.089024
     8  N   -0.125516
     9  N   -0.099288
    10  N   -0.305355
    11  C    0.131657
    12  C    0.172392
    13  C   -0.004975
    14  C   -0.170643
    15  C   -0.078737
    16  C    0.006410
    17  C   -0.249272
    18  C    0.155952
    19  C   -0.053458
    20  C   -0.166955
    21  C    0.202773
    22  C    0.101794
    23  C   -0.120396
    24  C    0.151974
    25  C    0.093590
    26  C   -0.075925
    27  C   -0.041030
    28  C    0.091068
    29  C    0.254801
    30  C   -0.020282
    31  C   -0.227315
    32  C    0.037426
    33  C   -0.090629
    34  C    0.163932
    35  C    0.075976
    36  C   -0.038580
    37  C    0.232117
    38  C    0.070701
    39  C   -0.169375
    40  C    0.170320
    41  C   -0.020416
    42  C    0.014642
    43  C   -0.016826
    44  H    0.013724
    45  H   -0.023072
    46  H   -0.011288
    47  H    0.104357
    48  H    0.052758
    49  H   -0.006161
    50  H   -0.017025
    51  H    0.022148
    52  H    0.011503
    53  H   -0.008118
    54  H    0.016017
    55  H    0.018393
    56  H    0.070151
    57  H    0.019696
    58  H    0.051271
    59  H    0.019120
    60  H    0.166498
    61  H   -0.012101
    62  H    0.022659
    63  H    0.057488
    64  H    0.060879
    65  H    0.081155
    66  H    0.002099
    67  H    0.048676
    68  H    0.025082
    69  H   -0.033814
    70  H    0.002232
    71  H    0.038457
    72  H    0.166822
    73  H   -0.011364
    74  H    0.028813
    75  H    0.040761
    76  H    0.044477
    77  H    0.179950
    78  H    0.011261
    79  H    0.042268
 Sum of Mulliken charges =  -0.00000

 Dipole moment (field-independent basis, Debye):
    X=             -0.7517    Y=              2.7279    Z=              2.3724  Tot=              3.6925
 Quadrupole moment (field-independent basis, Debye-Ang):
   XX=           -216.6384   YY=           -249.5372   ZZ=           -267.0706
   XY=             -2.4208   XZ=             35.1838   YZ=              1.9822

 Normal termination of Gaussian 16 at Thu Oct 10 01:36:29 2019.
