 Gaussian 16, Revision A.03,
 Gaussian 16:  ES64L-G16RevA.03 25-Dec-2016

 --------------------------
 # td=(NStates=1) B3LYP/SVP
 --------------------------

 --
 TD
 --
 Symbolic Z-matrix:
 Charge =  0 Multiplicity = 1

                         Standard orientation:
 ---------------------------------------------------------------------
 Center     Atomic      Atomic             Coordinates (Angstroms)
 Number     Number       Type             X           Y           Z
 ---------------------------------------------------------------------
      1          8           0       -3.273160   -1.684477   -2.700269
      2          8           0        3.424580    3.397718    2.093608
      3          8           0        3.655037    2.209598    4.207500
      4          8           0        7.566774   -1.796854   -0.411421
      5          8           0        6.659315   -3.209001   -1.966922
      6          8           0       -2.528523    1.928460    1.295338
      7          7           0       -0.247955   -2.183021    1.363336
      8          7           0       -2.782871   -1.216329   -0.495954
      9          7           0        1.117662   -0.070664   -0.638330
     10          7           0       -0.932147    1.484548   -0.352268
     11          6           0       -3.378769   -1.148438    0.772707
     12          6           0       -2.683151   -1.996202    1.905378
     13          6           0       -1.268840   -1.630978    2.129244
     14          6           0       -0.615568   -0.723517    3.039628
     15          6           0        0.719379   -0.633707    2.734468
     16          6           0        0.925705   -1.527693    1.612888
     17          6           0       -4.781669   -1.797705    0.491744
     18          6           0        1.852030    0.112121    3.288388
     19          6           0       -4.792157   -2.206381   -0.861556
     20          6           0        2.053057   -1.828198    0.722806
     21          6           0        2.141209   -1.005584   -0.447396
     22          6           0       -3.618895   -1.656722   -1.531380
     23          6           0        2.937743   -1.082796   -1.532635
     24          6           0       -1.389916    0.172490    3.998948
     25          6           0       -5.849338   -1.997588    1.479548
     26          6           0        2.487538   -0.074651   -2.314524
     27          6           0        1.862535    1.505612    2.697389
     28          6           0        1.338200    0.633542   -1.836209
     29          6           0        4.182766   -1.874884   -1.770422
     30          6           0       -5.802624   -2.722842   -1.591635
     31          6           0        5.381383   -1.305211   -1.045812
     32          6           0        3.043753    0.336640   -3.744031
     33          6           0        0.507131    1.651935   -2.266848
     34          6           0        3.062137    2.390762    3.200181
     35          6           0       -0.490789    2.039250   -1.484238
     36          6           0       -6.734577   -3.600666   -1.273679
     37          6           0        6.640999   -2.198831   -1.237158
     38          6           0       -1.393518    3.242850   -1.689393
     39          6           0       -2.217064    3.327885   -0.650671
     40          6           0       -1.904651    2.222923    0.227888
     41          6           0       -1.282738    4.052044   -2.946622
     42          6           0       -3.234521    4.464599   -0.238159
     43          6           0       -2.110208    5.142857   -3.272737
     44          1           0       -3.599728   -0.159472    1.191282
     45          1           0       -2.849726   -3.116507    1.699634
     46          1           0       -3.041797   -1.885453    2.837473
     47          1           0       -0.293587   -2.794431    0.481167
     48          1           0       -2.132672   -0.473377   -0.734361
     49          1           0        1.704717    0.250052    4.268301
     50          1           0        2.923776   -0.462856    3.207675
     51          1           0        2.741446   -2.499773    0.812985
     52          1           0       -2.347321   -0.390158    4.524036
     53          1           0       -0.660435    0.524908    4.905367
     54          1           0       -1.679258    1.157695    3.404034
     55          1           0       -5.844254   -1.287919    2.197577
     56          1           0       -5.738376   -2.884898    2.104988
     57          1           0       -6.724445   -1.963849    0.980340
     58          1           0        2.104503    1.465791    1.625204
     59          1           0        0.888584    2.070914    2.775172
     60          1           0        0.141687    0.342817   -0.190374
     61          1           0        4.428706   -1.829692   -2.823275
     62          1           0        3.940531   -2.970766   -1.602401
     63          1           0       -6.055837   -2.325001   -2.672352
     64          1           0        5.209306   -1.136295    0.042564
     65          1           0        5.786445   -0.413184   -1.444029
     66          1           0        3.986562   -0.195596   -4.080643
     67          1           0        3.581826    1.395792   -3.593723
     68          1           0        2.278923    0.387350   -4.408979
     69          1           0        0.764726    2.128877   -3.136752
     70          1           0       -6.745182   -4.121413   -0.126827
     71          1           0       -7.502592   -4.023750   -1.878366
     72          1           0        4.203848    3.741534    2.519585
     73          1           0       -0.618327    3.818642   -3.712428
     74          1           0       -4.013401    4.512653   -1.047484
     75          1           0       -3.493763    4.280191    0.741139
     76          1           0       -2.456426    5.460590   -0.269465
     77          1           0        8.288760   -2.440953   -0.659127
     78          1           0       -1.977910    5.692747   -4.099374
     79          1           0       -2.833757    5.582002   -2.515312
 ---------------------------------------------------------------------

 SCF Done:  E(RB3LYP) =  -1947.82814133     A.U. after   17 cycles

 Excitation energies and oscillator strengths:

 Excited State   1:      Singlet-A      0.7733 eV 1603.39 nm  f=0.0017  <S**2>=0.000
     155 ->156         0.70367
 This state for optimization and/or second-order correction.
 Total Energy, E(TD-HF/TD-DFT) =  -1947.79972448
 Copying the excited state density for this state as the 1-particle RhoCI density.

 The electronic state is 1-A.
 Alpha  occ. eigenvalues --  -19.21842 -19.16024 -19.15359 -19.14212 -19.11404
 Alpha  occ. eigenvalues --  -19.08494 -14.37288 -14.35947 -14.32457 -14.31165
 Alpha  occ. eigenvalues --  -10.33852 -10.32513 -10.27796 -10.26500 -10.25915
 Alpha  occ. eigenvalues --  -10.25172 -10.24621 -10.22714 -10.22358 -10.22216
 Alpha  occ. eigenvalues --  -10.22173 -10.21927 -10.21584 -10.21533 -10.21320
 Alpha  occ. eigenvalues --  -10.21293 -10.21106 -10.21031 -10.20764 -10.20362
 Alpha  occ. eigenvalues --  -10.20312 -10.20245 -10.20237 -10.20066 -10.20026
 Alpha  occ. eigenvalues --  -10.19072 -10.19028 -10.18813 -10.18464 -10.18102
 Alpha  occ. eigenvalues --  -10.17657 -10.17389 -10.17281  -1.13328  -1.07999
 Alpha  occ. eigenvalues --   -1.01371  -1.01119  -1.00786  -0.99339  -0.98934
 Alpha  occ. eigenvalues --   -0.96129  -0.94467  -0.92284  -0.84679  -0.82390
 Alpha  occ. eigenvalues --   -0.81620  -0.80937  -0.80712  -0.79567  -0.78545
 Alpha  occ. eigenvalues --   -0.77321  -0.76027  -0.75144  -0.74854  -0.73160
 Alpha  occ. eigenvalues --   -0.70902  -0.70215  -0.69376  -0.69206  -0.67547
 Alpha  occ. eigenvalues --   -0.66256  -0.65417  -0.64004  -0.61744  -0.61441
 Alpha  occ. eigenvalues --   -0.60677  -0.60069  -0.58043  -0.57022  -0.56141
 Alpha  occ. eigenvalues --   -0.55684  -0.55076  -0.54304  -0.54128  -0.53135
 Alpha  occ. eigenvalues --   -0.51668  -0.51512  -0.51371  -0.50474  -0.50429
 Alpha  occ. eigenvalues --   -0.49890  -0.49321  -0.48919  -0.48620  -0.48033
 Alpha  occ. eigenvalues --   -0.47447  -0.47002  -0.46569  -0.46370  -0.46340
 Alpha  occ. eigenvalues --   -0.46005  -0.45133  -0.44875  -0.44757  -0.44200
 Alpha  occ. eigenvalues --   -0.43876  -0.43657  -0.43198  -0.42877  -0.42518
 Alpha  occ. eigenvalues --   -0.42022  -0.41910  -0.41669  -0.41555  -0.41270
 Alpha  occ. eigenvalues --   -0.41034  -0.40925  -0.40224  -0.39903  -0.39745
 Alpha  occ. eigenvalues --   -0.39342  -0.39142  -0.38428  -0.38276  -0.37944
 Alpha  occ. eigenvalues --   -0.37697  -0.37392  -0.37182  -0.36714  -0.36203
 Alpha  occ. eigenvalues --   -0.36028  -0.35797  -0.35578  -0.35199  -0.34810
 Alpha  occ. eigenvalues --   -0.33991  -0.33754  -0.33268  -0.32395  -0.31830
 Alpha  occ. eigenvalues --   -0.31716  -0.29578  -0.29385  -0.28946  -0.28732
 Alpha  occ. eigenvalues --   -0.28339  -0.26777  -0.25797  -0.24837  -0.24169
 Alpha  occ. eigenvalues --   -0.23999  -0.23352  -0.22743  -0.22391  -0.18650
 Alpha virt. eigenvalues --   -0.12997  -0.07777  -0.04656  -0.02005  -0.01315
 Alpha virt. eigenvalues --   -0.00750   0.01763   0.02486   0.02609   0.03446
 Alpha virt. eigenvalues --    0.03849   0.04393   0.05154   0.05549   0.05695

 Mulliken charges:
               1
     1  O   -0.227158
     2  O   -0.286640
     3  O   -0.164672
     4  O   -0.131560
     5  O   -0.263194
     6  O   -0.265899
     7  N   -0.079957
     8  N   -0.183023
     9  N   -0.209651
    10  N   -0.295761
    11  C    0.119026
    12  C    0.248416
    13  C   -0.106399
    14  C   -0.092430
    15  C   -0.088769
    16  C    0.007809
    17  C   -0.226873
    18  C    0.185070
    19  C    0.012094
    20  C    0.001799
    21  C    0.046452
    22  C    0.130183
    23  C   -0.029243
    24  C   -0.056700
    25  C    0.224123
    26  C   -0.141383
    27  C   -0.034523
    28  C    0.117815
    29  C    0.145129
    30  C   -0.063249
    31  C    0.011248
    32  C    0.076367
    33  C   -0.063695
    34  C    0.163508
    35  C    0.160240
    36  C   -0.100169
    37  C    0.124751
    38  C    0.078997
    39  C   -0.220074
    40  C    0.165893
    41  C   -0.019671
    42  C    0.082859
    43  C    0.005861
    44  H    0.036430
    45  H   -0.008781
    46  H   -0.060696
    47  H    0.143826
    48  H    0.128343
    49  H   -0.045830
    50  H    0.020293
    51  H   -0.083672
    52  H    0.032542
    53  H    0.017503
    54  H    0.083094
    55  H   -0.032327
    56  H    0.023945
    57  H    0.001023
    58  H    0.027491
    59  H    0.064135
    60  H    0.247636
    61  H   -0.001100
    62  H    0.033318
    63  H    0.033484
    64  H    0.045227
    65  H    0.019161
    66  H    0.022991
    67  H    0.031226
    68  H    0.026712
    69  H   -0.062344
    70  H    0.017830
    71  H    0.014082
    72  H    0.156739
    73  H   -0.028704
    74  H    0.060240
    75  H    0.013852
    76  H    0.054393
    77  H    0.188635
    78  H   -0.006251
    79  H    0.028608
 Sum of Mulliken charges =  -0.00000

 Dipole moment (field-independent basis, Debye):
    X=              4.1065    Y=              1.4944    Z=             -1.1704  Tot=              4.5240
 Quadrupole moment (field-independent basis, Debye-Ang):
   XX=           -223.0516   YY=           -247.4339   ZZ=           -265.4726
   XY=             -2.2873   XZ=            -17.6045   YZ=            -22.5417

 Normal termination of Gaussian 16 at Fri Jul 26 10:14:06 2019.
