 Gaussian 16, Revision A.03,
 Gaussian 16:  ES64L-G16RevA.03 25-Dec-2016

 --------------------------
 # td=(NStates=1) B3LYP/SVP
 --------------------------

 --
 TD
 --
 Symbolic Z-matrix:
 Charge =  0 Multiplicity = 1

                         Standard orientation:
 ---------------------------------------------------------------------
 Center     Atomic      Atomic             Coordinates (Angstroms)
 Number     Number       Type             X           Y           Z
 ---------------------------------------------------------------------
      1          8           0        5.462853    0.031710   -3.268186
      2          8           0       -3.047258   -3.101006    2.950823
      3          8           0       -3.413275   -0.910986    2.790380
      4          8           0       -1.631942    7.211538    1.599175
      5          8           0       -0.588361    7.033192   -0.419756
      6          8           0       -1.973030   -4.056269   -0.016093
      7          7           0        2.389676    0.799189    0.609335
      8          7           0        4.479115   -0.388302   -1.288622
      9          7           0       -1.789279    0.699141   -0.373572
     10          7           0       -2.680647   -1.883215   -0.522565
     11          6           0        4.756124   -1.245121   -0.084544
     12          6           0        4.485016   -0.495262    1.195669
     13          6           0        2.994912   -0.173184    1.392579
     14          6           0        1.961635   -0.655876    2.137461
     15          6           0        0.690119   -0.068942    1.719182
     16          6           0        1.035090    0.887029    0.806924
     17          6           0        6.285673   -1.542510   -0.251188
     18          6           0       -0.609343   -0.379895    2.543648
     19          6           0        6.740956   -0.808541   -1.379831
     20          6           0        0.350118    1.901529    0.166310
     21          6           0       -0.981499    1.884574   -0.287409
     22          6           0        5.559079   -0.363803   -2.146679
     23          6           0       -1.802207    2.837754   -0.801959
     24          6           0        2.204732   -1.721114    3.233487
     25          6           0        7.020608   -2.147693    0.797215
     26          6           0       -3.090572    2.499370   -1.213080
     27          6           0       -1.092341   -1.800250    2.395514
     28          6           0       -3.029952    1.032856   -0.899430
     29          6           0       -1.345801    4.361444   -0.817600
     30          6           0        8.111777   -0.686350   -1.946974
     31          6           0       -1.613162    5.039150    0.517346
     32          6           0       -4.225274    3.235768   -1.791727
     33          6           0       -3.931259    0.032120   -1.283617
     34          6           0       -2.595575   -1.840850    2.761462
     35          6           0       -3.823757   -1.368623   -1.150054
     36          6           0        9.286612   -0.804517   -1.222211
     37          6           0       -1.228618    6.580584    0.542006
     38          6           0       -4.708251   -2.527537   -1.543639
     39          6           0       -4.085603   -3.612746   -1.150725
     40          6           0       -2.862053   -3.327814   -0.512698
     41          6           0       -5.973829   -2.196782   -2.136277
     42          6           0       -4.616177   -5.093363   -1.193611
     43          6           0       -6.977109   -3.130340   -2.341549
     44          1           0        4.267218   -2.167919    0.026201
     45          1           0        5.216675    0.369371    1.259534
     46          1           0        4.842865   -0.937719    2.007607
     47          1           0        2.871789    1.081447   -0.332075
     48          1           0        3.532101   -0.506652   -1.679029
     49          1           0       -0.437205   -0.177715    3.548881
     50          1           0       -1.307376    0.360754    2.050651
     51          1           0        0.794908    3.034952    0.189746
     52          1           0        3.289190   -1.836232    3.575870
     53          1           0        1.604520   -1.602253    4.134385
     54          1           0        1.951615   -2.750205    3.121153
     55          1           0        6.415325   -2.897545    1.325890
     56          1           0        7.455396   -1.547007    1.486183
     57          1           0        7.896763   -2.806797    0.236510
     58          1           0       -1.203440   -2.127570    1.367258
     59          1           0       -0.386795   -2.676653    2.889909
     60          1           0       -1.584698   -0.243663   -0.178606
     61          1           0       -2.191644    4.901438   -1.414263
     62          1           0       -0.307641    4.136367   -1.059726
     63          1           0        7.943032   -0.453686   -3.054595
     64          1           0       -1.118308    4.485118    1.303952
     65          1           0       -2.761696    4.931876    0.893416
     66          1           0       -4.004765    4.458679   -2.072135
     67          1           0       -5.121829    3.413257   -1.192593
     68          1           0       -4.550682    2.467008   -2.659603
     69          1           0       -4.962532    0.462748   -1.763230
     70          1           0        9.471400   -1.140596   -0.331495
     71          1           0       10.196763   -1.046830   -2.021555
     72          1           0       -4.072261   -3.023188    3.327529
     73          1           0       -6.072102   -1.064893   -2.481259
     74          1           0       -5.555789   -5.306621   -0.624534
     75          1           0       -4.916666   -5.103426   -2.303417
     76          1           0       -3.717937   -5.584184   -0.815734
     77          1           0       -1.388545    8.018127    1.426079
     78          1           0       -7.956018   -2.946761   -2.721495
     79          1           0       -6.735991   -4.232553   -1.852200
 ---------------------------------------------------------------------

 SCF Done:  E(RB3LYP) =  -1947.78179786     A.U. after   19 cycles

 Excitation energies and oscillator strengths:

 Excited State   1:      Singlet-A      1.9411 eV  638.72 nm  f=0.3655  <S**2>=0.000
     154 ->156         0.15454
     155 ->156         0.68364
     155 <-156        -0.12135
 This state for optimization and/or second-order correction.
 Total Energy, E(TD-HF/TD-DFT) =  -1947.71046224
 Copying the excited state density for this state as the 1-particle RhoCI density.

 The electronic state is 1-A.
 Alpha  occ. eigenvalues --  -19.20641 -19.16492 -19.13142 -19.10827 -19.10490
 Alpha  occ. eigenvalues --  -19.10384 -14.37520 -14.36043 -14.35902 -14.28551
 Alpha  occ. eigenvalues --  -10.33340 -10.30271 -10.28816 -10.25983 -10.25290
 Alpha  occ. eigenvalues --  -10.25102 -10.24397 -10.23378 -10.23334 -10.23221
 Alpha  occ. eigenvalues --  -10.23179 -10.22970 -10.22722 -10.22225 -10.21985
 Alpha  occ. eigenvalues --  -10.21871 -10.21805 -10.21588 -10.21417 -10.21348
 Alpha  occ. eigenvalues --  -10.21255 -10.21043 -10.20826 -10.20742 -10.20442
 Alpha  occ. eigenvalues --  -10.20128 -10.19669 -10.19653 -10.19523 -10.19412
 Alpha  occ. eigenvalues --  -10.19410 -10.19154 -10.19029  -1.15349  -1.05954
 Alpha  occ. eigenvalues --   -1.04572  -1.01234  -0.99577  -0.98398  -0.97302
 Alpha  occ. eigenvalues --   -0.96147  -0.93870  -0.90193  -0.82977  -0.82654
 Alpha  occ. eigenvalues --   -0.81904  -0.80229  -0.80124  -0.79609  -0.77780
 Alpha  occ. eigenvalues --   -0.77077  -0.76098  -0.75765  -0.74564  -0.72415
 Alpha  occ. eigenvalues --   -0.72355  -0.71065  -0.69343  -0.69229  -0.68772
 Alpha  occ. eigenvalues --   -0.66590  -0.65832  -0.64549  -0.62022  -0.62003
 Alpha  occ. eigenvalues --   -0.61239  -0.58745  -0.58175  -0.57231  -0.56610
 Alpha  occ. eigenvalues --   -0.55679  -0.55316  -0.54607  -0.54239  -0.53638
 Alpha  occ. eigenvalues --   -0.52702  -0.52116  -0.50959  -0.50742  -0.49701
 Alpha  occ. eigenvalues --   -0.49438  -0.48754  -0.48661  -0.47833  -0.47621
 Alpha  occ. eigenvalues --   -0.47095  -0.46793  -0.46283  -0.46091  -0.45541
 Alpha  occ. eigenvalues --   -0.45279  -0.45267  -0.44825  -0.44163  -0.44003
 Alpha  occ. eigenvalues --   -0.43789  -0.43580  -0.43147  -0.42788  -0.42590
 Alpha  occ. eigenvalues --   -0.42129  -0.41702  -0.41559  -0.41352  -0.41079
 Alpha  occ. eigenvalues --   -0.40851  -0.40495  -0.40016  -0.39576  -0.39502
 Alpha  occ. eigenvalues --   -0.38960  -0.38887  -0.38682  -0.38498  -0.37946
 Alpha  occ. eigenvalues --   -0.37527  -0.37439  -0.37295  -0.37218  -0.36845
 Alpha  occ. eigenvalues --   -0.34826  -0.34752  -0.34491  -0.34155  -0.33557
 Alpha  occ. eigenvalues --   -0.33394  -0.33276  -0.32576  -0.32304  -0.31464
 Alpha  occ. eigenvalues --   -0.31199  -0.29495  -0.28410  -0.28341  -0.28003
 Alpha  occ. eigenvalues --   -0.26698  -0.26457  -0.25839  -0.25730  -0.24819
 Alpha  occ. eigenvalues --   -0.24484  -0.24352  -0.23827  -0.22546  -0.19140
 Alpha virt. eigenvalues --   -0.11412  -0.07456  -0.07224  -0.01336  -0.00657
 Alpha virt. eigenvalues --   -0.00617   0.00880   0.01812   0.01882   0.03152
 Alpha virt. eigenvalues --    0.03684   0.03947   0.04281   0.04588   0.04833

 Mulliken charges:
               1
     1  O   -0.188999
     2  O   -0.243939
     3  O   -0.267688
     4  O   -0.028895
     5  O   -0.255473
     6  O   -0.234002
     7  N   -0.128391
     8  N   -0.208908
     9  N   -0.108855
    10  N   -0.360478
    11  C    0.106551
    12  C    0.255063
    13  C   -0.063147
    14  C   -0.109147
    15  C   -0.093445
    16  C    0.090477
    17  C   -0.175830
    18  C    0.139965
    19  C   -0.094111
    20  C   -0.144509
    21  C    0.113189
    22  C    0.138821
    23  C   -0.154351
    24  C    0.067907
    25  C    0.076146
    26  C   -0.039537
    27  C   -0.022072
    28  C    0.089841
    29  C    0.126602
    30  C   -0.006350
    31  C   -0.063143
    32  C   -0.017838
    33  C   -0.118986
    34  C    0.145770
    35  C    0.069703
    36  C    0.002016
    37  C    0.131173
    38  C    0.112841
    39  C   -0.214828
    40  C    0.179396
    41  C   -0.052819
    42  C    0.058890
    43  C   -0.053306
    44  H    0.002035
    45  H    0.000091
    46  H   -0.070666
    47  H    0.146072
    48  H    0.137842
    49  H   -0.002025
    50  H    0.026362
    51  H    0.052056
    52  H    0.003492
    53  H   -0.004385
    54  H    0.009446
    55  H    0.017844
    56  H    0.028482
    57  H    0.058880
    58  H    0.059179
    59  H    0.052705
    60  H    0.116026
    61  H    0.019656
    62  H    0.030383
    63  H    0.046194
    64  H    0.022253
    65  H    0.043200
    66  H    0.053088
    67  H    0.044867
    68  H    0.062643
    69  H    0.002263
    70  H   -0.026037
    71  H    0.046157
    72  H    0.225892
    73  H    0.027368
    74  H    0.048840
    75  H    0.042724
    76  H    0.040530
    77  H    0.111482
    78  H    0.024539
    79  H    0.045218
 Sum of Mulliken charges =  -0.00000

 Dipole moment (field-independent basis, Debye):
    X=              0.0122    Y=              1.3919    Z=              3.6127  Tot=              3.8716
 Quadrupole moment (field-independent basis, Debye-Ang):
   XX=           -213.9209   YY=           -247.3730   ZZ=           -261.9379
   XY=            -23.0659   XZ=             31.3337   YZ=              5.9112

 Normal termination of Gaussian 16 at Mon Sep 30 12:41:02 2019.
