 Gaussian 16, Revision A.03,
 Gaussian 16:  ES64L-G16RevA.03 25-Dec-2016

 --------------------------
 # td=(NStates=1) B3LYP/SVP
 --------------------------

 --
 TD
 --
 Symbolic Z-matrix:
 Charge =  0 Multiplicity = 1

                         Standard orientation:
 ---------------------------------------------------------------------
 Center     Atomic      Atomic             Coordinates (Angstroms)
 Number     Number       Type             X           Y           Z
 ---------------------------------------------------------------------
      1          8           0        5.483611   -0.049990   -3.223199
      2          8           0       -2.952909   -3.020742    3.261891
      3          8           0       -3.401109   -0.830733    3.075934
      4          8           0       -1.889549    7.227743    1.479875
      5          8           0       -1.050581    7.082673   -0.717003
      6          8           0       -1.493945   -3.965427    0.040160
      7          7           0        2.351836    1.067150    0.515467
      8          7           0        4.420249   -0.553843   -1.265040
      9          7           0       -1.861020    0.635111   -0.554755
     10          7           0       -2.477869   -1.886355   -0.539526
     11          6           0        4.807333   -1.030822    0.085967
     12          6           0        4.366143   -0.140001    1.319369
     13          6           0        2.963931    0.188820    1.324663
     14          6           0        1.961634   -0.567258    2.067500
     15          6           0        0.659429    0.001506    1.740173
     16          6           0        0.912800    1.131090    0.810714
     17          6           0        6.339973   -1.223252   -0.115901
     18          6           0       -0.570868   -0.165295    2.448042
     19          6           0        6.693210   -0.817980   -1.294507
     20          6           0        0.055252    2.064422    0.117949
     21          6           0       -1.201386    1.807071   -0.296984
     22          6           0        5.469729   -0.383354   -2.051296
     23          6           0       -2.047909    2.869473   -0.860169
     24          6           0        2.209889   -1.554844    3.126118
     25          6           0        7.167348   -1.728443    0.994709
     26          6           0       -3.235375    2.236070   -1.305175
     27          6           0       -1.083400   -1.525235    2.659306
     28          6           0       -3.097488    0.823882   -0.995526
     29          6           0       -1.654912    4.342799   -0.902401
     30          6           0        8.021906   -0.746480   -1.958995
     31          6           0       -1.983626    5.123081    0.355781
     32          6           0       -4.377951    2.827781   -1.999894
     33          6           0       -3.933893   -0.231310   -1.370855
     34          6           0       -2.632213   -1.764814    3.029274
     35          6           0       -3.673114   -1.570186   -1.174749
     36          6           0        9.247284   -0.706708   -1.434890
     37          6           0       -1.546343    6.551022    0.308743
     38          6           0       -4.464542   -2.851831   -1.576711
     39          6           0       -3.715107   -3.956705   -1.040416
     40          6           0       -2.492312   -3.288620   -0.426424
     41          6           0       -5.720443   -2.740767   -2.025772
     42          6           0       -3.905339   -5.424915   -1.165253
     43          6           0       -6.564005   -3.741362   -2.347166
     44          1           0        4.215162   -1.998537    0.238379
     45          1           0        4.779303    0.661719    1.066857
     46          1           0        4.798997   -0.461293    2.131350
     47          1           0        2.707294    1.634332   -0.271833
     48          1           0        3.545999   -0.544759   -1.743314
     49          1           0       -0.381398    0.209249    3.369848
     50          1           0       -1.606929    0.387973    2.054161
     51          1           0        0.577929    3.079358    0.145771
     52          1           0        3.485833   -1.522806    3.486850
     53          1           0        1.745156   -1.356972    4.111588
     54          1           0        1.996944   -2.552675    2.835796
     55          1           0        6.742669   -2.724990    1.401412
     56          1           0        7.369166   -0.900695    1.736396
     57          1           0        8.106422   -2.045815    0.407765
     58          1           0       -0.951634   -2.184823    1.655771
     59          1           0       -0.620320   -2.191172    3.353988
     60          1           0       -1.506142   -0.352518   -0.034140
     61          1           0       -2.454369    4.916107   -1.558411
     62          1           0       -0.722611    4.473011   -1.172513
     63          1           0        7.720587   -0.620117   -3.198794
     64          1           0       -1.357911    4.722433    1.266710
     65          1           0       -3.085212    5.153718    0.629486
     66          1           0       -4.457935    3.814408   -2.140021
     67          1           0       -5.214841    2.477438   -1.625524
     68          1           0       -4.596368    2.605948   -3.061413
     69          1           0       -4.983550   -0.008943   -1.746918
     70          1           0        9.171246   -0.763672   -0.240886
     71          1           0       10.316701   -0.621256   -1.961589
     72          1           0       -3.826782   -3.116365    3.723400
     73          1           0       -6.043312   -1.735068   -2.388077
     74          1           0       -4.746105   -5.776043   -0.390814
     75          1           0       -4.276498   -5.658165   -2.249999
     76          1           0       -2.942189   -6.029656   -0.930612
     77          1           0       -1.954707    8.232983    1.343938
     78          1           0       -7.503423   -3.601048   -2.916324
     79          1           0       -6.497481   -4.824943   -2.033905
 ---------------------------------------------------------------------

 SCF Done:  E(RB3LYP) =  -1947.79532430     A.U. after   19 cycles

 Excitation energies and oscillator strengths:

 Excited State   1:      Singlet-A      1.9589 eV  632.94 nm  f=0.3402  <S**2>=0.000
     154 ->156         0.23450
     155 ->156         0.65666
     155 <-156        -0.10194
 This state for optimization and/or second-order correction.
 Total Energy, E(TD-HF/TD-DFT) =  -1947.72333742
 Copying the excited state density for this state as the 1-particle RhoCI density.

 The electronic state is 1-A.
 Alpha  occ. eigenvalues --  -19.19149 -19.18100 -19.13723 -19.11047 -19.09562
 Alpha  occ. eigenvalues --  -19.08869 -14.39631 -14.36849 -14.35937 -14.29109
 Alpha  occ. eigenvalues --  -10.33403 -10.31010 -10.27804 -10.25993 -10.25909
 Alpha  occ. eigenvalues --  -10.24687 -10.24178 -10.23859 -10.23745 -10.23156
 Alpha  occ. eigenvalues --  -10.22548 -10.22547 -10.21781 -10.21450 -10.21356
 Alpha  occ. eigenvalues --  -10.21265 -10.21172 -10.21158 -10.21111 -10.20902
 Alpha  occ. eigenvalues --  -10.20819 -10.20735 -10.20714 -10.20266 -10.19899
 Alpha  occ. eigenvalues --  -10.19737 -10.19607 -10.19510 -10.19489 -10.19182
 Alpha  occ. eigenvalues --  -10.19029 -10.18944 -10.17966  -1.09195  -1.07398
 Alpha  occ. eigenvalues --   -1.02972  -0.99505  -0.99497  -0.99064  -0.97599
 Alpha  occ. eigenvalues --   -0.96557  -0.94627  -0.89275  -0.83451  -0.83002
 Alpha  occ. eigenvalues --   -0.82484  -0.81926  -0.81064  -0.80714  -0.78632
 Alpha  occ. eigenvalues --   -0.76804  -0.76287  -0.75447  -0.74328  -0.73116
 Alpha  occ. eigenvalues --   -0.71956  -0.71161  -0.69574  -0.68722  -0.68556
 Alpha  occ. eigenvalues --   -0.67192  -0.66814  -0.64025  -0.61326  -0.60594
 Alpha  occ. eigenvalues --   -0.60221  -0.59636  -0.58342  -0.58117  -0.57498
 Alpha  occ. eigenvalues --   -0.56586  -0.55419  -0.55154  -0.54134  -0.52778
 Alpha  occ. eigenvalues --   -0.51457  -0.51099  -0.50439  -0.50233  -0.49842
 Alpha  occ. eigenvalues --   -0.49347  -0.48286  -0.47923  -0.47759  -0.47458
 Alpha  occ. eigenvalues --   -0.47269  -0.46876  -0.46786  -0.46337  -0.46073
 Alpha  occ. eigenvalues --   -0.45345  -0.45088  -0.44232  -0.44024  -0.43965
 Alpha  occ. eigenvalues --   -0.43743  -0.43467  -0.43173  -0.42894  -0.42807
 Alpha  occ. eigenvalues --   -0.42556  -0.42350  -0.41869  -0.41700  -0.41254
 Alpha  occ. eigenvalues --   -0.40743  -0.40491  -0.40213  -0.39851  -0.39389
 Alpha  occ. eigenvalues --   -0.39024  -0.38891  -0.38663  -0.38312  -0.38090
 Alpha  occ. eigenvalues --   -0.37449  -0.37219  -0.37080  -0.36960  -0.36715
 Alpha  occ. eigenvalues --   -0.36223  -0.35537  -0.34366  -0.34010  -0.33638
 Alpha  occ. eigenvalues --   -0.32772  -0.32739  -0.32175  -0.31926  -0.31858
 Alpha  occ. eigenvalues --   -0.31369  -0.31304  -0.28554  -0.28276  -0.26779
 Alpha  occ. eigenvalues --   -0.26669  -0.26215  -0.25480  -0.25375  -0.25050
 Alpha  occ. eigenvalues --   -0.24615  -0.22972  -0.22889  -0.21199  -0.18925
 Alpha virt. eigenvalues --   -0.11006  -0.07049  -0.04843  -0.02195  -0.00911
 Alpha virt. eigenvalues --    0.00558   0.01801   0.02221   0.02624   0.02859
 Alpha virt. eigenvalues --    0.02961   0.03591   0.04057   0.04867   0.05293

 Mulliken charges:
               1
     1  O   -0.233131
     2  O   -0.163387
     3  O   -0.236021
     4  O   -0.250287
     5  O   -0.257721
     6  O   -0.295378
     7  N   -0.108412
     8  N   -0.151378
     9  N   -0.102163
    10  N   -0.320017
    11  C    0.050620
    12  C    0.465766
    13  C   -0.104023
    14  C   -0.120994
    15  C   -0.039704
    16  C    0.003179
    17  C   -0.213239
    18  C    0.091291
    19  C   -0.031757
    20  C   -0.131167
    21  C    0.157599
    22  C    0.095249
    23  C   -0.117809
    24  C    0.029100
    25  C    0.036361
    26  C   -0.114705
    27  C   -0.115004
    28  C    0.136130
    29  C    0.186941
    30  C   -0.021550
    31  C   -0.053151
    32  C    0.222746
    33  C   -0.141817
    34  C    0.125587
    35  C    0.076274
    36  C   -0.106229
    37  C    0.174184
    38  C    0.111884
    39  C   -0.145782
    40  C    0.188710
    41  C   -0.049227
    42  C   -0.000213
    43  C   -0.076670
    44  H    0.029849
    45  H   -0.112134
    46  H   -0.065768
    47  H    0.131689
    48  H    0.124093
    49  H   -0.016797
    50  H    0.064359
    51  H    0.026216
    52  H    0.009052
    53  H    0.030742
    54  H    0.039326
    55  H    0.042330
    56  H    0.060487
    57  H    0.046804
    58  H    0.087117
    59  H    0.001092
    60  H    0.239588
    61  H    0.027152
    62  H   -0.030635
    63  H    0.062623
    64  H    0.051435
    65  H    0.060649
    66  H   -0.044061
    67  H   -0.031039
    68  H    0.003060
    69  H   -0.010986
    70  H    0.033321
    71  H    0.069164
    72  H    0.197463
    73  H    0.000251
    74  H    0.048663
    75  H    0.050750
    76  H    0.056443
    77  H    0.214466
    78  H    0.023789
    79  H    0.028761
 Sum of Mulliken charges =  -0.00000

 Dipole moment (field-independent basis, Debye):
    X=             -1.1236    Y=              2.5158    Z=              4.4580  Tot=              5.2407
 Quadrupole moment (field-independent basis, Debye-Ang):
   XX=           -222.0882   YY=           -242.3526   ZZ=           -260.1612
   XY=             -7.8148   XZ=             30.4821   YZ=              2.3246

 Normal termination of Gaussian 16 at Tue Sep 24 18:59:19 2019.
