 Gaussian 16, Revision A.03,
 Gaussian 16:  ES64L-G16RevA.03 25-Dec-2016

 --------------------------
 # td=(NStates=1) B3LYP/SVP
 --------------------------

 --
 TD
 --
 Symbolic Z-matrix:
 Charge =  0 Multiplicity = 1

                         Standard orientation:
 ---------------------------------------------------------------------
 Center     Atomic      Atomic             Coordinates (Angstroms)
 Number     Number       Type             X           Y           Z
 ---------------------------------------------------------------------
      1          8           0       -3.326107   -1.992157   -2.656011
      2          8           0        2.908708    3.660431    2.612621
      3          8           0        3.611387    2.225931    4.182747
      4          8           0        7.884948   -1.697612   -0.456399
      5          8           0        6.709941   -3.268687   -1.601590
      6          8           0       -2.570237    1.692791    1.155562
      7          7           0       -0.256417   -2.193836    1.278423
      8          7           0       -2.668639   -1.380755   -0.486375
      9          7           0        1.079093   -0.097509   -0.746733
     10          7           0       -0.974292    1.307752   -0.446210
     11          6           0       -3.324178   -1.286121    0.795987
     12          6           0       -2.689137   -1.983740    1.868353
     13          6           0       -1.133574   -1.670816    2.148245
     14          6           0       -0.542198   -0.681607    2.957597
     15          6           0        0.755562   -0.643055    2.628979
     16          6           0        0.927800   -1.566899    1.448042
     17          6           0       -4.758397   -1.764205    0.526900
     18          6           0        1.816506    0.261361    3.186280
     19          6           0       -4.898926   -2.098563   -0.818127
     20          6           0        2.029412   -1.739189    0.642293
     21          6           0        2.158350   -1.015240   -0.539256
     22          6           0       -3.570671   -1.917942   -1.433531
     23          6           0        3.051635   -0.932564   -1.686986
     24          6           0       -1.263707    0.079181    3.966990
     25          6           0       -5.869774   -1.720861    1.577900
     26          6           0        2.630048    0.068850   -2.492409
     27          6           0        1.923058    1.606825    2.539712
     28          6           0        1.468145    0.566805   -1.860915
     29          6           0        4.310442   -1.788163   -1.758123
     30          6           0       -5.934822   -2.711578   -1.592685
     31          6           0        5.506682   -1.298533   -0.969479
     32          6           0        3.192583    0.541821   -3.733716
     33          6           0        0.532545    1.668079   -2.301469
     34          6           0        2.974122    2.462686    3.166009
     35          6           0       -0.671487    1.954768   -1.593118
     36          6           0       -6.915849   -3.471323   -1.065202
     37          6           0        6.767073   -2.240863   -1.091413
     38          6           0       -1.470226    3.260403   -1.788760
     39          6           0       -2.287990    3.228989   -0.721765
     40          6           0       -1.938862    2.025427    0.188966
     41          6           0       -1.284321    4.152743   -2.922942
     42          6           0       -3.479709    4.143905   -0.313043
     43          6           0       -2.074847    5.214065   -3.174763
     44          1           0       -3.349533   -0.241415    1.044133
     45          1           0       -2.653581   -3.157614    1.578670
     46          1           0       -3.267305   -2.052148    2.729274
     47          1           0       -0.488254   -2.630560    0.330807
     48          1           0       -2.013593   -0.717054   -0.544662
     49          1           0        1.631340    0.532297    4.268215
     50          1           0        2.852752   -0.326460    3.018656
     51          1           0        2.546980   -2.638690    0.705526
     52          1           0       -2.046252   -0.397765    4.678700
     53          1           0       -0.577618    0.563993    4.718256
     54          1           0       -1.719772    0.876848    3.247916
     55          1           0       -5.737951   -0.795887    2.060629
     56          1           0       -5.860767   -2.697771    2.209917
     57          1           0       -6.941448   -1.482817    1.093638
     58          1           0        2.266199    1.507062    1.468704
     59          1           0        0.969324    2.206470    2.630449
     60          1           0        0.393752    0.368630   -0.140697
     61          1           0        4.697971   -1.848492   -2.805670
     62          1           0        4.040095   -2.835791   -1.323245
     63          1           0       -5.774440   -2.401699   -2.566143
     64          1           0        5.386799   -1.088503    0.105030
     65          1           0        5.905890   -0.290382   -1.109110
     66          1           0        4.219004    0.060920   -3.681108
     67          1           0        3.399691    1.666724   -3.601852
     68          1           0        2.635393    0.183723   -4.629396
     69          1           0        0.697764    2.120528   -3.301238
     70          1           0       -6.935680   -3.489749   -0.102849
     71          1           0       -7.796948   -3.850972   -1.676852
     72          1           0        3.651834    4.152219    2.942101
     73          1           0       -0.452336    3.950020   -3.617826
     74          1           0       -4.175493    4.386137   -1.209679
     75          1           0       -4.107726    3.712420    0.523554
     76          1           0       -3.051868    4.953978    0.134426
     77          1           0        8.566964   -2.397548   -0.392904
     78          1           0       -1.803286    5.880538   -4.096762
     79          1           0       -2.726948    5.575796   -2.485109
 ---------------------------------------------------------------------

 SCF Done:  E(RB3LYP) =  -1947.87806677     A.U. after   18 cycles

 Excitation energies and oscillator strengths:

 Excited State   1:      Singlet-A      1.0007 eV 1238.96 nm  f=0.0150  <S**2>=0.000
     155 ->156         0.70368
 This state for optimization and/or second-order correction.
 Total Energy, E(TD-HF/TD-DFT) =  -1947.84129126
 Copying the excited state density for this state as the 1-particle RhoCI density.

 The electronic state is 1-A.
 Alpha  occ. eigenvalues --  -19.18886 -19.18434 -19.15025 -19.12241 -19.11667
 Alpha  occ. eigenvalues --  -19.07980 -14.38029 -14.36827 -14.31894 -14.30297
 Alpha  occ. eigenvalues --  -10.33452 -10.31421 -10.27548 -10.26868 -10.26469
 Alpha  occ. eigenvalues --  -10.25779 -10.24858 -10.23627 -10.23521 -10.22501
 Alpha  occ. eigenvalues --  -10.22473 -10.22365 -10.21814 -10.21032 -10.20999
 Alpha  occ. eigenvalues --  -10.20961 -10.20832 -10.20716 -10.20672 -10.20383
 Alpha  occ. eigenvalues --  -10.20377 -10.20308 -10.20115 -10.19841 -10.19688
 Alpha  occ. eigenvalues --  -10.19492 -10.19327 -10.18502 -10.18464 -10.18091
 Alpha  occ. eigenvalues --  -10.17613 -10.17568 -10.16639  -1.11735  -1.10969
 Alpha  occ. eigenvalues --   -1.03846  -1.03340  -1.00204  -0.99943  -0.99077
 Alpha  occ. eigenvalues --   -0.98077  -0.93319  -0.91945  -0.85274  -0.82432
 Alpha  occ. eigenvalues --   -0.81287  -0.81102  -0.80912  -0.79673  -0.78024
 Alpha  occ. eigenvalues --   -0.77231  -0.76409  -0.75176  -0.74051  -0.73802
 Alpha  occ. eigenvalues --   -0.70779  -0.70169  -0.69833  -0.69700  -0.67551
 Alpha  occ. eigenvalues --   -0.67226  -0.65047  -0.62617  -0.61440  -0.61008
 Alpha  occ. eigenvalues --   -0.60465  -0.59896  -0.58995  -0.57645  -0.57060
 Alpha  occ. eigenvalues --   -0.56213  -0.55736  -0.54966  -0.53594  -0.52766
 Alpha  occ. eigenvalues --   -0.52167  -0.51844  -0.51154  -0.50666  -0.49595
 Alpha  occ. eigenvalues --   -0.49496  -0.49390  -0.48735  -0.48428  -0.48232
 Alpha  occ. eigenvalues --   -0.47970  -0.47772  -0.47581  -0.47164  -0.45786
 Alpha  occ. eigenvalues --   -0.45398  -0.45117  -0.44686  -0.44496  -0.44257
 Alpha  occ. eigenvalues --   -0.43728  -0.43267  -0.43056  -0.42885  -0.42709
 Alpha  occ. eigenvalues --   -0.42559  -0.42253  -0.41871  -0.41790  -0.41339
 Alpha  occ. eigenvalues --   -0.41046  -0.40747  -0.40341  -0.39946  -0.39875
 Alpha  occ. eigenvalues --   -0.39313  -0.38979  -0.38823  -0.38250  -0.38167
 Alpha  occ. eigenvalues --   -0.37342  -0.36782  -0.36668  -0.36436  -0.36308
 Alpha  occ. eigenvalues --   -0.36001  -0.35876  -0.35429  -0.35187  -0.34505
 Alpha  occ. eigenvalues --   -0.34226  -0.34127  -0.33593  -0.32276  -0.31490
 Alpha  occ. eigenvalues --   -0.30986  -0.30262  -0.29529  -0.29240  -0.28853
 Alpha  occ. eigenvalues --   -0.28364  -0.27730  -0.25632  -0.24514  -0.23937
 Alpha  occ. eigenvalues --   -0.23515  -0.23311  -0.22702  -0.21941  -0.18561
 Alpha virt. eigenvalues --   -0.12273  -0.07095  -0.04522  -0.01753  -0.00023
 Alpha virt. eigenvalues --    0.00152   0.01040   0.01669   0.01937   0.02886
 Alpha virt. eigenvalues --    0.04138   0.04607   0.04948   0.05318   0.05519

 Mulliken charges:
               1
     1  O   -0.267372
     2  O   -0.139494
     3  O   -0.239081
     4  O   -0.231203
     5  O   -0.142055
     6  O   -0.203490
     7  N   -0.009437
     8  N   -0.180092
     9  N   -0.087332
    10  N   -0.317460
    11  C    0.118371
    12  C    0.147345
    13  C   -0.109513
    14  C   -0.069580
    15  C   -0.067781
    16  C   -0.025429
    17  C   -0.199589
    18  C    0.066660
    19  C   -0.054592
    20  C   -0.118226
    21  C    0.099695
    22  C    0.174934
    23  C   -0.042875
    24  C    0.009090
    25  C    0.053114
    26  C   -0.134498
    27  C   -0.021898
    28  C    0.057292
    29  C    0.105877
    30  C    0.017717
    31  C   -0.027032
    32  C    0.086819
    33  C   -0.098366
    34  C    0.106963
    35  C    0.099728
    36  C    0.062761
    37  C    0.124460
    38  C    0.062309
    39  C   -0.239081
    40  C    0.171226
    41  C   -0.023642
    42  C    0.093726
    43  C    0.000931
    44  H    0.031706
    45  H   -0.017930
    46  H   -0.032279
    47  H    0.154269
    48  H    0.083679
    49  H    0.017170
    50  H    0.016494
    51  H   -0.020577
    52  H    0.029528
    53  H    0.000266
    54  H    0.065971
    55  H    0.015448
    56  H    0.066020
    57  H    0.040890
    58  H    0.029338
    59  H    0.059046
    60  H    0.197397
    61  H    0.029011
    62  H    0.046561
    63  H   -0.027405
    64  H    0.026511
    65  H    0.013304
    66  H    0.015274
    67  H    0.048928
    68  H    0.067226
    69  H   -0.004856
    70  H   -0.051037
    71  H    0.036729
    72  H    0.161988
    73  H   -0.005451
    74  H    0.050364
    75  H    0.026010
    76  H    0.004974
    77  H    0.186488
    78  H    0.038887
    79  H   -0.009842
 Sum of Mulliken charges =  -0.00000

 Dipole moment (field-independent basis, Debye):
    X=              4.2565    Y=              2.6323    Z=             -1.1228  Tot=              5.1291
 Quadrupole moment (field-independent basis, Debye-Ang):
   XX=           -227.0220   YY=           -244.2813   ZZ=           -267.0814
   XY=             -2.7564   XZ=            -25.3977   YZ=            -17.0799

 Normal termination of Gaussian 16 at Thu Jul 25 16:04:32 2019.
