 Gaussian 16, Revision A.03,
 Gaussian 16:  ES64L-G16RevA.03 25-Dec-2016

 --------------------------
 # td=(NStates=1) B3LYP/SVP
 --------------------------

 --
 TD
 --
 Symbolic Z-matrix:
 Charge =  0 Multiplicity = 1

                         Standard orientation:
 ---------------------------------------------------------------------
 Center     Atomic      Atomic             Coordinates (Angstroms)
 Number     Number       Type             X           Y           Z
 ---------------------------------------------------------------------
      1          8           0       -3.183324   -1.769121   -2.773289
      2          8           0        3.106079    3.400666    2.887973
      3          8           0        3.549107    1.815802    4.285920
      4          8           0        7.690324   -1.954207   -0.447878
      5          8           0        6.576164   -3.312997   -1.959838
      6          8           0       -2.702318    1.783134    1.174364
      7          7           0       -0.227253   -2.293058    1.161371
      8          7           0       -2.764453   -1.248593   -0.524186
      9          7           0        1.080425    0.074430   -0.781335
     10          7           0       -0.967853    1.470423   -0.350079
     11          6           0       -3.251405   -1.253776    0.766097
     12          6           0       -2.647261   -2.175243    1.806348
     13          6           0       -1.198247   -1.799716    1.902585
     14          6           0       -0.603395   -0.917574    2.944499
     15          6           0        0.723313   -0.810472    2.567517
     16          6           0        0.954480   -1.637848    1.437670
     17          6           0       -4.718378   -1.837099    0.338343
     18          6           0        1.782162    0.098148    3.149502
     19          6           0       -4.829309   -2.188453   -0.921948
     20          6           0        2.071355   -1.817747    0.489068
     21          6           0        2.096625   -0.922214   -0.526685
     22          6           0       -3.540516   -1.735167   -1.623453
     23          6           0        3.085184   -0.773921   -1.613760
     24          6           0       -1.330654   -0.153187    3.954384
     25          6           0       -5.720136   -2.200313    1.433545
     26          6           0        2.490981    0.336247   -2.473852
     27          6           0        1.771356    1.459242    2.660367
     28          6           0        1.291243    0.782824   -1.851840
     29          6           0        4.245085   -1.657002   -1.891988
     30          6           0       -5.761700   -2.745292   -1.756497
     31          6           0        5.465760   -1.323420   -1.061363
     32          6           0        3.202960    0.890044   -3.575200
     33          6           0        0.540851    1.848079   -2.207480
     34          6           0        2.894595    2.190412    3.335311
     35          6           0       -0.571156    2.191492   -1.449120
     36          6           0       -6.849450   -3.540137   -1.333558
     37          6           0        6.652006   -2.237534   -1.269858
     38          6           0       -1.444959    3.367371   -1.535203
     39          6           0       -2.311236    3.432799   -0.559334
     40          6           0       -2.012304    2.136828    0.195708
     41          6           0       -1.101212    4.398475   -2.615893
     42          6           0       -3.287850    4.379425   -0.062697
     43          6           0       -1.893403    5.459694   -2.796872
     44          1           0       -3.377704   -0.258550    1.229918
     45          1           0       -2.772761   -3.302767    1.395678
     46          1           0       -3.152506   -1.948641    2.658470
     47          1           0       -0.458549   -2.897892    0.190767
     48          1           0       -2.125815   -0.438619   -0.804311
     49          1           0        1.844294   -0.104730    4.178607
     50          1           0        2.758959   -0.590339    3.096631
     51          1           0        3.016970   -2.369691    0.726514
     52          1           0       -2.157513   -0.725962    4.317582
     53          1           0       -0.618635    0.195590    4.757869
     54          1           0       -1.847581    0.805638    3.579804
     55          1           0       -5.512219   -1.708843    2.413351
     56          1           0       -5.508167   -3.303458    1.755561
     57          1           0       -6.744965   -1.996658    1.240815
     58          1           0        1.814006    1.773222    1.610995
     59          1           0        0.864161    2.203473    2.851179
     60          1           0        0.275641    0.397474   -0.077343
     61          1           0        4.638258   -1.904552   -3.037824
     62          1           0        3.893901   -2.692252   -1.617978
     63          1           0       -6.019797   -2.424658   -2.733079
     64          1           0        5.072051   -1.379670    0.132644
     65          1           0        5.609290   -0.285813   -1.245889
     66          1           0        4.045652    0.399921   -3.918424
     67          1           0        3.419635    1.997892   -3.576348
     68          1           0        2.542184    0.931767   -4.545851
     69          1           0        1.002890    2.532915   -3.098936
     70          1           0       -6.794422   -3.947286   -0.418135
     71          1           0       -7.514507   -3.613465   -2.193305
     72          1           0        3.694551    3.855172    3.472321
     73          1           0       -0.319311    4.143415   -3.271270
     74          1           0       -4.040623    4.743324   -0.797787
     75          1           0       -3.894312    4.014186    0.710593
     76          1           0       -2.938028    5.319257    0.434971
     77          1           0        8.432313   -2.581029   -0.441150
     78          1           0       -1.721100    6.015972   -3.839248
     79          1           0       -2.712858    5.947265   -2.141847
 ---------------------------------------------------------------------

 SCF Done:  E(RB3LYP) =  -1947.82491426     A.U. after   20 cycles

 Excitation energies and oscillator strengths:

 Excited State   1:      Singlet-A      0.8386 eV 1478.45 nm  f=0.0040  <S**2>=0.000
     155 ->156         0.70509
 This state for optimization and/or second-order correction.
 Total Energy, E(TD-HF/TD-DFT) =  -1947.79409596
 Copying the excited state density for this state as the 1-particle RhoCI density.

 The electronic state is 1-A.
 Alpha  occ. eigenvalues --  -19.20212 -19.17634 -19.13955 -19.11268 -19.11101
 Alpha  occ. eigenvalues --  -19.09605 -14.38106 -14.36826 -14.31913 -14.31076
 Alpha  occ. eigenvalues --  -10.34625 -10.30923 -10.27654 -10.26926 -10.25727
 Alpha  occ. eigenvalues --  -10.25582 -10.25197 -10.23892 -10.23573 -10.23075
 Alpha  occ. eigenvalues --  -10.23019 -10.22934 -10.21540 -10.21360 -10.21354
 Alpha  occ. eigenvalues --  -10.21168 -10.21119 -10.20756 -10.20620 -10.20381
 Alpha  occ. eigenvalues --  -10.20348 -10.20013 -10.19942 -10.19455 -10.19287
 Alpha  occ. eigenvalues --  -10.19133 -10.19049 -10.18047 -10.17656 -10.17489
 Alpha  occ. eigenvalues --  -10.17444 -10.17135 -10.16523  -1.11224  -1.09677
 Alpha  occ. eigenvalues --   -1.01612  -1.01527  -0.99528  -0.99467  -0.99345
 Alpha  occ. eigenvalues --   -0.97191  -0.93875  -0.91931  -0.84003  -0.82608
 Alpha  occ. eigenvalues --   -0.81581  -0.81259  -0.80759  -0.79395  -0.78626
 Alpha  occ. eigenvalues --   -0.77207  -0.76614  -0.75802  -0.74093  -0.73175
 Alpha  occ. eigenvalues --   -0.71248  -0.70839  -0.69567  -0.69287  -0.68110
 Alpha  occ. eigenvalues --   -0.67018  -0.65649  -0.62763  -0.62439  -0.60754
 Alpha  occ. eigenvalues --   -0.60123  -0.59926  -0.59115  -0.56985  -0.56524
 Alpha  occ. eigenvalues --   -0.55625  -0.54906  -0.54720  -0.53691  -0.53295
 Alpha  occ. eigenvalues --   -0.52434  -0.51946  -0.51274  -0.50120  -0.49963
 Alpha  occ. eigenvalues --   -0.49477  -0.48800  -0.48462  -0.48105  -0.47729
 Alpha  occ. eigenvalues --   -0.47602  -0.47236  -0.46400  -0.46050  -0.45718
 Alpha  occ. eigenvalues --   -0.45304  -0.44909  -0.44532  -0.44336  -0.44138
 Alpha  occ. eigenvalues --   -0.43972  -0.43650  -0.43025  -0.42197  -0.42121
 Alpha  occ. eigenvalues --   -0.41764  -0.41337  -0.40878  -0.40711  -0.40677
 Alpha  occ. eigenvalues --   -0.40508  -0.40339  -0.40130  -0.39834  -0.39702
 Alpha  occ. eigenvalues --   -0.39645  -0.39049  -0.38986  -0.38678  -0.38544
 Alpha  occ. eigenvalues --   -0.37848  -0.37766  -0.37563  -0.37072  -0.36835
 Alpha  occ. eigenvalues --   -0.36436  -0.35661  -0.35069  -0.34458  -0.33913
 Alpha  occ. eigenvalues --   -0.33716  -0.32831  -0.31964  -0.31628  -0.31504
 Alpha  occ. eigenvalues --   -0.30088  -0.29729  -0.29180  -0.28940  -0.28607
 Alpha  occ. eigenvalues --   -0.27300  -0.25500  -0.25270  -0.24641  -0.24325
 Alpha  occ. eigenvalues --   -0.23751  -0.23347  -0.22784  -0.22203  -0.18257
 Alpha virt. eigenvalues --   -0.12580  -0.07431  -0.04120  -0.03943  -0.01465
 Alpha virt. eigenvalues --    0.01115   0.01512   0.01969   0.02508   0.02989
 Alpha virt. eigenvalues --    0.03208   0.03726   0.04220   0.05033   0.05390

 Mulliken charges:
               1
     1  O   -0.202194
     2  O   -0.132106
     3  O   -0.248681
     4  O   -0.182834
     5  O   -0.279639
     6  O   -0.239895
     7  N   -0.062397
     8  N   -0.239679
     9  N   -0.124122
    10  N   -0.316793
    11  C    0.044038
    12  C    0.289946
    13  C   -0.160861
    14  C   -0.102180
    15  C   -0.113943
    16  C   -0.024035
    17  C   -0.194312
    18  C    0.128091
    19  C    0.036566
    20  C   -0.114261
    21  C    0.149292
    22  C    0.149229
    23  C   -0.044688
    24  C    0.075808
    25  C    0.057995
    26  C   -0.124900
    27  C    0.046161
    28  C    0.147865
    29  C    0.001226
    30  C   -0.096053
    31  C   -0.054753
    32  C    0.082708
    33  C   -0.185580
    34  C    0.069347
    35  C    0.128810
    36  C    0.021703
    37  C    0.209003
    38  C    0.038919
    39  C   -0.164010
    40  C    0.148658
    41  C    0.043620
    42  C    0.097034
    43  C   -0.072404
    44  H    0.047400
    45  H    0.000308
    46  H   -0.065246
    47  H    0.183677
    48  H    0.146990
    49  H   -0.009137
    50  H    0.002141
    51  H    0.023793
    52  H   -0.009133
    53  H    0.009890
    54  H    0.039876
    55  H    0.001803
    56  H    0.035915
    57  H    0.027843
    58  H    0.014295
    59  H    0.059831
    60  H    0.244375
    61  H    0.064753
    62  H    0.033256
    63  H   -0.001524
    64  H    0.076095
    65  H    0.031342
    66  H   -0.002517
    67  H    0.030846
    68  H    0.022374
    69  H    0.033202
    70  H   -0.020583
    71  H    0.021925
    72  H    0.165173
    73  H   -0.028742
    74  H    0.023383
    75  H   -0.004940
    76  H    0.028296
    77  H    0.198459
    78  H    0.035168
    79  H    0.053714
 Sum of Mulliken charges =  -0.00000

 Dipole moment (field-independent basis, Debye):
    X=              3.9739    Y=              3.3932    Z=             -0.7345  Tot=              5.2769
 Quadrupole moment (field-independent basis, Debye-Ang):
   XX=           -228.4531   YY=           -240.0939   ZZ=           -267.0567
   XY=             -1.0794   XZ=            -16.3099   YZ=            -16.8262

 Normal termination of Gaussian 16 at Wed Jul 31 02:09:20 2019.
