 Gaussian 16, Revision A.03,
 Gaussian 16:  ES64L-G16RevA.03 25-Dec-2016

 --------------------------
 # td=(NStates=1) B3LYP/SVP
 --------------------------

 --
 TD
 --
 Symbolic Z-matrix:
 Charge =  0 Multiplicity = 1

                         Standard orientation:
 ---------------------------------------------------------------------
 Center     Atomic      Atomic             Coordinates (Angstroms)
 Number     Number       Type             X           Y           Z
 ---------------------------------------------------------------------
      1          8           0        5.388989    0.093687   -3.156796
      2          8           0       -3.050747   -2.895667    3.105727
      3          8           0       -3.395027   -0.718816    2.916416
      4          8           0       -1.756987    7.127746    1.644714
      5          8           0       -1.256346    7.160896   -0.668695
      6          8           0       -1.626313   -4.055920    0.061028
      7          7           0        2.401393    0.875234    0.577377
      8          7           0        4.347895   -0.444035   -1.253872
      9          7           0       -1.803956    0.754900   -0.430480
     10          7           0       -2.434862   -1.984001   -0.527575
     11          6           0        4.817286   -1.084611    0.015799
     12          6           0        4.437385   -0.399815    1.311418
     13          6           0        2.935194   -0.065896    1.392448
     14          6           0        1.931789   -0.609632    2.171040
     15          6           0        0.716741    0.018314    1.754994
     16          6           0        0.994489    0.938673    0.750164
     17          6           0        6.249938   -1.214157   -0.112090
     18          6           0       -0.628504   -0.191762    2.497536
     19          6           0        6.708072   -0.712178   -1.297686
     20          6           0        0.187118    1.939063    0.081085
     21          6           0       -1.146055    1.886353   -0.326772
     22          6           0        5.459321   -0.256304   -2.021735
     23          6           0       -1.979040    2.948399   -0.972757
     24          6           0        2.123279   -1.717425    3.132431
     25          6           0        7.185583   -1.823361    0.895299
     26          6           0       -3.130971    2.246462   -1.377741
     27          6           0       -1.129534   -1.588465    2.496715
     28          6           0       -3.043696    0.798293   -1.043206
     29          6           0       -1.621348    4.418575   -1.031810
     30          6           0        7.937812   -0.714150   -2.072403
     31          6           0       -1.832953    4.976737    0.456231
     32          6           0       -4.322299    3.026539   -1.945792
     33          6           0       -3.922295   -0.245664   -1.366147
     34          6           0       -2.646380   -1.613685    2.854280
     35          6           0       -3.520945   -1.588445   -1.132375
     36          6           0        9.143954   -0.756753   -1.435547
     37          6           0       -1.471562    6.524338    0.470848
     38          6           0       -4.419104   -2.730798   -1.484241
     39          6           0       -3.747791   -3.872888   -1.128210
     40          6           0       -2.497790   -3.348657   -0.553527
     41          6           0       -5.822787   -2.627515   -2.006374
     42          6           0       -4.090218   -5.377632   -1.031042
     43          6           0       -6.702168   -3.546117   -2.384114
     44          1           0        4.454398   -2.128290   -0.113112
     45          1           0        5.015388    0.678798    1.559979
     46          1           0        4.644862   -1.077052    2.256631
     47          1           0        2.840752    1.535176   -0.080595
     48          1           0        3.397403   -0.449927   -1.540712
     49          1           0       -0.416589    0.246228    3.725952
     50          1           0       -1.300416    0.569596    2.365687
     51          1           0        0.943271    2.837335   -0.121106
     52          1           0        3.277465   -1.731328    3.245885
     53          1           0        1.599327   -1.523972    4.059481
     54          1           0        1.859063   -2.824200    2.977928
     55          1           0        6.611969   -2.341464    1.620170
     56          1           0        7.707513   -0.928224    1.401059
     57          1           0        8.084372   -2.436393    0.538223
     58          1           0       -1.147779   -1.915121    1.460615
     59          1           0       -0.389014   -2.295741    3.109404
     60          1           0       -1.503911   -0.203863    0.171334
     61          1           0       -2.281064    4.855884   -1.942689
     62          1           0       -0.543586    4.592607   -1.381251
     63          1           0        7.775353   -0.762918   -3.148949
     64          1           0       -1.164118    4.489502    1.402826
     65          1           0       -2.960261    4.836508    0.953402
     66          1           0       -4.183262    3.933182   -2.021127
     67          1           0       -5.332434    2.868449   -1.464911
     68          1           0       -4.509101    2.593069   -3.025842
     69          1           0       -4.864034   -0.123781   -1.876475
     70          1           0        9.473582   -0.462954   -0.397480
     71          1           0       10.059024   -0.833220   -2.143636
     72          1           0       -3.952205   -2.737448    3.486585
     73          1           0       -6.132501   -1.526493   -2.115805
     74          1           0       -4.852160   -5.491378    0.057791
     75          1           0       -4.716094   -5.849573   -2.059353
     76          1           0       -3.008502   -6.053245   -0.661668
     77          1           0       -1.237672    7.936736    1.691482
     78          1           0       -7.802275   -3.542855   -2.812008
     79          1           0       -6.363728   -4.658731   -2.295317
 ---------------------------------------------------------------------

 SCF Done:  E(RB3LYP) =  -1947.78150600     A.U. after   19 cycles

 Excitation energies and oscillator strengths:

 Excited State   1:      Singlet-A      2.1085 eV  588.02 nm  f=0.4656  <S**2>=0.000
     155 ->156         0.70083
     155 <-156        -0.12506
 This state for optimization and/or second-order correction.
 Total Energy, E(TD-HF/TD-DFT) =  -1947.70402050
 Copying the excited state density for this state as the 1-particle RhoCI density.

 The electronic state is 1-A.
 Alpha  occ. eigenvalues --  -19.20697 -19.16381 -19.13615 -19.12570 -19.09540
 Alpha  occ. eigenvalues --  -19.08791 -14.38725 -14.37951 -14.35038 -14.29275
 Alpha  occ. eigenvalues --  -10.34394 -10.30940 -10.27291 -10.25926 -10.25903
 Alpha  occ. eigenvalues --  -10.25533 -10.25459 -10.24695 -10.24483 -10.24076
 Alpha  occ. eigenvalues --  -10.23622 -10.23615 -10.23394 -10.23302 -10.23277
 Alpha  occ. eigenvalues --  -10.21959 -10.21748 -10.21684 -10.21327 -10.21023
 Alpha  occ. eigenvalues --  -10.20801 -10.20741 -10.20695 -10.20585 -10.20493
 Alpha  occ. eigenvalues --  -10.20252 -10.20152 -10.19725 -10.19717 -10.19700
 Alpha  occ. eigenvalues --  -10.19684 -10.19483 -10.19075  -1.10097  -1.09621
 Alpha  occ. eigenvalues --   -1.03391  -1.00383  -0.99431  -0.98950  -0.98611
 Alpha  occ. eigenvalues --   -0.97286  -0.94042  -0.92481  -0.82849  -0.81799
 Alpha  occ. eigenvalues --   -0.81455  -0.81286  -0.79861  -0.79654  -0.77629
 Alpha  occ. eigenvalues --   -0.76606  -0.76232  -0.75044  -0.74144  -0.72305
 Alpha  occ. eigenvalues --   -0.71495  -0.71225  -0.69970  -0.68177  -0.67789
 Alpha  occ. eigenvalues --   -0.66019  -0.65781  -0.63227  -0.61305  -0.60787
 Alpha  occ. eigenvalues --   -0.60286  -0.58273  -0.58117  -0.57674  -0.57192
 Alpha  occ. eigenvalues --   -0.56248  -0.55380  -0.54912  -0.54185  -0.53362
 Alpha  occ. eigenvalues --   -0.51939  -0.51302  -0.50626  -0.49901  -0.49817
 Alpha  occ. eigenvalues --   -0.49050  -0.48648  -0.48215  -0.47783  -0.47516
 Alpha  occ. eigenvalues --   -0.47280  -0.46540  -0.46327  -0.45896  -0.45566
 Alpha  occ. eigenvalues --   -0.44853  -0.44559  -0.44215  -0.43645  -0.43520
 Alpha  occ. eigenvalues --   -0.43066  -0.42851  -0.42628  -0.42514  -0.42302
 Alpha  occ. eigenvalues --   -0.42124  -0.41772  -0.41443  -0.41180  -0.40932
 Alpha  occ. eigenvalues --   -0.40708  -0.40273  -0.40083  -0.39914  -0.39653
 Alpha  occ. eigenvalues --   -0.39235  -0.38990  -0.38689  -0.38362  -0.37923
 Alpha  occ. eigenvalues --   -0.37711  -0.37511  -0.37326  -0.36688  -0.36460
 Alpha  occ. eigenvalues --   -0.36158  -0.35516  -0.35272  -0.34461  -0.34406
 Alpha  occ. eigenvalues --   -0.33368  -0.32080  -0.31925  -0.31813  -0.31232
 Alpha  occ. eigenvalues --   -0.31136  -0.31094  -0.28742  -0.28150  -0.28047
 Alpha  occ. eigenvalues --   -0.27272  -0.26456  -0.25410  -0.25101  -0.24585
 Alpha  occ. eigenvalues --   -0.24339  -0.23914  -0.23799  -0.22783  -0.19166
 Alpha virt. eigenvalues --   -0.11161  -0.06606  -0.05271  -0.04502  -0.00483
 Alpha virt. eigenvalues --    0.00780   0.00894   0.01645   0.01999   0.02807
 Alpha virt. eigenvalues --    0.03109   0.03736   0.03829   0.04401   0.04591

 Mulliken charges:
               1
     1  O   -0.204043
     2  O   -0.200223
     3  O   -0.183647
     4  O   -0.160286
     5  O   -0.311356
     6  O   -0.264118
     7  N   -0.095374
     8  N   -0.194185
     9  N   -0.120086
    10  N   -0.209877
    11  C    0.178127
    12  C    0.088511
    13  C   -0.076958
    14  C   -0.084085
    15  C   -0.084194
    16  C    0.006311
    17  C   -0.228944
    18  C    0.007735
    19  C   -0.054985
    20  C   -0.085688
    21  C    0.076532
    22  C    0.097223
    23  C   -0.091307
    24  C    0.047803
    25  C    0.083709
    26  C   -0.160917
    27  C    0.003808
    28  C    0.184799
    29  C    0.080418
    30  C    0.014462
    31  C   -0.126694
    32  C    0.175261
    33  C   -0.113209
    34  C    0.113234
    35  C    0.063256
    36  C   -0.076050
    37  C    0.202605
    38  C    0.006055
    39  C   -0.116502
    40  C    0.136980
    41  C    0.014677
    42  C   -0.121314
    43  C   -0.097359
    44  H    0.032921
    45  H    0.042274
    46  H    0.024629
    47  H    0.123396
    48  H    0.123101
    49  H    0.008080
    50  H   -0.019191
    51  H    0.019969
    52  H   -0.006266
    53  H    0.015983
    54  H    0.053989
    55  H    0.002378
    56  H    0.040727
    57  H    0.052366
    58  H    0.072404
    59  H    0.057598
    60  H    0.233519
    61  H    0.066894
    62  H    0.044206
    63  H    0.031078
    64  H    0.076803
    65  H    0.088006
    66  H   -0.077658
    67  H    0.029993
    68  H    0.025515
    69  H   -0.028786
    70  H    0.044072
    71  H    0.031645
    72  H    0.172637
    73  H    0.000695
    74  H    0.065191
    75  H    0.075941
    76  H    0.088784
    77  H    0.190475
    78  H    0.057060
    79  H    0.019463
 Sum of Mulliken charges =  -0.00000

 Dipole moment (field-independent basis, Debye):
    X=              1.0721    Y=              2.7248    Z=              4.5153  Tot=              5.3816
 Quadrupole moment (field-independent basis, Debye-Ang):
   XX=           -222.3824   YY=           -255.0610   ZZ=           -261.7945
   XY=             -3.4381   XZ=             29.4816   YZ=             12.7041

 Normal termination of Gaussian 16 at Sat Sep 21 04:43:11 2019.
