 Gaussian 16, Revision A.03,
 Gaussian 16:  ES64L-G16RevA.03 25-Dec-2016

 --------------------------
 # td=(NStates=1) B3LYP/SVP
 --------------------------

 --
 TD
 --
 Symbolic Z-matrix:
 Charge =  0 Multiplicity = 1

                         Standard orientation:
 ---------------------------------------------------------------------
 Center     Atomic      Atomic             Coordinates (Angstroms)
 Number     Number       Type             X           Y           Z
 ---------------------------------------------------------------------
      1          8           0        5.346155   -0.207696   -3.282993
      2          8           0       -3.141753   -2.933881    3.053898
      3          8           0       -3.476541   -0.719009    2.906743
      4          8           0       -1.615779    7.252240    1.411266
      5          8           0       -0.485265    6.909631   -0.601414
      6          8           0       -1.600458   -3.873097   -0.043895
      7          7           0        2.362035    0.956977    0.651268
      8          7           0        4.415311   -0.383591   -1.166149
      9          7           0       -1.899611    0.725011   -0.402515
     10          7           0       -2.571018   -1.834639   -0.566844
     11          6           0        4.760925   -1.105945    0.086226
     12          6           0        4.401106   -0.265906    1.272519
     13          6           0        2.922528    0.007580    1.363726
     14          6           0        1.924273   -0.555073    2.196893
     15          6           0        0.740119    0.126223    1.868176
     16          6           0        1.012572    1.024506    0.792799
     17          6           0        6.269901   -1.367142   -0.157113
     18          6           0       -0.605029   -0.164240    2.614912
     19          6           0        6.645232   -0.876520   -1.331799
     20          6           0        0.193184    1.992249    0.114668
     21          6           0       -1.127962    1.873335   -0.382299
     22          6           0        5.488172   -0.467914   -2.078471
     23          6           0       -2.001053    2.916941   -0.900229
     24          6           0        2.092175   -1.562712    3.230257
     25          6           0        7.086809   -1.952901    1.014186
     26          6           0       -3.197900    2.326653   -1.320913
     27          6           0       -1.193423   -1.642143    2.565530
     28          6           0       -3.118167    0.970049   -0.917951
     29          6           0       -1.589586    4.336453   -0.901776
     30          6           0        7.939283   -0.925078   -2.037885
     31          6           0       -1.918469    5.167554    0.334871
     32          6           0       -4.339810    2.985447   -1.966402
     33          6           0       -3.970050   -0.097419   -1.434592
     34          6           0       -2.743527   -1.649379    2.844582
     35          6           0       -3.617286   -1.429244   -1.214732
     36          6           0        9.199864   -0.917812   -1.457886
     37          6           0       -1.193643    6.534469    0.246777
     38          6           0       -4.554007   -2.713221   -1.489590
     39          6           0       -3.788409   -3.818205   -0.973677
     40          6           0       -2.548297   -3.324598   -0.480933
     41          6           0       -5.784177   -2.608817   -2.096665
     42          6           0       -4.154731   -5.280389   -1.079406
     43          6           0       -6.643470   -3.692853   -2.220295
     44          1           0        4.352010   -2.068757    0.256223
     45          1           0        4.972852    0.705323    1.176933
     46          1           0        4.691510   -0.752117    2.210813
     47          1           0        2.802682    1.223226   -0.296655
     48          1           0        3.527806   -0.610932   -1.480851
     49          1           0       -0.291802   -0.007765    3.736052
     50          1           0       -1.353935    0.596807    2.409860
     51          1           0        0.655099    2.967379   -0.445004
     52          1           0        3.081285   -1.924714    3.774697
     53          1           0        1.608009   -1.138808    4.238105
     54          1           0        1.385276   -2.487334    2.868707
     55          1           0        6.275231   -2.601881    1.562671
     56          1           0        7.621618   -1.324939    1.714164
     57          1           0        7.698242   -2.878147    0.661763
     58          1           0       -0.940559   -2.033188    1.465593
     59          1           0       -0.613574   -2.270848    3.095107
     60          1           0       -1.546085   -0.362546   -0.284280
     61          1           0       -2.087209    4.665267   -1.795551
     62          1           0       -0.517281    4.546176   -1.252527
     63          1           0        7.888638   -0.957170   -2.945971
     64          1           0       -1.495960    4.406563    1.163038
     65          1           0       -2.813674    5.387539    0.739792
     66          1           0       -4.073773    4.012031   -2.094511
     67          1           0       -5.379031    2.930398   -1.279753
     68          1           0       -4.501379    2.534649   -2.946142
     69          1           0       -4.813948    0.106695   -1.864823
     70          1           0        9.414933   -0.801177   -0.459042
     71          1           0       10.097117   -0.924360   -1.961825
     72          1           0       -4.135875   -2.710893    3.302876
     73          1           0       -6.108957   -1.705181   -2.644004
     74          1           0       -5.033299   -5.455164   -0.475031
     75          1           0       -4.227723   -5.589339   -2.173401
     76          1           0       -3.233663   -5.818349   -0.694212
     77          1           0       -0.979136    7.921048    1.424289
     78          1           0       -7.595253   -3.651797   -2.652918
     79          1           0       -6.210966   -4.663180   -1.834372
 ---------------------------------------------------------------------

 SCF Done:  E(RB3LYP) =  -1947.85172154     A.U. after   17 cycles

 Excitation energies and oscillator strengths:

 Excited State   1:      Singlet-A      1.8950 eV  654.26 nm  f=0.4267  <S**2>=0.000
     155 ->156         0.69583
     155 ->157         0.12448
     155 <-156        -0.11803
 This state for optimization and/or second-order correction.
 Total Energy, E(TD-HF/TD-DFT) =  -1947.78208018
 Copying the excited state density for this state as the 1-particle RhoCI density.

 The electronic state is 1-A.
 Alpha  occ. eigenvalues --  -19.17535 -19.17297 -19.15489 -19.12285 -19.11163
 Alpha  occ. eigenvalues --  -19.10290 -14.38581 -14.35510 -14.35370 -14.27915
 Alpha  occ. eigenvalues --  -10.33050 -10.31061 -10.29327 -10.25886 -10.24795
 Alpha  occ. eigenvalues --  -10.23357 -10.23306 -10.23232 -10.23073 -10.22884
 Alpha  occ. eigenvalues --  -10.22850 -10.22786 -10.21981 -10.21858 -10.21813
 Alpha  occ. eigenvalues --  -10.21098 -10.20916 -10.20607 -10.20397 -10.20350
 Alpha  occ. eigenvalues --  -10.20254 -10.20199 -10.19904 -10.19884 -10.19737
 Alpha  occ. eigenvalues --  -10.19731 -10.19726 -10.19594 -10.19274 -10.19251
 Alpha  occ. eigenvalues --  -10.19155 -10.18991 -10.17174  -1.10622  -1.08677
 Alpha  occ. eigenvalues --   -1.03169  -1.03137  -1.02545  -1.00509  -0.99756
 Alpha  occ. eigenvalues --   -0.97282  -0.94487  -0.90149  -0.83280  -0.82167
 Alpha  occ. eigenvalues --   -0.81399  -0.80933  -0.80403  -0.79515  -0.77557
 Alpha  occ. eigenvalues --   -0.76844  -0.75822  -0.75022  -0.74171  -0.72578
 Alpha  occ. eigenvalues --   -0.71763  -0.70481  -0.68919  -0.68249  -0.67544
 Alpha  occ. eigenvalues --   -0.65928  -0.65396  -0.63957  -0.63265  -0.61226
 Alpha  occ. eigenvalues --   -0.59640  -0.58665  -0.57287  -0.56810  -0.56183
 Alpha  occ. eigenvalues --   -0.55486  -0.55222  -0.55036  -0.54686  -0.53674
 Alpha  occ. eigenvalues --   -0.52751  -0.52104  -0.50641  -0.50409  -0.49725
 Alpha  occ. eigenvalues --   -0.49543  -0.48768  -0.48517  -0.47831  -0.47532
 Alpha  occ. eigenvalues --   -0.47157  -0.47004  -0.45987  -0.45737  -0.45536
 Alpha  occ. eigenvalues --   -0.45414  -0.45047  -0.44815  -0.44016  -0.43899
 Alpha  occ. eigenvalues --   -0.43827  -0.43453  -0.43253  -0.43052  -0.42689
 Alpha  occ. eigenvalues --   -0.42423  -0.42222  -0.41762  -0.41266  -0.41146
 Alpha  occ. eigenvalues --   -0.40642  -0.40431  -0.40371  -0.40159  -0.39633
 Alpha  occ. eigenvalues --   -0.39458  -0.39360  -0.39283  -0.39131  -0.38871
 Alpha  occ. eigenvalues --   -0.38539  -0.37764  -0.37349  -0.36905  -0.36547
 Alpha  occ. eigenvalues --   -0.36085  -0.35732  -0.35236  -0.34653  -0.34129
 Alpha  occ. eigenvalues --   -0.33558  -0.33344  -0.32727  -0.32274  -0.32142
 Alpha  occ. eigenvalues --   -0.31551  -0.30986  -0.30243  -0.28690  -0.28185
 Alpha  occ. eigenvalues --   -0.27850  -0.26764  -0.26373  -0.25411  -0.24789
 Alpha  occ. eigenvalues --   -0.24767  -0.23404  -0.23152  -0.21462  -0.17908
 Alpha virt. eigenvalues --   -0.10396  -0.07212  -0.06759  -0.01003  -0.00947
 Alpha virt. eigenvalues --    0.00268   0.01447   0.01902   0.02729   0.03724
 Alpha virt. eigenvalues --    0.03815   0.04359   0.05024   0.05154   0.05352

 Mulliken charges:
               1
     1  O   -0.228529
     2  O   -0.220741
     3  O   -0.202167
     4  O   -0.212338
     5  O   -0.152170
     6  O   -0.159956
     7  N   -0.011313
     8  N   -0.192195
     9  N   -0.123297
    10  N   -0.334756
    11  C    0.065404
    12  C    0.244083
    13  C   -0.169572
    14  C   -0.068755
    15  C   -0.090344
    16  C    0.031297
    17  C   -0.163560
    18  C    0.067028
    19  C   -0.012583
    20  C   -0.094247
    21  C    0.026854
    22  C    0.152738
    23  C   -0.086402
    24  C   -0.058235
    25  C    0.043224
    26  C   -0.150439
    27  C   -0.011098
    28  C    0.122460
    29  C    0.076814
    30  C    0.108213
    31  C    0.007520
    32  C    0.091656
    33  C   -0.037143
    34  C    0.166475
    35  C    0.097210
    36  C    0.027891
    37  C    0.150382
    38  C    0.084601
    39  C   -0.226262
    40  C    0.162167
    41  C   -0.098283
    42  C    0.089979
    43  C    0.000613
    44  H    0.008051
    45  H    0.002647
    46  H   -0.012969
    47  H    0.146583
    48  H    0.115034
    49  H    0.008077
    50  H    0.018794
    51  H    0.027538
    52  H    0.040276
    53  H    0.031705
    54  H    0.071678
    55  H    0.015126
    56  H    0.062798
    57  H    0.044896
    58  H    0.092879
    59  H   -0.020305
    60  H    0.212642
    61  H   -0.006824
    62  H    0.031781
    63  H   -0.107529
    64  H    0.063727
    65  H    0.002255
    66  H   -0.001188
    67  H    0.052562
    68  H    0.030969
    69  H   -0.119825
    70  H   -0.010194
    71  H    0.008010
    72  H    0.193766
    73  H    0.002370
    74  H    0.041614
    75  H    0.043768
    76  H    0.026476
    77  H    0.143799
    78  H    0.010949
    79  H    0.015844
 Sum of Mulliken charges =  -0.00000

 Dipole moment (field-independent basis, Debye):
    X=              1.9973    Y=              0.6485    Z=              2.8837  Tot=              3.5673
 Quadrupole moment (field-independent basis, Debye-Ang):
   XX=           -210.6605   YY=           -249.4335   ZZ=           -260.4830
   XY=             -6.5030   XZ=             33.1404   YZ=              1.6994

 Normal termination of Gaussian 16 at Sat Sep 28 03:10:13 2019.
