 Gaussian 16, Revision A.03,
 Gaussian 16:  ES64L-G16RevA.03 25-Dec-2016

 --------------------------
 # td=(NStates=1) B3LYP/SVP
 --------------------------

 --
 TD
 --
 Symbolic Z-matrix:
 Charge =  0 Multiplicity = 1

                         Standard orientation:
 ---------------------------------------------------------------------
 Center     Atomic      Atomic             Coordinates (Angstroms)
 Number     Number       Type             X           Y           Z
 ---------------------------------------------------------------------
      1          8           0       -3.207435   -0.973414   -2.903768
      2          8           0        2.981015    2.889050    3.470066
      3          8           0        3.690082    1.116917    4.511674
      4          8           0        7.754905   -1.398663   -0.910355
      5          8           0        6.694672   -2.788776   -2.285641
      6          8           0       -2.759084    1.544554    1.605725
      7          7           0       -0.179507   -2.505881    0.749799
      8          7           0       -2.540864   -1.166252   -0.662413
      9          7           0        1.130225    0.182519   -0.771644
     10          7           0       -1.030169    1.459275   -0.005184
     11          6           0       -3.269656   -1.499280    0.530472
     12          6           0       -2.547653   -2.532009    1.494345
     13          6           0       -1.164807   -2.198461    1.638580
     14          6           0       -0.531596   -1.437608    2.721966
     15          6           0        0.823134   -1.296466    2.398352
     16          6           0        0.981829   -1.875751    1.046267
     17          6           0       -4.682999   -1.903671    0.142040
     18          6           0        1.931374   -0.576539    3.153795
     19          6           0       -4.723190   -1.950399   -1.244439
     20          6           0        2.144406   -1.893352    0.248042
     21          6           0        2.183320   -0.796943   -0.648614
     22          6           0       -3.447353   -1.324474   -1.752165
     23          6           0        3.062691   -0.487600   -1.831488
     24          6           0       -1.291226   -0.957967    3.964116
     25          6           0       -5.741373   -2.400418    1.181263
     26          6           0        2.518682    0.651064   -2.462917
     27          6           0        1.984845    0.870904    2.881071
     28          6           0        1.380067    1.018520   -1.763211
     29          6           0        4.186368   -1.212160   -2.212189
     30          6           0       -5.821682   -2.349601   -2.136181
     31          6           0        5.388634   -0.970993   -1.272405
     32          6           0        2.939194    1.302883   -3.689086
     33          6           0        0.446298    2.080393   -1.958494
     34          6           0        3.005900    1.648554    3.728652
     35          6           0       -0.622010    2.244826   -1.074285
     36          6           0       -6.840422   -3.151043   -1.923575
     37          6           0        6.677637   -1.787693   -1.586861
     38          6           0       -1.578199    3.517661   -1.158913
     39          6           0       -2.418161    3.329804   -0.074521
     40          6           0       -2.108296    2.070684    0.569270
     41          6           0       -1.366500    4.713150   -2.002146
     42          6           0       -3.457867    4.288105    0.557817
     43          6           0       -2.066419    5.766959   -1.893830
     44          1           0       -3.333061   -0.515532    1.201924
     45          1           0       -2.601261   -3.412644    1.007331
     46          1           0       -2.884072   -2.802890    2.627924
     47          1           0       -0.287862   -2.764862   -0.195938
     48          1           0       -2.087066   -0.322839   -0.456132
     49          1           0        1.490553   -0.579481    4.255318
     50          1           0        2.852765   -1.073104    2.866939
     51          1           0        2.922707   -2.554761    0.280314
     52          1           0       -1.858381   -1.740385    4.332845
     53          1           0       -0.660981   -0.255048    4.836472
     54          1           0       -1.846299   -0.147374    3.537982
     55          1           0       -5.487939   -2.267295    2.207146
     56          1           0       -5.768275   -3.501211    1.128122
     57          1           0       -6.700813   -1.986000    0.933150
     58          1           0        2.104022    1.446289    1.951796
     59          1           0        0.901794    1.363160    2.990201
     60          1           0        0.366348    0.424337   -0.028709
     61          1           0        4.271387   -1.045682   -3.294315
     62          1           0        3.957385   -2.180020   -2.071320
     63          1           0       -5.789364   -1.663964   -3.215662
     64          1           0        5.047527   -1.117535   -0.203514
     65          1           0        5.797058    0.129054   -1.462904
     66          1           0        3.856962    0.810318   -4.190696
     67          1           0        3.191773    2.417408   -3.545408
     68          1           0        1.935422    1.190858   -4.377188
     69          1           0        0.628521    2.981135   -2.753010
     70          1           0       -6.769525   -3.782288   -1.046026
     71          1           0       -7.782224   -3.196924   -2.851736
     72          1           0        3.587568    3.371905    3.936506
     73          1           0       -0.546317    4.447858   -2.766383
     74          1           0       -4.270527    4.471689   -0.213734
     75          1           0       -3.720206    3.688415    1.640608
     76          1           0       -2.978823    5.248721    0.990221
     77          1           0        8.510679   -2.146257   -1.091442
     78          1           0       -2.163438    6.835059   -2.437127
     79          1           0       -2.626903    5.918423   -1.023439
 ---------------------------------------------------------------------

 SCF Done:  E(RB3LYP) =  -1947.78274618     A.U. after   19 cycles

 Excitation energies and oscillator strengths:

 Excited State   1:      Singlet-A      0.6551 eV 1892.68 nm  f=0.0000  <S**2>=0.000
     155 ->156         0.70359
 This state for optimization and/or second-order correction.
 Total Energy, E(TD-HF/TD-DFT) =  -1947.75867272
 Copying the excited state density for this state as the 1-particle RhoCI density.

 The electronic state is 1-A.
 Alpha  occ. eigenvalues --  -19.20585 -19.18305 -19.13660 -19.10909 -19.10896
 Alpha  occ. eigenvalues --  -19.08741 -14.37648 -14.37005 -14.32236 -14.31538
 Alpha  occ. eigenvalues --  -10.33672 -10.30287 -10.27709 -10.27285 -10.26701
 Alpha  occ. eigenvalues --  -10.26457 -10.25898 -10.24538 -10.23478 -10.23360
 Alpha  occ. eigenvalues --  -10.23330 -10.22291 -10.22286 -10.22005 -10.21837
 Alpha  occ. eigenvalues --  -10.21455 -10.21304 -10.21080 -10.20956 -10.20564
 Alpha  occ. eigenvalues --  -10.20254 -10.20057 -10.19861 -10.19768 -10.19546
 Alpha  occ. eigenvalues --  -10.19458 -10.19409 -10.19259 -10.19190 -10.19127
 Alpha  occ. eigenvalues --  -10.18276 -10.17502 -10.17285  -1.13513  -1.10766
 Alpha  occ. eigenvalues --   -1.02455  -1.00819  -1.00201  -1.00126  -0.97955
 Alpha  occ. eigenvalues --   -0.97368  -0.91877  -0.91315  -0.85919  -0.83055
 Alpha  occ. eigenvalues --   -0.81748  -0.80153  -0.80024  -0.79747  -0.78613
 Alpha  occ. eigenvalues --   -0.76747  -0.75705  -0.75567  -0.74276  -0.73413
 Alpha  occ. eigenvalues --   -0.70576  -0.70181  -0.70021  -0.69316  -0.67943
 Alpha  occ. eigenvalues --   -0.67179  -0.65572  -0.62919  -0.61598  -0.61185
 Alpha  occ. eigenvalues --   -0.60534  -0.59453  -0.58791  -0.57289  -0.56936
 Alpha  occ. eigenvalues --   -0.56035  -0.55374  -0.54925  -0.53582  -0.52741
 Alpha  occ. eigenvalues --   -0.51691  -0.51452  -0.50582  -0.49842  -0.49271
 Alpha  occ. eigenvalues --   -0.49200  -0.48947  -0.48744  -0.48166  -0.48064
 Alpha  occ. eigenvalues --   -0.47692  -0.47461  -0.46805  -0.46334  -0.46117
 Alpha  occ. eigenvalues --   -0.45706  -0.45050  -0.44712  -0.44169  -0.44023
 Alpha  occ. eigenvalues --   -0.43620  -0.43342  -0.42895  -0.42494  -0.42377
 Alpha  occ. eigenvalues --   -0.42103  -0.41792  -0.41633  -0.41428  -0.40750
 Alpha  occ. eigenvalues --   -0.40152  -0.40020  -0.39638  -0.39568  -0.39272
 Alpha  occ. eigenvalues --   -0.39240  -0.38780  -0.38560  -0.38135  -0.37983
 Alpha  occ. eigenvalues --   -0.37517  -0.37354  -0.36810  -0.36310  -0.35892
 Alpha  occ. eigenvalues --   -0.35738  -0.34671  -0.34662  -0.33640  -0.33449
 Alpha  occ. eigenvalues --   -0.32877  -0.32771  -0.32466  -0.32127  -0.31472
 Alpha  occ. eigenvalues --   -0.31382  -0.29862  -0.29112  -0.28576  -0.28442
 Alpha  occ. eigenvalues --   -0.27056  -0.26717  -0.25521  -0.24913  -0.24038
 Alpha  occ. eigenvalues --   -0.23953  -0.22965  -0.22825  -0.22373  -0.18247
 Alpha virt. eigenvalues --   -0.13042  -0.08002  -0.03938  -0.01539  -0.01281
 Alpha virt. eigenvalues --    0.00823   0.01659   0.02139   0.02242   0.02869
 Alpha virt. eigenvalues --    0.03126   0.03861   0.04103   0.04263   0.04542

 Mulliken charges:
               1
     1  O   -0.229933
     2  O   -0.063392
     3  O   -0.190106
     4  O   -0.216005
     5  O   -0.240428
     6  O   -0.316259
     7  N    0.032837
     8  N   -0.178709
     9  N   -0.126323
    10  N   -0.318913
    11  C   -0.043784
    12  C    0.278415
    13  C   -0.178521
    14  C   -0.113288
    15  C   -0.139334
    16  C   -0.046024
    17  C   -0.142733
    18  C    0.235840
    19  C   -0.087117
    20  C   -0.059042
    21  C    0.104041
    22  C    0.159133
    23  C   -0.117333
    24  C    0.074000
    25  C    0.119553
    26  C   -0.104944
    27  C   -0.122949
    28  C    0.120917
    29  C    0.222484
    30  C   -0.035390
    31  C   -0.073272
    32  C    0.001139
    33  C   -0.151259
    34  C    0.058135
    35  C    0.104915
    36  C   -0.085948
    37  C    0.148352
    38  C    0.002664
    39  C   -0.182772
    40  C    0.200711
    41  C    0.053840
    42  C   -0.008425
    43  C   -0.038824
    44  H    0.083644
    45  H   -0.079470
    46  H    0.024043
    47  H    0.099372
    48  H    0.135234
    49  H    0.028147
    50  H   -0.003021
    51  H   -0.026304
    52  H    0.007850
    53  H    0.023530
    54  H    0.034723
    55  H    0.003458
    56  H    0.029063
    57  H    0.037614
    58  H    0.001370
    59  H    0.045623
    60  H    0.233746
    61  H    0.015394
    62  H   -0.030707
    63  H    0.047334
    64  H    0.069135
    65  H    0.052694
    66  H    0.038759
    67  H    0.051989
    68  H    0.070346
    69  H    0.037716
    70  H    0.010092
    71  H    0.061893
    72  H    0.137981
    73  H   -0.002545
    74  H    0.058973
    75  H    0.067413
    76  H    0.053795
    77  H    0.238181
    78  H    0.048213
    79  H   -0.011231
 Sum of Mulliken charges =  -0.00000

 Dipole moment (field-independent basis, Debye):
    X=              5.0148    Y=              2.7691    Z=             -1.0852  Tot=              5.8305
 Quadrupole moment (field-independent basis, Debye-Ang):
   XX=           -233.5374   YY=           -230.7851   ZZ=           -271.8479
   XY=              8.2885   XZ=            -20.9463   YZ=            -10.2853

 Normal termination of Gaussian 16 at Wed Jul 24 20:40:41 2019.
