 Gaussian 16, Revision A.03,
 Gaussian 16:  ES64L-G16RevA.03 25-Dec-2016

 --------------------------
 # td=(NStates=1) B3LYP/SVP
 --------------------------

 --
 TD
 --
 Symbolic Z-matrix:
 Charge =  0 Multiplicity = 1

                         Standard orientation:
 ---------------------------------------------------------------------
 Center     Atomic      Atomic             Coordinates (Angstroms)
 Number     Number       Type             X           Y           Z
 ---------------------------------------------------------------------
      1          8           0        5.064020   -0.407548   -3.367602
      2          8           0       -3.033546   -2.977414    3.270332
      3          8           0       -3.374989   -0.789371    2.973565
      4          8           0       -1.539956    7.297309    1.407400
      5          8           0       -0.335264    7.116549   -0.546262
      6          8           0       -1.775905   -4.061931   -0.061419
      7          7           0        2.411431    1.009043    0.719753
      8          7           0        4.237914   -0.723134   -1.236548
      9          7           0       -1.802477    0.800643   -0.239713
     10          7           0       -2.661731   -1.858602   -0.451714
     11          6           0        4.768096   -1.307960    0.101337
     12          6           0        4.355222   -0.370999    1.280423
     13          6           0        3.005721   -0.087556    1.441968
     14          6           0        2.013195   -0.670976    2.172230
     15          6           0        0.777888   -0.018754    1.870379
     16          6           0        0.975748    0.979790    0.937651
     17          6           0        6.293855   -1.464220   -0.247836
     18          6           0       -0.526159   -0.344596    2.608829
     19          6           0        6.547020   -0.984514   -1.418500
     20          6           0        0.165680    2.017513    0.344317
     21          6           0       -1.060187    1.906844   -0.254661
     22          6           0        5.238872   -0.622924   -2.112652
     23          6           0       -1.938897    2.948461   -0.886311
     24          6           0        2.208608   -1.738918    3.106287
     25          6           0        7.260207   -1.963903    0.871818
     26          6           0       -3.074281    2.362073   -1.274695
     27          6           0       -1.200343   -1.675604    2.472406
     28          6           0       -3.001759    1.015403   -0.912145
     29          6           0       -1.434043    4.285411   -0.852650
     30          6           0        7.784819   -0.770569   -2.146929
     31          6           0       -1.468936    5.130125    0.396213
     32          6           0       -4.222374    3.111464   -1.960967
     33          6           0       -3.944322   -0.048188   -1.300588
     34          6           0       -2.624202   -1.715628    2.857255
     35          6           0       -3.693041   -1.443229   -0.990946
     36          6           0        9.040908   -0.739701   -1.675322
     37          6           0       -1.053573    6.536776    0.283927
     38          6           0       -4.609928   -2.595914   -1.483419
     39          6           0       -3.911725   -3.672752   -1.075293
     40          6           0       -2.740263   -3.321882   -0.454576
     41          6           0       -5.976348   -2.364765   -2.070507
     42          6           0       -4.280011   -5.076145   -1.279433
     43          6           0       -6.805308   -3.277742   -2.519514
     44          1           0        4.415600   -2.341022    0.321100
     45          1           0        5.274160    0.623641    1.092202
     46          1           0        4.746118   -0.757757    2.122642
     47          1           0        2.905878    1.591701    0.016449
     48          1           0        3.251232   -0.814881   -1.604255
     49          1           0       -0.478547    0.060124    3.611057
     50          1           0       -1.421222    0.415880    2.281986
     51          1           0        0.494621    2.954172    0.121918
     52          1           0        3.204019   -1.923538    3.551618
     53          1           0        1.659231   -1.594682    4.049428
     54          1           0        1.616472   -2.712473    2.712308
     55          1           0        6.789824   -2.790955    1.403112
     56          1           0        7.790942   -1.262088    1.609350
     57          1           0        8.112608   -2.551851    0.526963
     58          1           0       -1.196136   -2.241050    1.537178
     59          1           0       -0.792610   -2.429899    2.922384
     60          1           0       -1.549313   -0.166882   -0.008186
     61          1           0       -1.869681    4.971668   -1.587513
     62          1           0       -0.428829    4.474018   -1.445375
     63          1           0        7.618451   -0.704824   -3.369195
     64          1           0       -1.017269    4.767294    1.327921
     65          1           0       -2.477270    4.961534    0.865481
     66          1           0       -4.094119    4.266091   -2.002381
     67          1           0       -5.352803    2.915772   -1.542678
     68          1           0       -4.386313    2.801293   -3.098973
     69          1           0       -4.822165    0.303273   -2.185224
     70          1           0        9.256782   -0.591007   -0.457283
     71          1           0        9.802986   -0.661462   -2.188200
     72          1           0       -3.935980   -2.944626    3.396124
     73          1           0       -6.411448   -1.329514   -1.968876
     74          1           0       -5.095869   -5.362725   -0.460410
     75          1           0       -4.810299   -5.455901   -2.226118
     76          1           0       -3.663691   -5.731136   -0.925709
     77          1           0       -1.150352    8.143482    1.160864
     78          1           0       -7.854112   -2.743978   -2.841892
     79          1           0       -6.682553   -4.252608   -2.636935
 ---------------------------------------------------------------------

 SCF Done:  E(RB3LYP) =  -1947.75802243     A.U. after   17 cycles

 Excitation energies and oscillator strengths:

 Excited State   1:      Singlet-A      1.9705 eV  629.19 nm  f=0.4205  <S**2>=0.000
     155 ->156         0.70243
     155 <-156        -0.11379
 This state for optimization and/or second-order correction.
 Total Energy, E(TD-HF/TD-DFT) =  -1947.68560619
 Copying the excited state density for this state as the 1-particle RhoCI density.

 The electronic state is 1-A.
 Alpha  occ. eigenvalues --  -19.17908 -19.15730 -19.15018 -19.11874 -19.11610
 Alpha  occ. eigenvalues --  -19.08986 -14.37510 -14.37084 -14.36284 -14.29600
 Alpha  occ. eigenvalues --  -10.34095 -10.30656 -10.28211 -10.27500 -10.26237
 Alpha  occ. eigenvalues --  -10.25660 -10.24094 -10.23736 -10.23379 -10.23334
 Alpha  occ. eigenvalues --  -10.22802 -10.22604 -10.22365 -10.22346 -10.21971
 Alpha  occ. eigenvalues --  -10.21909 -10.21810 -10.21805 -10.21469 -10.21318
 Alpha  occ. eigenvalues --  -10.21317 -10.21007 -10.20979 -10.20354 -10.20332
 Alpha  occ. eigenvalues --  -10.20223 -10.20203 -10.19701 -10.19534 -10.19384
 Alpha  occ. eigenvalues --  -10.18982 -10.18830 -10.17580  -1.08408  -1.08351
 Alpha  occ. eigenvalues --   -1.00392  -0.99955  -0.99844  -0.99673  -0.99565
 Alpha  occ. eigenvalues --   -0.95646  -0.94185  -0.91689  -0.84639  -0.82638
 Alpha  occ. eigenvalues --   -0.82485  -0.81824  -0.81626  -0.80762  -0.79078
 Alpha  occ. eigenvalues --   -0.78162  -0.77916  -0.76084  -0.74627  -0.72639
 Alpha  occ. eigenvalues --   -0.71783  -0.71604  -0.70477  -0.69425  -0.69118
 Alpha  occ. eigenvalues --   -0.67676  -0.66962  -0.64586  -0.61710  -0.61135
 Alpha  occ. eigenvalues --   -0.59919  -0.59032  -0.58936  -0.58359  -0.57920
 Alpha  occ. eigenvalues --   -0.57433  -0.56312  -0.55934  -0.54627  -0.53748
 Alpha  occ. eigenvalues --   -0.53136  -0.51940  -0.51542  -0.50632  -0.50221
 Alpha  occ. eigenvalues --   -0.49732  -0.48961  -0.48788  -0.47877  -0.47574
 Alpha  occ. eigenvalues --   -0.47372  -0.46868  -0.46758  -0.46365  -0.45978
 Alpha  occ. eigenvalues --   -0.45446  -0.45232  -0.44580  -0.44251  -0.43962
 Alpha  occ. eigenvalues --   -0.43679  -0.43524  -0.43096  -0.42955  -0.42445
 Alpha  occ. eigenvalues --   -0.42334  -0.42006  -0.41713  -0.41362  -0.41165
 Alpha  occ. eigenvalues --   -0.40874  -0.40731  -0.40620  -0.40264  -0.39614
 Alpha  occ. eigenvalues --   -0.39115  -0.39080  -0.38746  -0.38611  -0.37965
 Alpha  occ. eigenvalues --   -0.37854  -0.37636  -0.37581  -0.37424  -0.37024
 Alpha  occ. eigenvalues --   -0.36660  -0.35870  -0.35554  -0.34472  -0.34056
 Alpha  occ. eigenvalues --   -0.33206  -0.33014  -0.32504  -0.32233  -0.31906
 Alpha  occ. eigenvalues --   -0.31436  -0.31175  -0.30041  -0.29762  -0.28072
 Alpha  occ. eigenvalues --   -0.27231  -0.27160  -0.26069  -0.25358  -0.25184
 Alpha  occ. eigenvalues --   -0.24584  -0.24423  -0.24181  -0.23408  -0.19434
 Alpha virt. eigenvalues --   -0.11671  -0.07515  -0.05548  -0.02811  -0.00854
 Alpha virt. eigenvalues --   -0.00051   0.00977   0.01886   0.02491   0.02591
 Alpha virt. eigenvalues --    0.03935   0.03962   0.04342   0.04724   0.05060

 Mulliken charges:
               1
     1  O   -0.301192
     2  O   -0.182328
     3  O   -0.214927
     4  O   -0.234314
     5  O   -0.242201
     6  O   -0.248305
     7  N   -0.182896
     8  N   -0.189075
     9  N   -0.043574
    10  N   -0.220353
    11  C    0.083826
    12  C    0.116747
    13  C    0.019845
    14  C   -0.080488
    15  C   -0.039069
    16  C    0.122034
    17  C   -0.169418
    18  C    0.010934
    19  C    0.001307
    20  C   -0.001969
    21  C   -0.012095
    22  C    0.146735
    23  C    0.014458
    24  C    0.053338
    25  C    0.057785
    26  C   -0.056628
    27  C    0.178972
    28  C    0.078905
    29  C    0.005978
    30  C   -0.052313
    31  C    0.035337
    32  C   -0.028226
    33  C   -0.148211
    34  C    0.069910
    35  C    0.020807
    36  C    0.037740
    37  C    0.167470
    38  C    0.040291
    39  C   -0.148825
    40  C    0.166039
    41  C   -0.007209
    42  C    0.146837
    43  C    0.007407
    44  H    0.032286
    45  H    0.024013
    46  H   -0.044261
    47  H    0.129662
    48  H    0.158089
    49  H    0.009879
    50  H    0.031579
    51  H   -0.062628
    52  H    0.013053
    53  H    0.006772
    54  H    0.049594
    55  H    0.002520
    56  H    0.055743
    57  H    0.016062
    58  H    0.034442
    59  H   -0.069674
    60  H    0.156638
    61  H   -0.009358
    62  H    0.042437
    63  H    0.061338
    64  H    0.040175
    65  H    0.037560
    66  H    0.042586
    67  H    0.051029
    68  H    0.046826
    69  H    0.048457
    70  H    0.034257
    71  H   -0.058352
    72  H    0.141414
    73  H    0.019207
    74  H    0.010328
    75  H    0.042277
    76  H   -0.051870
    77  H    0.169658
    78  H    0.042769
    79  H   -0.033597
 Sum of Mulliken charges =  -0.00000

 Dipole moment (field-independent basis, Debye):
    X=             -0.9958    Y=              1.0461    Z=              2.7663  Tot=              3.1206
 Quadrupole moment (field-independent basis, Debye-Ang):
   XX=           -215.4144   YY=           -252.2388   ZZ=           -266.0174
   XY=             -5.8932   XZ=             39.2461   YZ=             -1.2031

 Normal termination of Gaussian 16 at Tue Sep 24 00:44:21 2019.
