 Gaussian 16, Revision A.03,
 Gaussian 16:  ES64L-G16RevA.03 25-Dec-2016

 --------------------------
 # td=(NStates=1) B3LYP/SVP
 --------------------------

 --
 TD
 --
 Symbolic Z-matrix:
 Charge =  0 Multiplicity = 1

                         Standard orientation:
 ---------------------------------------------------------------------
 Center     Atomic      Atomic             Coordinates (Angstroms)
 Number     Number       Type             X           Y           Z
 ---------------------------------------------------------------------
      1          8           0       -3.235742   -1.819259   -2.619771
      2          8           0        2.867325    3.719371    2.715443
      3          8           0        3.604517    2.146665    4.098221
      4          8           0        7.618689   -1.764898   -0.409739
      5          8           0        6.581564   -3.289241   -1.664347
      6          8           0       -2.517927    1.804256    1.278110
      7          7           0       -0.251926   -2.185188    1.264956
      8          7           0       -2.575729   -1.502737   -0.507580
      9          7           0        1.196374   -0.032753   -0.697441
     10          7           0       -0.977686    1.349758   -0.388285
     11          6           0       -3.303235   -1.298086    0.772540
     12          6           0       -2.576452   -2.073547    1.989191
     13          6           0       -1.177795   -1.740125    2.089277
     14          6           0       -0.511289   -0.813405    2.938864
     15          6           0        0.829900   -0.828812    2.526627
     16          6           0        1.069785   -1.630111    1.492871
     17          6           0       -4.783349   -1.911480    0.509774
     18          6           0        1.808888    0.173228    3.080547
     19          6           0       -4.724403   -2.238816   -0.804387
     20          6           0        2.185549   -1.810183    0.548988
     21          6           0        2.144678   -1.020424   -0.485991
     22          6           0       -3.383230   -1.836799   -1.473601
     23          6           0        3.000053   -0.923333   -1.727841
     24          6           0       -1.165555   -0.060227    3.983093
     25          6           0       -5.786327   -1.890553    1.634546
     26          6           0        2.581570    0.173414   -2.477398
     27          6           0        1.824797    1.600356    2.601976
     28          6           0        1.398748    0.665864   -1.847661
     29          6           0        4.228536   -1.732756   -1.991547
     30          6           0       -5.861522   -2.662621   -1.707461
     31          6           0        5.404846   -1.208566   -1.019377
     32          6           0        3.059989    0.602814   -3.783426
     33          6           0        0.561371    1.686478   -2.271070
     34          6           0        2.832596    2.489315    3.245191
     35          6           0       -0.646790    2.066363   -1.475295
     36          6           0       -7.012711   -3.338225   -1.334019
     37          6           0        6.576520   -2.240421   -1.101735
     38          6           0       -1.427162    3.284464   -1.704281
     39          6           0       -2.347510    3.236416   -0.665744
     40          6           0       -2.068252    2.013439    0.173594
     41          6           0       -1.180160    4.226098   -2.746939
     42          6           0       -3.473402    4.197729   -0.223363
     43          6           0       -2.042318    5.317406   -3.091966
     44          1           0       -3.185894   -0.142897    0.953936
     45          1           0       -2.431196   -3.044010    1.571539
     46          1           0       -3.295714   -2.029178    2.979499
     47          1           0       -0.271895   -2.969609    0.588722
     48          1           0       -1.919808   -0.668301   -0.899577
     49          1           0        1.739241    0.233903    4.300280
     50          1           0        2.881024   -0.075763    2.875354
     51          1           0        2.864399   -2.433111    0.731922
     52          1           0       -1.699103   -0.762414    4.626675
     53          1           0       -0.256418    0.591506    4.377257
     54          1           0       -2.073605    0.638297    3.474787
     55          1           0       -5.631076   -1.055322    2.228381
     56          1           0       -5.765412   -2.807142    2.028416
     57          1           0       -6.490460   -1.797089    1.003632
     58          1           0        1.989337    1.429788    1.382478
     59          1           0        0.649320    2.106540    2.686171
     60          1           0        0.467069    0.377063   -0.040648
     61          1           0        4.605533   -2.008110   -3.038333
     62          1           0        4.118917   -2.735440   -1.489719
     63          1           0       -5.639133   -2.430675   -2.727194
     64          1           0        5.254866   -1.210361    0.008464
     65          1           0        5.588902   -0.251960   -1.246042
     66          1           0        4.109119    0.188306   -4.056432
     67          1           0        3.218912    1.585897   -3.497337
     68          1           0        2.480738    0.330673   -4.662762
     69          1           0        0.589867    2.333678   -3.053677
     70          1           0       -7.038651   -3.662818   -0.263704
     71          1           0       -7.932793   -3.718288   -1.913814
     72          1           0        3.603951    4.266047    3.073573
     73          1           0       -0.241378    4.272361   -3.467884
     74          1           0       -4.486557    4.166462   -0.854631
     75          1           0       -3.844714    3.861955    0.628547
     76          1           0       -3.141432    5.158279   -0.044476
     77          1           0        8.425745   -2.281483   -0.670227
     78          1           0       -1.695151    6.191385   -3.874260
     79          1           0       -2.849395    5.723750   -2.527677
 ---------------------------------------------------------------------

 SCF Done:  E(RB3LYP) =  -1947.76514041     A.U. after   21 cycles

 Excitation energies and oscillator strengths:

 Excited State   1:      Singlet-A      0.8875 eV 1397.08 nm  f=0.0022  <S**2>=0.000
     155 ->156         0.70487
 This state for optimization and/or second-order correction.
 Total Energy, E(TD-HF/TD-DFT) =  -1947.73252715
 Copying the excited state density for this state as the 1-particle RhoCI density.

 The electronic state is 1-A.
 Alpha  occ. eigenvalues --  -19.19450 -19.17604 -19.14338 -19.13211 -19.11921
 Alpha  occ. eigenvalues --  -19.08273 -14.36620 -14.35852 -14.33212 -14.31351
 Alpha  occ. eigenvalues --  -10.33361 -10.31493 -10.28795 -10.26148 -10.25850
 Alpha  occ. eigenvalues --  -10.25676 -10.25040 -10.23822 -10.22920 -10.22854
 Alpha  occ. eigenvalues --  -10.22702 -10.22512 -10.22489 -10.22379 -10.21826
 Alpha  occ. eigenvalues --  -10.21693 -10.21284 -10.20763 -10.20598 -10.20409
 Alpha  occ. eigenvalues --  -10.20160 -10.19942 -10.19648 -10.19433 -10.19299
 Alpha  occ. eigenvalues --  -10.19161 -10.19048 -10.19021 -10.18271 -10.17990
 Alpha  occ. eigenvalues --  -10.17031 -10.16102 -10.14797  -1.11530  -1.09417
 Alpha  occ. eigenvalues --   -1.04636  -1.04268  -1.02679  -1.00189  -0.99435
 Alpha  occ. eigenvalues --   -0.96261  -0.94419  -0.92352  -0.83745  -0.83340
 Alpha  occ. eigenvalues --   -0.81650  -0.80591  -0.80097  -0.79086  -0.78071
 Alpha  occ. eigenvalues --   -0.76551  -0.75636  -0.75271  -0.74676  -0.73354
 Alpha  occ. eigenvalues --   -0.71366  -0.70525  -0.69679  -0.69352  -0.67144
 Alpha  occ. eigenvalues --   -0.66165  -0.65717  -0.63159  -0.61813  -0.61511
 Alpha  occ. eigenvalues --   -0.60357  -0.58735  -0.58201  -0.57539  -0.56577
 Alpha  occ. eigenvalues --   -0.56065  -0.54921  -0.54337  -0.53723  -0.52215
 Alpha  occ. eigenvalues --   -0.51989  -0.51415  -0.50844  -0.50376  -0.49677
 Alpha  occ. eigenvalues --   -0.49205  -0.48904  -0.48803  -0.48343  -0.47961
 Alpha  occ. eigenvalues --   -0.47476  -0.47174  -0.46952  -0.46576  -0.45947
 Alpha  occ. eigenvalues --   -0.45659  -0.45560  -0.45074  -0.44983  -0.44387
 Alpha  occ. eigenvalues --   -0.44321  -0.43581  -0.43508  -0.43108  -0.42928
 Alpha  occ. eigenvalues --   -0.42372  -0.42198  -0.41727  -0.41217  -0.40932
 Alpha  occ. eigenvalues --   -0.40631  -0.40420  -0.39859  -0.39649  -0.39272
 Alpha  occ. eigenvalues --   -0.39214  -0.38979  -0.38620  -0.38043  -0.37793
 Alpha  occ. eigenvalues --   -0.37452  -0.36851  -0.36704  -0.36567  -0.36031
 Alpha  occ. eigenvalues --   -0.35786  -0.35622  -0.35458  -0.35234  -0.33963
 Alpha  occ. eigenvalues --   -0.33788  -0.32278  -0.32158  -0.32006  -0.31006
 Alpha  occ. eigenvalues --   -0.30658  -0.30416  -0.30007  -0.29691  -0.29529
 Alpha  occ. eigenvalues --   -0.27660  -0.26636  -0.26147  -0.25407  -0.24121
 Alpha  occ. eigenvalues --   -0.23896  -0.23024  -0.22503  -0.22277  -0.18278
 Alpha virt. eigenvalues --   -0.12772  -0.07887  -0.03313  -0.03059  -0.00221
 Alpha virt. eigenvalues --   -0.00038   0.02713   0.02939   0.03307   0.03519
 Alpha virt. eigenvalues --    0.04333   0.04384   0.04552   0.04940   0.05324

 Mulliken charges:
               1
     1  O   -0.169218
     2  O   -0.186629
     3  O   -0.213343
     4  O   -0.188813
     5  O   -0.198068
     6  O   -0.191007
     7  N   -0.080189
     8  N   -0.193641
     9  N   -0.111637
    10  N   -0.306947
    11  C   -0.042335
    12  C    0.202389
    13  C   -0.080510
    14  C   -0.115544
    15  C   -0.024622
    16  C   -0.035468
    17  C   -0.192204
    18  C    0.001327
    19  C   -0.147948
    20  C   -0.068272
    21  C    0.229053
    22  C    0.080302
    23  C   -0.045562
    24  C    0.017712
    25  C    0.315339
    26  C   -0.129720
    27  C   -0.130535
    28  C    0.187678
    29  C    0.040706
    30  C    0.009810
    31  C    0.035336
    32  C    0.114133
    33  C   -0.042543
    34  C    0.152221
    35  C   -0.004066
    36  C   -0.070916
    37  C    0.128216
    38  C    0.134211
    39  C   -0.217795
    40  C    0.183873
    41  C   -0.100868
    42  C    0.169381
    43  C   -0.076605
    44  H    0.077784
    45  H   -0.044695
    46  H    0.033550
    47  H    0.116801
    48  H    0.173966
    49  H    0.033204
    50  H   -0.008267
    51  H   -0.103079
    52  H    0.012384
    53  H    0.024914
    54  H    0.049823
    55  H    0.009629
    56  H    0.005127
    57  H   -0.037641
    58  H    0.054569
    59  H    0.075968
    60  H    0.214333
    61  H    0.053747
    62  H    0.020489
    63  H   -0.000187
    64  H    0.024239
    65  H   -0.003884
    66  H    0.014079
    67  H    0.012088
    68  H    0.054296
    69  H   -0.085890
    70  H    0.010684
    71  H    0.045447
    72  H    0.188752
    73  H    0.051963
    74  H    0.043805
    75  H   -0.037474
    76  H    0.014877
    77  H    0.192770
    78  H    0.049592
    79  H    0.025554
 Sum of Mulliken charges =  -0.00000

 Dipole moment (field-independent basis, Debye):
    X=              3.7832    Y=              3.7408    Z=             -2.3747  Tot=              5.8263
 Quadrupole moment (field-independent basis, Debye-Ang):
   XX=           -226.4486   YY=           -236.8813   ZZ=           -268.3633
   XY=             -1.6787   XZ=            -25.3125   YZ=            -17.9230

 Normal termination of Gaussian 16 at Fri Jul 26 07:10:13 2019.
