 Gaussian 16, Revision A.03,
 Gaussian 16:  ES64L-G16RevA.03 25-Dec-2016

 --------------------------
 # td=(NStates=1) B3LYP/SVP
 --------------------------

 --
 TD
 --
 Symbolic Z-matrix:
 Charge =  0 Multiplicity = 1

                         Standard orientation:
 ---------------------------------------------------------------------
 Center     Atomic      Atomic             Coordinates (Angstroms)
 Number     Number       Type             X           Y           Z
 ---------------------------------------------------------------------
      1          8           0       -3.181910   -1.142467   -2.914409
      2          8           0        3.153937    2.919972    3.196415
      3          8           0        3.795164    1.144326    4.443297
      4          8           0        7.589773   -1.468377   -0.647373
      5          8           0        6.625330   -2.877611   -2.156565
      6          8           0       -2.620698    1.568452    1.474867
      7          7           0       -0.373540   -2.527741    0.815660
      8          7           0       -2.688653   -1.130369   -0.646142
      9          7           0        1.106883    0.145955   -0.774700
     10          7           0       -1.023063    1.465249   -0.146339
     11          6           0       -3.442450   -1.336277    0.603973
     12          6           0       -2.759785   -2.378178    1.546793
     13          6           0       -1.340148   -2.115141    1.609286
     14          6           0       -0.717099   -1.464533    2.782608
     15          6           0        0.720660   -1.335198    2.423231
     16          6           0        0.916899   -1.922183    1.115211
     17          6           0       -4.761786   -1.886865    0.138602
     18          6           0        1.794936   -0.595765    3.132960
     19          6           0       -4.818157   -1.885500   -1.206863
     20          6           0        1.984213   -1.877095    0.161634
     21          6           0        2.087266   -0.836666   -0.751837
     22          6           0       -3.525329   -1.393829   -1.751295
     23          6           0        2.955808   -0.658188   -1.802117
     24          6           0       -1.296732   -0.672655    3.924862
     25          6           0       -5.797007   -2.270334    1.071400
     26          6           0        2.617702    0.510692   -2.467332
     27          6           0        1.947899    0.992477    2.779770
     28          6           0        1.458162    1.083291   -1.737117
     29          6           0        4.284776   -1.430163   -2.090317
     30          6           0       -5.858755   -2.319780   -2.103349
     31          6           0        5.445880   -1.163626   -1.247150
     32          6           0        3.304118    1.068209   -3.663093
     33          6           0        0.572623    2.135513   -1.862749
     34          6           0        3.073567    1.649705    3.577364
     35          6           0       -0.470470    2.383277   -1.017668
     36          6           0       -6.992000   -2.974578   -1.812257
     37          6           0        6.669071   -1.985638   -1.443597
     38          6           0       -1.302269    3.607165   -1.032419
     39          6           0       -2.228987    3.424982    0.009075
     40          6           0       -2.027245    2.084790    0.609431
     41          6           0       -1.185123    4.785012   -1.971934
     42          6           0       -3.392331    4.225973    0.524575
     43          6           0       -1.962911    5.872920   -2.080720
     44          1           0       -3.652493   -0.385907    1.093316
     45          1           0       -2.890417   -3.419238    1.297183
     46          1           0       -3.317668   -2.373884    2.489328
     47          1           0       -0.547986   -2.820699   -0.044694
     48          1           0       -2.028652   -0.256274   -0.643091
     49          1           0        1.374823   -0.554498    4.177195
     50          1           0        2.698339   -1.328373    3.019558
     51          1           0        2.635820   -2.738362    0.123584
     52          1           0       -1.812041   -1.388139    4.556184
     53          1           0       -0.639558   -0.092883    4.545861
     54          1           0       -1.961990    0.052186    3.365496
     55          1           0       -5.594813   -1.875056    2.088611
     56          1           0       -5.831347   -3.374919    1.223813
     57          1           0       -6.923641   -2.025046    0.725320
     58          1           0        2.438882    1.196843    1.756731
     59          1           0        0.857682    1.538221    2.779964
     60          1           0        0.347884    0.285448   -0.126347
     61          1           0        4.678321   -1.606801   -3.211971
     62          1           0        4.043408   -2.470009   -2.041115
     63          1           0       -5.808592   -1.600371   -3.144337
     64          1           0        5.071789   -1.128126   -0.127418
     65          1           0        5.625289   -0.127351   -1.519979
     66          1           0        4.185689    0.349240   -4.184123
     67          1           0        4.198487    1.872034   -3.403665
     68          1           0        2.497438    1.455859   -4.344012
     69          1           0        0.932789    2.933484   -2.520876
     70          1           0       -7.124594   -3.752746   -0.895764
     71          1           0       -7.725068   -3.020654   -2.657163
     72          1           0        4.071192    3.196622    3.752332
     73          1           0       -0.274032    4.907589   -2.504909
     74          1           0       -4.140987    4.443359   -0.342434
     75          1           0       -3.829826    3.673314    1.360304
     76          1           0       -3.025025    5.393985    0.645517
     77          1           0        8.221935   -2.208705   -0.563483
     78          1           0       -1.711973    6.540732   -2.870562
     79          1           0       -2.813194    5.952231   -1.577343
 ---------------------------------------------------------------------

 SCF Done:  E(RB3LYP) =  -1947.83906082     A.U. after   19 cycles

 Excitation energies and oscillator strengths:

 Excited State   1:      Singlet-A      0.8678 eV 1428.71 nm  f=0.0079  <S**2>=0.000
     155 ->156         0.70215
 This state for optimization and/or second-order correction.
 Total Energy, E(TD-HF/TD-DFT) =  -1947.80716951
 Copying the excited state density for this state as the 1-particle RhoCI density.

 The electronic state is 1-A.
 Alpha  occ. eigenvalues --  -19.20644 -19.19267 -19.15036 -19.12601 -19.12374
 Alpha  occ. eigenvalues --  -19.07879 -14.36760 -14.36116 -14.32034 -14.29850
 Alpha  occ. eigenvalues --  -10.33071 -10.31851 -10.27553 -10.26779 -10.26229
 Alpha  occ. eigenvalues --  -10.25014 -10.24774 -10.23772 -10.23308 -10.22576
 Alpha  occ. eigenvalues --  -10.22545 -10.22229 -10.21760 -10.21749 -10.21438
 Alpha  occ. eigenvalues --  -10.21233 -10.20941 -10.20838 -10.20831 -10.20714
 Alpha  occ. eigenvalues --  -10.20561 -10.20314 -10.20252 -10.19989 -10.19942
 Alpha  occ. eigenvalues --  -10.19857 -10.19467 -10.19269 -10.18947 -10.18038
 Alpha  occ. eigenvalues --  -10.17817 -10.17379 -10.17251  -1.13958  -1.09114
 Alpha  occ. eigenvalues --   -1.06591  -1.06181  -0.99688  -0.98966  -0.98965
 Alpha  occ. eigenvalues --   -0.96522  -0.92555  -0.90543  -0.84112  -0.82390
 Alpha  occ. eigenvalues --   -0.80577  -0.80352  -0.79681  -0.79163  -0.78505
 Alpha  occ. eigenvalues --   -0.76920  -0.75857  -0.74984  -0.74218  -0.72946
 Alpha  occ. eigenvalues --   -0.70526  -0.70001  -0.69680  -0.69372  -0.67451
 Alpha  occ. eigenvalues --   -0.66782  -0.65566  -0.63312  -0.61245  -0.60730
 Alpha  occ. eigenvalues --   -0.59410  -0.58378  -0.57599  -0.57169  -0.56594
 Alpha  occ. eigenvalues --   -0.55877  -0.55208  -0.54566  -0.53612  -0.53052
 Alpha  occ. eigenvalues --   -0.51898  -0.51662  -0.51599  -0.50750  -0.50106
 Alpha  occ. eigenvalues --   -0.49698  -0.48746  -0.48385  -0.48144  -0.48013
 Alpha  occ. eigenvalues --   -0.47625  -0.46884  -0.46670  -0.46143  -0.45765
 Alpha  occ. eigenvalues --   -0.45427  -0.45127  -0.44563  -0.44345  -0.44049
 Alpha  occ. eigenvalues --   -0.43856  -0.43539  -0.43152  -0.42548  -0.42240
 Alpha  occ. eigenvalues --   -0.41876  -0.41170  -0.41051  -0.40861  -0.40720
 Alpha  occ. eigenvalues --   -0.40262  -0.40167  -0.40003  -0.39815  -0.39278
 Alpha  occ. eigenvalues --   -0.39164  -0.38781  -0.38660  -0.38252  -0.38035
 Alpha  occ. eigenvalues --   -0.37823  -0.37408  -0.37193  -0.36792  -0.36498
 Alpha  occ. eigenvalues --   -0.36148  -0.36093  -0.35907  -0.35776  -0.34523
 Alpha  occ. eigenvalues --   -0.33588  -0.32928  -0.32175  -0.31799  -0.31414
 Alpha  occ. eigenvalues --   -0.30529  -0.30215  -0.29826  -0.29208  -0.28768
 Alpha  occ. eigenvalues --   -0.27780  -0.27051  -0.25740  -0.24227  -0.23308
 Alpha  occ. eigenvalues --   -0.23213  -0.22687  -0.22256  -0.21926  -0.18442
 Alpha virt. eigenvalues --   -0.12734  -0.07755  -0.03931  -0.01756   0.00002
 Alpha virt. eigenvalues --    0.00176   0.01129   0.01673   0.01970   0.02150
 Alpha virt. eigenvalues --    0.02999   0.03576   0.04210   0.04885   0.05199

 Mulliken charges:
               1
     1  O   -0.250176
     2  O   -0.225205
     3  O   -0.257149
     4  O   -0.148683
     5  O   -0.137444
     6  O   -0.151610
     7  N    0.034949
     8  N   -0.272449
     9  N   -0.092465
    10  N   -0.375126
    11  C    0.081765
    12  C    0.221045
    13  C   -0.113357
    14  C   -0.149425
    15  C   -0.127392
    16  C   -0.017872
    17  C   -0.169447
    18  C    0.090742
    19  C   -0.053837
    20  C   -0.106554
    21  C    0.124964
    22  C    0.156084
    23  C   -0.027069
    24  C    0.082780
    25  C    0.038960
    26  C   -0.070060
    27  C   -0.087461
    28  C    0.121834
    29  C    0.054439
    30  C   -0.038718
    31  C   -0.033774
    32  C   -0.028286
    33  C   -0.113654
    34  C    0.161660
    35  C    0.138714
    36  C   -0.092281
    37  C    0.117151
    38  C    0.069898
    39  C   -0.222790
    40  C    0.168361
    41  C   -0.022283
    42  C    0.028180
    43  C    0.055514
    44  H    0.047649
    45  H   -0.024880
    46  H   -0.017227
    47  H    0.060095
    48  H    0.179045
    49  H    0.014403
    50  H    0.036348
    51  H    0.007085
    52  H    0.007010
    53  H   -0.001463
    54  H    0.054135
    55  H    0.017466
    56  H    0.031822
    57  H    0.058906
    58  H    0.046064
    59  H    0.093629
    60  H    0.170023
    61  H    0.028029
    62  H   -0.015794
    63  H    0.050808
    64  H    0.050742
    65  H    0.015667
    66  H    0.049503
    67  H    0.051083
    68  H    0.062133
    69  H   -0.017266
    70  H    0.048476
    71  H    0.032779
    72  H    0.223963
    73  H   -0.019618
    74  H    0.051656
    75  H    0.045583
    76  H    0.046550
    77  H    0.175180
    78  H    0.020318
    79  H   -0.042377
 Sum of Mulliken charges =  -0.00000

 Dipole moment (field-independent basis, Debye):
    X=              4.1205    Y=              2.2194    Z=             -0.2721  Tot=              4.6881
 Quadrupole moment (field-independent basis, Debye-Ang):
   XX=           -221.5684   YY=           -235.0106   ZZ=           -273.6114
   XY=              2.4697   XZ=            -22.4019   YZ=            -13.8344

 Normal termination of Gaussian 16 at Sat Jul 27 19:58:16 2019.
