 Gaussian 16, Revision A.03,
 Gaussian 16:  ES64L-G16RevA.03 25-Dec-2016

 --------------------------
 # td=(NStates=1) B3LYP/SVP
 --------------------------

 --
 TD
 --
 Symbolic Z-matrix:
 Charge =  0 Multiplicity = 1

                         Standard orientation:
 ---------------------------------------------------------------------
 Center     Atomic      Atomic             Coordinates (Angstroms)
 Number     Number       Type             X           Y           Z
 ---------------------------------------------------------------------
      1          8           0       -3.157353   -0.829092   -2.951339
      2          8           0        3.176747    2.516717    3.441152
      3          8           0        4.103137    0.623644    4.377500
      4          8           0        7.825965   -1.627133   -1.006832
      5          8           0        6.510647   -2.652267   -2.518714
      6          8           0       -2.663580    1.301627    1.602487
      7          7           0       -0.363311   -2.542040    0.515442
      8          7           0       -2.787350   -0.985271   -0.689478
      9          7           0        1.115256    0.207751   -0.689844
     10          7           0       -1.038009    1.482255    0.018375
     11          6           0       -3.451648   -1.387051    0.540011
     12          6           0       -2.735350   -2.559110    1.313906
     13          6           0       -1.298746   -2.226538    1.443826
     14          6           0       -0.613505   -1.630467    2.566263
     15          6           0        0.712930   -1.428329    2.271133
     16          6           0        0.915155   -2.029610    0.865352
     17          6           0       -4.787265   -1.886944   -0.021084
     18          6           0        1.908026   -0.857876    3.053150
     19          6           0       -4.823309   -1.837760   -1.358106
     20          6           0        2.018693   -1.934712   -0.063406
     21          6           0        2.083328   -0.795647   -0.831629
     22          6           0       -3.553669   -1.166986   -1.775682
     23          6           0        2.954260   -0.318486   -1.808881
     24          6           0       -1.241517   -1.144047    3.853997
     25          6           0       -5.815632   -2.365389    0.981014
     26          6           0        2.563283    0.924361   -2.341250
     27          6           0        2.047556    0.624672    2.893792
     28          6           0        1.357755    1.219606   -1.610047
     29          6           0        4.306973   -1.089442   -2.149474
     30          6           0       -5.879978   -2.207006   -2.335969
     31          6           0        5.558262   -0.780415   -1.323407
     32          6           0        3.279122    1.791103   -3.293619
     33          6           0        0.441771    2.322011   -1.716089
     34          6           0        3.231085    1.178544    3.641693
     35          6           0       -0.605991    2.452400   -0.879668
     36          6           0       -6.951926   -2.954370   -1.994795
     37          6           0        6.671072   -1.744638   -1.587076
     38          6           0       -1.475382    3.640091   -0.745706
     39          6           0       -2.425425    3.303986    0.206738
     40          6           0       -2.190629    2.005386    0.729609
     41          6           0       -1.357058    4.858753   -1.512888
     42          6           0       -3.568466    4.090988    0.860545
     43          6           0       -2.037388    6.052233   -1.391755
     44          1           0       -3.316251   -0.447372    1.218766
     45          1           0       -2.655936   -3.553462    0.720062
     46          1           0       -3.494058   -2.844995    2.430157
     47          1           0       -0.525499   -2.846120   -0.471035
     48          1           0       -2.039639   -0.214758   -0.870034
     49          1           0        1.833485   -1.115541    4.124311
     50          1           0        2.905183   -1.011283    2.582271
     51          1           0        2.798056   -2.685874   -0.074899
     52          1           0       -1.889605   -1.927420    4.500746
     53          1           0       -0.299511   -0.673879    4.383630
     54          1           0       -1.817514   -0.119466    3.492419
     55          1           0       -5.450008   -1.867187    1.837707
     56          1           0       -5.806112   -3.506374    1.078403
     57          1           0       -6.702161   -1.921071    0.531368
     58          1           0        2.266250    0.649385    1.881082
     59          1           0        1.186519    1.208553    3.127391
     60          1           0        0.497630    0.266840    0.057912
     61          1           0        4.588237   -0.756689   -3.288293
     62          1           0        4.058461   -2.378770   -1.889883
     63          1           0       -5.661911   -1.958080   -3.452367
     64          1           0        5.324591   -0.727836   -0.213081
     65          1           0        5.765710    0.280520   -1.637935
     66          1           0        4.154765    1.248588   -3.741194
     67          1           0        3.511522    2.785487   -2.964721
     68          1           0        2.553912    2.028285   -4.164400
     69          1           0        0.786519    3.032951   -2.477223
     70          1           0       -7.040410   -3.465650   -1.019261
     71          1           0       -7.548092   -3.051818   -2.884875
     72          1           0        4.144225    2.916383    3.748766
     73          1           0       -0.593330    4.973506   -2.047105
     74          1           0       -4.281517    4.227237    0.025049
     75          1           0       -4.177423    3.524115    1.651552
     76          1           0       -3.252084    5.004162    1.341807
     77          1           0        8.348220   -2.444764   -1.356580
     78          1           0       -1.647087    6.880498   -2.067515
     79          1           0       -2.794041    5.969191   -0.631481
 ---------------------------------------------------------------------

 SCF Done:  E(RB3LYP) =  -1947.79935653     A.U. after   22 cycles

 Excitation energies and oscillator strengths:

 Excited State   1:      Singlet-A      0.6826 eV 1816.37 nm  f=0.0010  <S**2>=0.000
     155 ->156         0.70228
 This state for optimization and/or second-order correction.
 Total Energy, E(TD-HF/TD-DFT) =  -1947.77427170
 Copying the excited state density for this state as the 1-particle RhoCI density.

 The electronic state is 1-A.
 Alpha  occ. eigenvalues --  -19.21808 -19.19231 -19.13043 -19.12729 -19.12484
 Alpha  occ. eigenvalues --  -19.06223 -14.38260 -14.37010 -14.32321 -14.29401
 Alpha  occ. eigenvalues --  -10.34141 -10.32445 -10.27549 -10.27022 -10.25292
 Alpha  occ. eigenvalues --  -10.25167 -10.25012 -10.24122 -10.23823 -10.23524
 Alpha  occ. eigenvalues --  -10.23359 -10.23183 -10.22778 -10.22397 -10.22347
 Alpha  occ. eigenvalues --  -10.21975 -10.21521 -10.21277 -10.21047 -10.20921
 Alpha  occ. eigenvalues --  -10.20856 -10.20134 -10.20055 -10.19802 -10.19777
 Alpha  occ. eigenvalues --  -10.19455 -10.19397 -10.19208 -10.19043 -10.18819
 Alpha  occ. eigenvalues --  -10.17997 -10.17924 -10.17351  -1.12357  -1.07732
 Alpha  occ. eigenvalues --   -1.03426  -0.99768  -0.98015  -0.97399  -0.97329
 Alpha  occ. eigenvalues --   -0.95928  -0.91793  -0.89913  -0.83690  -0.82954
 Alpha  occ. eigenvalues --   -0.81564  -0.80986  -0.80164  -0.79510  -0.78611
 Alpha  occ. eigenvalues --   -0.77281  -0.76427  -0.75590  -0.74655  -0.73705
 Alpha  occ. eigenvalues --   -0.70792  -0.70052  -0.69546  -0.68584  -0.67138
 Alpha  occ. eigenvalues --   -0.66043  -0.65737  -0.63452  -0.61707  -0.60669
 Alpha  occ. eigenvalues --   -0.59453  -0.58836  -0.58071  -0.57857  -0.56885
 Alpha  occ. eigenvalues --   -0.55660  -0.55106  -0.54703  -0.52742  -0.52517
 Alpha  occ. eigenvalues --   -0.51942  -0.51810  -0.51443  -0.50639  -0.50233
 Alpha  occ. eigenvalues --   -0.49909  -0.49646  -0.48940  -0.48728  -0.48224
 Alpha  occ. eigenvalues --   -0.47375  -0.47207  -0.46470  -0.46402  -0.45583
 Alpha  occ. eigenvalues --   -0.45421  -0.44934  -0.44591  -0.44259  -0.44094
 Alpha  occ. eigenvalues --   -0.43589  -0.43078  -0.42890  -0.42772  -0.42461
 Alpha  occ. eigenvalues --   -0.42225  -0.41574  -0.41281  -0.41177  -0.40757
 Alpha  occ. eigenvalues --   -0.40570  -0.40354  -0.40271  -0.39799  -0.39467
 Alpha  occ. eigenvalues --   -0.39156  -0.38451  -0.38149  -0.37620  -0.37187
 Alpha  occ. eigenvalues --   -0.37112  -0.36694  -0.36225  -0.36102  -0.36035
 Alpha  occ. eigenvalues --   -0.35959  -0.35181  -0.34810  -0.34691  -0.34234
 Alpha  occ. eigenvalues --   -0.33745  -0.33449  -0.31876  -0.31845  -0.31727
 Alpha  occ. eigenvalues --   -0.31658  -0.29795  -0.28795  -0.28279  -0.28088
 Alpha  occ. eigenvalues --   -0.27978  -0.27106  -0.25316  -0.24001  -0.23722
 Alpha  occ. eigenvalues --   -0.22755  -0.22405  -0.21947  -0.21393  -0.18556
 Alpha virt. eigenvalues --   -0.13324  -0.08746  -0.03539  -0.03292  -0.01914
 Alpha virt. eigenvalues --   -0.01255   0.00265   0.00971   0.01852   0.02402
 Alpha virt. eigenvalues --    0.02452   0.03068   0.03257   0.03740   0.04611

 Mulliken charges:
               1
     1  O   -0.329420
     2  O   -0.240370
     3  O   -0.273771
     4  O   -0.143042
     5  O   -0.330541
     6  O   -0.195271
     7  N   -0.060116
     8  N   -0.206108
     9  N   -0.071589
    10  N   -0.372061
    11  C    0.042894
    12  C    0.064753
    13  C   -0.041324
    14  C   -0.120703
    15  C   -0.075845
    16  C   -0.058189
    17  C   -0.220463
    18  C    0.099620
    19  C   -0.003316
    20  C   -0.100734
    21  C    0.142473
    22  C    0.107242
    23  C   -0.059548
    24  C   -0.020088
    25  C    0.111301
    26  C   -0.091391
    27  C    0.042220
    28  C    0.062617
    29  C   -0.071046
    30  C   -0.061747
    31  C    0.020874
    32  C    0.090175
    33  C   -0.097937
    34  C    0.157850
    35  C    0.188267
    36  C   -0.009551
    37  C    0.166116
    38  C    0.100769
    39  C   -0.219530
    40  C    0.181839
    41  C    0.014776
    42  C    0.072906
    43  C    0.020918
    44  H    0.095817
    45  H    0.000167
    46  H    0.043361
    47  H    0.137517
    48  H    0.168785
    49  H    0.026167
    50  H   -0.009495
    51  H    0.008102
    52  H    0.051040
    53  H    0.007212
    54  H    0.069951
    55  H    0.011753
    56  H    0.055718
    57  H    0.040775
    58  H    0.000417
    59  H    0.038261
    60  H    0.148335
    61  H    0.056058
    62  H    0.069591
    63  H    0.038183
    64  H    0.048982
    65  H    0.047111
    66  H    0.026973
    67  H    0.032458
    68  H    0.041607
    69  H   -0.024323
    70  H    0.026795
    71  H    0.017982
    72  H    0.227525
    73  H   -0.110472
    74  H    0.038873
    75  H    0.036351
    76  H    0.041902
    77  H    0.224788
    78  H    0.050565
    79  H    0.001254
 Sum of Mulliken charges =  -0.00000

 Dipole moment (field-independent basis, Debye):
    X=              4.6142    Y=              4.1278    Z=             -0.4448  Tot=              6.2071
 Quadrupole moment (field-independent basis, Debye-Ang):
   XX=           -232.1099   YY=           -229.9058   ZZ=           -277.5568
   XY=             10.8551   XZ=            -22.6303   YZ=            -11.2844

 Normal termination of Gaussian 16 at Fri Jul 26 11:40:58 2019.
