 Gaussian 16, Revision A.03,
 Gaussian 16:  ES64L-G16RevA.03 25-Dec-2016

 --------------------------
 # td=(NStates=1) B3LYP/SVP
 --------------------------

 --
 TD
 --
 Symbolic Z-matrix:
 Charge =  0 Multiplicity = 1

                         Standard orientation:
 ---------------------------------------------------------------------
 Center     Atomic      Atomic             Coordinates (Angstroms)
 Number     Number       Type             X           Y           Z
 ---------------------------------------------------------------------
      1          8           0       -3.251650   -0.836939   -3.026678
      2          8           0        3.219060    2.529930    3.607923
      3          8           0        3.985839    0.501132    4.265056
      4          8           0        7.725734   -1.602517   -0.909350
      5          8           0        6.863430   -2.276697   -2.953968
      6          8           0       -2.748262    1.397371    1.702848
      7          7           0       -0.246710   -2.493144    0.551412
      8          7           0       -2.657976   -1.094784   -0.712978
      9          7           0        1.156304    0.263874   -0.686806
     10          7           0       -1.067668    1.554919    0.106424
     11          6           0       -3.393672   -1.472011    0.473403
     12          6           0       -2.622465   -2.584527    1.213547
     13          6           0       -1.210244   -2.328859    1.480775
     14          6           0       -0.561280   -1.750516    2.658866
     15          6           0        0.774950   -1.530961    2.281804
     16          6           0        0.951778   -2.070890    0.953809
     17          6           0       -4.693322   -1.905673   -0.045625
     18          6           0        1.850704   -0.933778    3.130234
     19          6           0       -4.787084   -1.776764   -1.375723
     20          6           0        2.119725   -1.967108    0.026942
     21          6           0        2.109524   -0.795477   -0.825236
     22          6           0       -3.518164   -1.167010   -1.832233
     23          6           0        3.078387   -0.282559   -1.756795
     24          6           0       -1.314838   -1.236645    3.806597
     25          6           0       -5.826486   -2.445398    0.861034
     26          6           0        2.594693    0.893235   -2.302519
     27          6           0        1.934922    0.575751    2.995071
     28          6           0        1.353238    1.271499   -1.576634
     29          6           0        4.202357   -1.044414   -2.266601
     30          6           0       -5.804652   -2.118979   -2.318697
     31          6           0        5.394195   -0.760254   -1.257634
     32          6           0        3.242186    1.859675   -3.272823
     33          6           0        0.456173    2.329639   -1.646805
     34          6           0        3.102712    1.193851    3.799551
     35          6           0       -0.654968    2.484839   -0.749677
     36          6           0       -6.880054   -3.020512   -2.278912
     37          6           0        6.702309   -1.583202   -1.774421
     38          6           0       -1.522300    3.671222   -0.671802
     39          6           0       -2.421512    3.436884    0.326380
     40          6           0       -2.083103    2.017518    0.786718
     41          6           0       -1.422283    4.836117   -1.631146
     42          6           0       -3.744972    4.063246    0.779599
     43          6           0       -1.990427    5.964025   -1.379485
     44          1           0       -3.424766   -0.693738    1.114447
     45          1           0       -2.674567   -3.578262    0.598725
     46          1           0       -3.167890   -2.845751    2.104468
     47          1           0       -0.256995   -2.585863   -0.489831
     48          1           0       -1.896391   -0.355233   -0.577366
     49          1           0        1.724214   -1.302523    4.084893
     50          1           0        2.772870   -1.535578    2.819778
     51          1           0        2.870811   -2.619511    0.072213
     52          1           0       -1.967810   -1.805750    4.475565
     53          1           0       -0.422909   -0.912070    4.421141
     54          1           0       -1.922883   -0.321477    3.489669
     55          1           0       -6.073928   -1.549765    1.631922
     56          1           0       -5.277193   -3.417783    1.494121
     57          1           0       -6.850785   -2.825272    0.289453
     58          1           0        1.869945    0.404233    1.857871
     59          1           0        0.959910    1.033425    3.318305
     60          1           0        0.361945    0.379852   -0.055413
     61          1           0        4.336449   -0.948933   -3.346390
     62          1           0        4.218458   -2.207668   -2.276741
     63          1           0       -5.832212   -1.563826   -3.459895
     64          1           0        5.057763   -1.486253   -0.256273
     65          1           0        5.634671    0.340846   -1.115932
     66          1           0        4.126133    1.389247   -3.558740
     67          1           0        3.412865    2.808107   -2.764960
     68          1           0        2.425163    2.144751   -4.008292
     69          1           0        0.812299    3.127074   -2.257701
     70          1           0       -6.975281   -3.608788   -1.524736
     71          1           0       -7.665621   -3.051249   -2.935068
     72          1           0        3.959183    2.878655    4.298779
     73          1           0       -0.872473    4.706900   -2.402199
     74          1           0       -4.381752    4.622710    0.114463
     75          1           0       -4.377464    3.293654    1.413989
     76          1           0       -3.495046    4.994766    1.293999
     77          1           0        8.417771   -2.150698   -1.334618
     78          1           0       -1.865960    6.855796   -1.955955
     79          1           0       -2.695537    6.139872   -0.536069
 ---------------------------------------------------------------------

 SCF Done:  E(RB3LYP) =  -1947.78826827     A.U. after   21 cycles

 Excitation energies and oscillator strengths:

 Excited State   1:      Singlet-A      0.9048 eV 1370.32 nm  f=0.0063  <S**2>=0.000
     155 ->156         0.70396
 This state for optimization and/or second-order correction.
 Total Energy, E(TD-HF/TD-DFT) =  -1947.75501810
 Copying the excited state density for this state as the 1-particle RhoCI density.

 The electronic state is 1-A.
 Alpha  occ. eigenvalues --  -19.21345 -19.19000 -19.13685 -19.12776 -19.11803
 Alpha  occ. eigenvalues --  -19.07779 -14.38036 -14.37554 -14.33127 -14.31425
 Alpha  occ. eigenvalues --  -10.35364 -10.32291 -10.28222 -10.27273 -10.27100
 Alpha  occ. eigenvalues --  -10.26753 -10.26727 -10.26381 -10.23722 -10.23505
 Alpha  occ. eigenvalues --  -10.23064 -10.23013 -10.22737 -10.21844 -10.21596
 Alpha  occ. eigenvalues --  -10.21561 -10.21353 -10.20974 -10.20950 -10.20607
 Alpha  occ. eigenvalues --  -10.20474 -10.20380 -10.20284 -10.20279 -10.19809
 Alpha  occ. eigenvalues --  -10.19681 -10.19523 -10.18595 -10.17981 -10.17686
 Alpha  occ. eigenvalues --  -10.17399 -10.17285 -10.16917  -1.10653  -1.08517
 Alpha  occ. eigenvalues --   -1.01178  -0.99899  -0.99682  -0.98303  -0.97834
 Alpha  occ. eigenvalues --   -0.94781  -0.94693  -0.91669  -0.85016  -0.82367
 Alpha  occ. eigenvalues --   -0.82079  -0.80828  -0.80252  -0.78966  -0.78757
 Alpha  occ. eigenvalues --   -0.76775  -0.76347  -0.75678  -0.74127  -0.73329
 Alpha  occ. eigenvalues --   -0.71303  -0.70296  -0.69753  -0.69005  -0.67996
 Alpha  occ. eigenvalues --   -0.66784  -0.65788  -0.63832  -0.62112  -0.61518
 Alpha  occ. eigenvalues --   -0.61353  -0.60544  -0.58762  -0.58255  -0.57280
 Alpha  occ. eigenvalues --   -0.56018  -0.55479  -0.55091  -0.54914  -0.53329
 Alpha  occ. eigenvalues --   -0.52310  -0.52001  -0.51204  -0.50528  -0.49834
 Alpha  occ. eigenvalues --   -0.49586  -0.49381  -0.49262  -0.48914  -0.47903
 Alpha  occ. eigenvalues --   -0.47724  -0.47328  -0.46762  -0.46518  -0.46290
 Alpha  occ. eigenvalues --   -0.45661  -0.45575  -0.44877  -0.44512  -0.44340
 Alpha  occ. eigenvalues --   -0.43880  -0.43746  -0.43538  -0.42481  -0.42193
 Alpha  occ. eigenvalues --   -0.41976  -0.41698  -0.41566  -0.41021  -0.40902
 Alpha  occ. eigenvalues --   -0.40570  -0.40332  -0.40317  -0.39933  -0.39351
 Alpha  occ. eigenvalues --   -0.38887  -0.38816  -0.38684  -0.38013  -0.37822
 Alpha  occ. eigenvalues --   -0.37451  -0.37246  -0.36830  -0.36353  -0.36246
 Alpha  occ. eigenvalues --   -0.36011  -0.35851  -0.35705  -0.35180  -0.34699
 Alpha  occ. eigenvalues --   -0.32718  -0.32523  -0.32204  -0.32138  -0.31170
 Alpha  occ. eigenvalues --   -0.31043  -0.29650  -0.29562  -0.29355  -0.28272
 Alpha  occ. eigenvalues --   -0.28071  -0.27226  -0.25929  -0.24483  -0.24162
 Alpha  occ. eigenvalues --   -0.23385  -0.23230  -0.22995  -0.22194  -0.19138
 Alpha virt. eigenvalues --   -0.13365  -0.08170  -0.04681  -0.04631  -0.01704
 Alpha virt. eigenvalues --   -0.01404   0.00290   0.01371   0.01991   0.02356
 Alpha virt. eigenvalues --    0.03128   0.03518   0.04029   0.04493   0.04738

 Mulliken charges:
               1
     1  O   -0.281656
     2  O   -0.230350
     3  O   -0.223980
     4  O   -0.147205
     5  O   -0.363568
     6  O   -0.273478
     7  N    0.007788
     8  N   -0.270527
     9  N   -0.125194
    10  N   -0.222735
    11  C    0.184254
    12  C    0.170640
    13  C   -0.116390
    14  C   -0.070700
    15  C   -0.175644
    16  C   -0.089359
    17  C   -0.144356
    18  C    0.131992
    19  C    0.032942
    20  C   -0.007850
    21  C    0.129020
    22  C    0.167759
    23  C   -0.020453
    24  C    0.032262
    25  C   -0.060613
    26  C   -0.147176
    27  C   -0.039377
    28  C    0.083701
    29  C   -0.000432
    30  C   -0.114696
    31  C   -0.091776
    32  C    0.137781
    33  C   -0.056718
    34  C    0.179192
    35  C    0.101305
    36  C    0.039924
    37  C    0.196630
    38  C    0.014757
    39  C   -0.177653
    40  C    0.145327
    41  C    0.116796
    42  C    0.069814
    43  C    0.005154
    44  H   -0.012592
    45  H   -0.008417
    46  H   -0.018309
    47  H    0.132189
    48  H    0.164386
    49  H   -0.025998
    50  H    0.000879
    51  H   -0.034565
    52  H    0.012626
    53  H   -0.003305
    54  H    0.056107
    55  H    0.060211
    56  H    0.057354
    57  H    0.065908
    58  H    0.058467
    59  H    0.044414
    60  H    0.175944
    61  H    0.042907
    62  H    0.042794
    63  H    0.052062
    64  H    0.100243
    65  H    0.082132
    66  H    0.013646
    67  H    0.031675
    68  H    0.045144
    69  H   -0.032296
    70  H   -0.045592
    71  H    0.002442
    72  H    0.222330
    73  H   -0.099466
    74  H    0.012779
    75  H    0.069221
    76  H    0.016698
    77  H    0.199161
    78  H    0.013754
    79  H    0.009911
 Sum of Mulliken charges =  -0.00000

 Dipole moment (field-independent basis, Debye):
    X=              3.6900    Y=              3.9727    Z=              0.8427  Tot=              5.4872
 Quadrupole moment (field-independent basis, Debye-Ang):
   XX=           -237.5917   YY=           -229.6199   ZZ=           -274.1620
   XY=              7.3868   XZ=            -12.4635   YZ=             -8.8829

 Normal termination of Gaussian 16 at Mon Jul 29 04:03:14 2019.
