 Gaussian 16, Revision A.03,
 Gaussian 16:  ES64L-G16RevA.03 25-Dec-2016

 --------------------------
 # td=(NStates=1) B3LYP/SVP
 --------------------------

 --
 TD
 --
 Symbolic Z-matrix:
 Charge =  0 Multiplicity = 1

                         Standard orientation:
 ---------------------------------------------------------------------
 Center     Atomic      Atomic             Coordinates (Angstroms)
 Number     Number       Type             X           Y           Z
 ---------------------------------------------------------------------
      1          8           0        5.449027    0.084727   -3.326564
      2          8           0       -3.055324   -2.950984    3.194951
      3          8           0       -3.338404   -0.705920    3.137026
      4          8           0       -1.793727    7.316140    1.457122
      5          8           0       -0.601538    6.964171   -0.421981
      6          8           0       -1.688277   -4.010840    0.019763
      7          7           0        2.308139    0.865607    0.631279
      8          7           0        4.448294   -0.547724   -1.250494
      9          7           0       -1.856195    0.677333   -0.345066
     10          7           0       -2.498555   -1.943125   -0.631851
     11          6           0        4.786012   -1.104277   -0.013852
     12          6           0        4.377059   -0.291387    1.232935
     13          6           0        2.917075    0.033494    1.466996
     14          6           0        1.938589   -0.685320    2.147877
     15          6           0        0.681280   -0.081286    1.888571
     16          6           0        0.915440    0.926568    0.896045
     17          6           0        6.288089   -1.368921   -0.184369
     18          6           0       -0.634322   -0.184456    2.540298
     19          6           0        6.695382   -0.771286   -1.415547
     20          6           0        0.182500    1.880047    0.188026
     21          6           0       -1.169769    1.858867   -0.248582
     22          6           0        5.451911   -0.365476   -2.205630
     23          6           0       -1.979977    2.916937   -0.897617
     24          6           0        2.173761   -1.696051    3.246790
     25          6           0        7.131694   -1.934871    0.847926
     26          6           0       -3.114490    2.361396   -1.416913
     27          6           0       -1.138915   -1.599904    2.605469
     28          6           0       -3.009905    0.906057   -1.046090
     29          6           0       -1.558749    4.336486   -0.962653
     30          6           0        7.992028   -0.847915   -2.021097
     31          6           0       -1.894841    5.099292    0.374975
     32          6           0       -4.220049    2.941519   -2.091027
     33          6           0       -3.902423   -0.214733   -1.397279
     34          6           0       -2.599183   -1.669715    2.967537
     35          6           0       -3.661003   -1.520568   -1.151175
     36          6           0        9.180258   -0.860506   -1.366988
     37          6           0       -1.338895    6.538699    0.450196
     38          6           0       -4.597090   -2.659802   -1.366241
     39          6           0       -3.884218   -3.812967   -1.037607
     40          6           0       -2.589972   -3.304722   -0.537422
     41          6           0       -5.891294   -2.502662   -2.100296
     42          6           0       -4.266699   -5.215926   -1.108216
     43          6           0       -6.702277   -3.476960   -2.520121
     44          1           0        4.235618   -1.959503    0.123747
     45          1           0        5.124737    0.579366    1.183003
     46          1           0        4.865120   -0.895180    2.137260
     47          1           0        2.885393    1.477362    0.013362
     48          1           0        3.479760   -0.405864   -1.493485
     49          1           0       -0.628813    0.397794    3.437248
     50          1           0       -1.322017    0.634048    2.162525
     51          1           0        0.666152    2.760302    0.003302
     52          1           0        3.224530   -1.577167    3.364407
     53          1           0        1.718833   -1.561140    4.139845
     54          1           0        1.858264   -2.756623    3.121509
     55          1           0        6.564062   -2.652030    1.526919
     56          1           0        7.457663   -0.998471    1.528945
     57          1           0        8.089241   -2.256614    0.435648
     58          1           0       -1.126588   -2.156285    1.596493
     59          1           0       -0.533521   -2.206546    3.359694
     60          1           0       -1.682059   -0.403263   -0.212742
     61          1           0       -1.972401    4.869968   -1.865360
     62          1           0       -0.382263    4.319725   -1.024616
     63          1           0        8.069687   -0.642203   -3.177902
     64          1           0       -1.419870    4.509826    1.185306
     65          1           0       -2.998835    5.003576    0.339700
     66          1           0       -4.038152    4.023441   -2.134620
     67          1           0       -5.363381    2.762893   -1.739378
     68          1           0       -4.308745    2.414341   -3.107003
     69          1           0       -4.969272    0.285831   -1.876567
     70          1           0        9.354668   -0.982562   -0.198142
     71          1           0       10.188043   -0.776092   -1.797422
     72          1           0       -4.117753   -2.991358    3.380228
     73          1           0       -6.264063   -1.429981   -2.532725
     74          1           0       -5.133018   -5.308186   -0.510358
     75          1           0       -4.391204   -5.605248   -2.138452
     76          1           0       -3.415996   -5.746382   -0.691086
     77          1           0       -1.548391    8.171289    1.204218
     78          1           0       -7.646830   -3.047577   -3.077023
     79          1           0       -6.446468   -4.572403   -2.565609
 ---------------------------------------------------------------------

 SCF Done:  E(RB3LYP) =  -1947.91790916     A.U. after   19 cycles

 Excitation energies and oscillator strengths:

 Excited State   1:      Singlet-A      2.0643 eV  600.62 nm  f=0.4314  <S**2>=0.000
     154 ->156         0.19051
     155 ->156         0.68214
     155 <-156        -0.12073
 This state for optimization and/or second-order correction.
 Total Energy, E(TD-HF/TD-DFT) =  -1947.84204871
 Copying the excited state density for this state as the 1-particle RhoCI density.

 The electronic state is 1-A.
 Alpha  occ. eigenvalues --  -19.19619 -19.16587 -19.13922 -19.10995 -19.10885
 Alpha  occ. eigenvalues --  -19.08690 -14.39454 -14.37150 -14.35651 -14.28664
 Alpha  occ. eigenvalues --  -10.33709 -10.30665 -10.29303 -10.25508 -10.25375
 Alpha  occ. eigenvalues --  -10.25177 -10.24399 -10.24200 -10.23660 -10.23579
 Alpha  occ. eigenvalues --  -10.22642 -10.22628 -10.22468 -10.22374 -10.22193
 Alpha  occ. eigenvalues --  -10.21970 -10.21932 -10.21883 -10.21545 -10.21063
 Alpha  occ. eigenvalues --  -10.20932 -10.20659 -10.20577 -10.20516 -10.20254
 Alpha  occ. eigenvalues --  -10.20149 -10.20090 -10.19869 -10.19786 -10.19400
 Alpha  occ. eigenvalues --  -10.19139 -10.18593 -10.17808  -1.11776  -1.05657
 Alpha  occ. eigenvalues --   -1.03098  -1.01968  -1.00026  -0.98603  -0.97994
 Alpha  occ. eigenvalues --   -0.97063  -0.95538  -0.91324  -0.83680  -0.82781
 Alpha  occ. eigenvalues --   -0.82150  -0.81831  -0.79963  -0.79643  -0.78277
 Alpha  occ. eigenvalues --   -0.77495  -0.76745  -0.75656  -0.74740  -0.73081
 Alpha  occ. eigenvalues --   -0.72265  -0.71182  -0.70163  -0.69395  -0.68483
 Alpha  occ. eigenvalues --   -0.67870  -0.66725  -0.63919  -0.61706  -0.61570
 Alpha  occ. eigenvalues --   -0.60370  -0.58478  -0.57740  -0.57645  -0.56755
 Alpha  occ. eigenvalues --   -0.56118  -0.55925  -0.55092  -0.54182  -0.53088
 Alpha  occ. eigenvalues --   -0.52770  -0.52004  -0.51312  -0.50971  -0.50519
 Alpha  occ. eigenvalues --   -0.49618  -0.49258  -0.48763  -0.48204  -0.47557
 Alpha  occ. eigenvalues --   -0.47007  -0.46849  -0.46437  -0.46106  -0.45545
 Alpha  occ. eigenvalues --   -0.44997  -0.44884  -0.44491  -0.44313  -0.43942
 Alpha  occ. eigenvalues --   -0.43630  -0.43366  -0.43274  -0.43181  -0.42999
 Alpha  occ. eigenvalues --   -0.42341  -0.41961  -0.41810  -0.41271  -0.41081
 Alpha  occ. eigenvalues --   -0.40979  -0.40305  -0.40128  -0.39958  -0.39861
 Alpha  occ. eigenvalues --   -0.39667  -0.39440  -0.39158  -0.39074  -0.38634
 Alpha  occ. eigenvalues --   -0.38436  -0.38241  -0.37738  -0.37160  -0.36794
 Alpha  occ. eigenvalues --   -0.36496  -0.35955  -0.35718  -0.35608  -0.33958
 Alpha  occ. eigenvalues --   -0.33823  -0.33581  -0.32760  -0.31965  -0.31537
 Alpha  occ. eigenvalues --   -0.30671  -0.30178  -0.29288  -0.28722  -0.27364
 Alpha  occ. eigenvalues --   -0.26692  -0.26316  -0.26280  -0.26179  -0.25253
 Alpha  occ. eigenvalues --   -0.23822  -0.23356  -0.23251  -0.22035  -0.19189
 Alpha virt. eigenvalues --   -0.11190  -0.06726  -0.06334  -0.01591  -0.00629
 Alpha virt. eigenvalues --    0.00480   0.00881   0.01520   0.02322   0.02670
 Alpha virt. eigenvalues --    0.03188   0.03525   0.03651   0.04204   0.04387

 Mulliken charges:
               1
     1  O   -0.201166
     2  O   -0.265853
     3  O   -0.248537
     4  O   -0.142555
     5  O   -0.232058
     6  O   -0.276705
     7  N   -0.088396
     8  N   -0.208081
     9  N   -0.090858
    10  N   -0.277234
    11  C    0.199150
    12  C    0.033504
    13  C   -0.023735
    14  C   -0.140206
    15  C   -0.057015
    16  C    0.116224
    17  C   -0.178830
    18  C    0.097831
    19  C   -0.074821
    20  C   -0.068342
    21  C    0.077515
    22  C    0.178137
    23  C   -0.075133
    24  C    0.148739
    25  C    0.047077
    26  C   -0.054451
    27  C   -0.015525
    28  C    0.003848
    29  C    0.009787
    30  C   -0.014136
    31  C    0.002933
    32  C    0.012368
    33  C   -0.139391
    34  C    0.147319
    35  C    0.124358
    36  C   -0.102338
    37  C    0.148419
    38  C    0.052385
    39  C   -0.213074
    40  C    0.152910
    41  C   -0.059606
    42  C    0.135116
    43  C   -0.080676
    44  H   -0.020782
    45  H    0.007580
    46  H    0.025836
    47  H    0.134161
    48  H    0.113543
    49  H   -0.007624
    50  H    0.004227
    51  H   -0.053789
    52  H   -0.022092
    53  H   -0.017222
    54  H    0.031099
    55  H    0.041340
    56  H    0.051320
    57  H    0.043378
    58  H    0.100919
    59  H    0.043540
    60  H    0.196589
    61  H    0.037150
    62  H    0.033167
    63  H    0.048190
    64  H    0.045864
    65  H    0.045876
    66  H    0.018060
    67  H    0.055815
    68  H    0.044153
    69  H    0.022278
    70  H    0.028545
    71  H    0.029917
    72  H    0.230583
    73  H    0.030255
    74  H    0.021956
    75  H    0.035138
    76  H    0.016130
    77  H    0.157667
    78  H    0.035524
    79  H    0.032811
 Sum of Mulliken charges =  -0.00000

 Dipole moment (field-independent basis, Debye):
    X=              0.2063    Y=              3.6106    Z=              3.0405  Tot=              4.7248
 Quadrupole moment (field-independent basis, Debye-Ang):
   XX=           -224.0132   YY=           -246.3158   ZZ=           -263.5118
   XY=            -13.5456   XZ=             34.9972   YZ=              0.9434

 Normal termination of Gaussian 16 at Fri Sep 13 04:53:08 2019.
