 Gaussian 16, Revision A.03,
 Gaussian 16:  ES64L-G16RevA.03 25-Dec-2016

 --------------------------
 # td=(NStates=1) B3LYP/SVP
 --------------------------

 --
 TD
 --
 Symbolic Z-matrix:
 Charge =  0 Multiplicity = 1

                         Standard orientation:
 ---------------------------------------------------------------------
 Center     Atomic      Atomic             Coordinates (Angstroms)
 Number     Number       Type             X           Y           Z
 ---------------------------------------------------------------------
      1          8           0       -3.409422   -1.235210   -3.003562
      2          8           0        3.137728    2.901284    3.190277
      3          8           0        3.748307    1.179011    4.464030
      4          8           0        7.766471   -1.441712   -0.732513
      5          8           0        6.706694   -2.628792   -2.237399
      6          8           0       -2.526753    1.520651    1.592570
      7          7           0       -0.199245   -2.556779    0.722997
      8          7           0       -2.634484   -1.172079   -0.693956
      9          7           0        1.164531    0.098744   -0.713864
     10          7           0       -0.939505    1.491316   -0.055553
     11          6           0       -3.315301   -1.293493    0.538294
     12          6           0       -2.694604   -2.489717    1.358611
     13          6           0       -1.224880   -2.209379    1.615971
     14          6           0       -0.578656   -1.465815    2.749152
     15          6           0        0.749847   -1.301153    2.474498
     16          6           0        1.053405   -2.043094    1.162821
     17          6           0       -4.752405   -1.828231    0.248312
     18          6           0        1.951271   -0.636891    3.110388
     19          6           0       -4.786116   -1.880753   -1.151713
     20          6           0        2.135554   -1.921738    0.278779
     21          6           0        2.162956   -0.895292   -0.636848
     22          6           0       -3.565240   -1.367193   -1.771121
     23          6           0        3.003845   -0.578087   -1.799927
     24          6           0       -1.480010   -0.729917    3.757193
     25          6           0       -5.847328   -2.091713    1.204544
     26          6           0        2.504139    0.604169   -2.443947
     27          6           0        1.964291    0.847444    2.769618
     28          6           0        1.388806    1.008864   -1.746085
     29          6           0        4.271933   -1.342767   -2.057078
     30          6           0       -5.881698   -2.402084   -2.112695
     31          6           0        5.365796   -0.969344   -1.218682
     32          6           0        3.044900    1.227112   -3.712044
     33          6           0        0.530244    2.154195   -1.827210
     34          6           0        3.068705    1.579813    3.525075
     35          6           0       -0.610225    2.331323   -0.996903
     36          6           0       -6.959853   -3.018295   -1.772855
     37          6           0        6.660085   -1.744465   -1.556056
     38          6           0       -1.503463    3.604036   -1.003546
     39          6           0       -2.358567    3.369140    0.009425
     40          6           0       -2.002102    2.065046    0.555176
     41          6           0       -1.306444    4.742683   -1.903553
     42          6           0       -3.414013    4.293903    0.626067
     43          6           0       -2.089254    5.838751   -2.089636
     44          1           0       -3.291798   -0.522216    1.236349
     45          1           0       -2.635039   -3.405829    0.712823
     46          1           0       -3.131585   -2.781277    2.213047
     47          1           0       -0.142789   -3.336275   -0.131876
     48          1           0       -1.899098   -0.465573   -0.796885
     49          1           0        1.856121   -0.874659    4.277345
     50          1           0        2.938753   -1.272560    2.825411
     51          1           0        2.937820   -2.823054   -0.081669
     52          1           0       -2.130613   -1.580296    3.949079
     53          1           0       -0.885616   -0.325823    4.525415
     54          1           0       -2.057411    0.146975    3.442071
     55          1           0       -5.781488   -1.336384    2.093948
     56          1           0       -5.608792   -3.078530    1.828281
     57          1           0       -6.856264   -2.086381    0.632258
     58          1           0        1.843466    1.012464    1.682168
     59          1           0        0.945743    1.087463    3.146635
     60          1           0        0.369942    0.208335   -0.270485
     61          1           0        4.562409   -1.465776   -3.180438
     62          1           0        3.959904   -2.305232   -1.744906
     63          1           0       -5.799985   -2.086385   -3.201854
     64          1           0        5.051361   -1.229866   -0.158193
     65          1           0        5.590592    0.231496   -1.330135
     66          1           0        3.470684    0.257482   -4.326081
     67          1           0        4.005172    1.958229   -3.476169
     68          1           0        2.256635    1.763781   -4.292681
     69          1           0        0.653364    2.795714   -2.740002
     70          1           0       -7.003742   -3.315884   -0.646587
     71          1           0       -7.689680   -3.554008   -2.554894
     72          1           0        3.779052    3.473819    3.885460
     73          1           0       -0.358118    4.756084   -2.508899
     74          1           0       -4.235046    4.494940    0.017849
     75          1           0       -3.653740    3.953584    1.673962
     76          1           0       -3.072251    5.255188    0.870789
     77          1           0        8.598856   -2.129541   -1.269607
     78          1           0       -1.758710    6.473624   -2.899477
     79          1           0       -2.865109    5.973757   -1.510800
 ---------------------------------------------------------------------

 SCF Done:  E(RB3LYP) =  -1947.78174269     A.U. after   19 cycles

 Excitation energies and oscillator strengths:

 Excited State   1:      Singlet-A      0.7731 eV 1603.69 nm  f=0.0088  <S**2>=0.000
     155 ->156         0.70337
 This state for optimization and/or second-order correction.
 Total Energy, E(TD-HF/TD-DFT) =  -1947.75333112
 Copying the excited state density for this state as the 1-particle RhoCI density.

 The electronic state is 1-A.
 Alpha  occ. eigenvalues --  -19.18068 -19.17452 -19.14783 -19.11836 -19.11195
 Alpha  occ. eigenvalues --  -19.08923 -14.39114 -14.36126 -14.33729 -14.31045
 Alpha  occ. eigenvalues --  -10.32315 -10.31678 -10.27765 -10.27289 -10.26229
 Alpha  occ. eigenvalues --  -10.25973 -10.25321 -10.23916 -10.23889 -10.23719
 Alpha  occ. eigenvalues --  -10.23244 -10.22784 -10.22320 -10.22075 -10.22016
 Alpha  occ. eigenvalues --  -10.21859 -10.21734 -10.21605 -10.21544 -10.21370
 Alpha  occ. eigenvalues --  -10.21218 -10.20943 -10.20556 -10.20511 -10.19811
 Alpha  occ. eigenvalues --  -10.19466 -10.19219 -10.19063 -10.18774 -10.18747
 Alpha  occ. eigenvalues --  -10.18599 -10.18309 -10.17009  -1.12968  -1.06857
 Alpha  occ. eigenvalues --   -1.01106  -0.99314  -0.99236  -0.99073  -0.97583
 Alpha  occ. eigenvalues --   -0.94357  -0.94127  -0.92244  -0.84892  -0.82593
 Alpha  occ. eigenvalues --   -0.82013  -0.80175  -0.80055  -0.79716  -0.78235
 Alpha  occ. eigenvalues --   -0.77042  -0.75994  -0.75611  -0.74410  -0.72585
 Alpha  occ. eigenvalues --   -0.70997  -0.70251  -0.69816  -0.69080  -0.67209
 Alpha  occ. eigenvalues --   -0.66040  -0.64597  -0.63726  -0.61692  -0.59438
 Alpha  occ. eigenvalues --   -0.58349  -0.57633  -0.57477  -0.56643  -0.55749
 Alpha  occ. eigenvalues --   -0.55570  -0.55319  -0.54997  -0.53698  -0.52597
 Alpha  occ. eigenvalues --   -0.52457  -0.51521  -0.51088  -0.50547  -0.50376
 Alpha  occ. eigenvalues --   -0.49494  -0.49105  -0.48871  -0.47984  -0.47634
 Alpha  occ. eigenvalues --   -0.47087  -0.46278  -0.46122  -0.45660  -0.45557
 Alpha  occ. eigenvalues --   -0.45042  -0.44832  -0.44701  -0.44054  -0.43933
 Alpha  occ. eigenvalues --   -0.43670  -0.42981  -0.42694  -0.42236  -0.42080
 Alpha  occ. eigenvalues --   -0.41485  -0.41340  -0.41219  -0.40953  -0.40723
 Alpha  occ. eigenvalues --   -0.40673  -0.40061  -0.39987  -0.39782  -0.39457
 Alpha  occ. eigenvalues --   -0.39215  -0.39141  -0.38650  -0.38369  -0.38056
 Alpha  occ. eigenvalues --   -0.37899  -0.37729  -0.37396  -0.36865  -0.36381
 Alpha  occ. eigenvalues --   -0.36273  -0.35822  -0.35604  -0.35007  -0.34353
 Alpha  occ. eigenvalues --   -0.33103  -0.32663  -0.32314  -0.31284  -0.31048
 Alpha  occ. eigenvalues --   -0.30741  -0.29869  -0.29831  -0.29562  -0.29200
 Alpha  occ. eigenvalues --   -0.27348  -0.26625  -0.25763  -0.25270  -0.24669
 Alpha  occ. eigenvalues --   -0.24190  -0.23710  -0.23016  -0.22237  -0.18476
 Alpha virt. eigenvalues --   -0.13102  -0.08232  -0.04544  -0.01860  -0.01214
 Alpha virt. eigenvalues --   -0.01022  -0.00238   0.00287   0.02109   0.02222
 Alpha virt. eigenvalues --    0.02310   0.02679   0.03544   0.03981   0.04356

 Mulliken charges:
               1
     1  O   -0.259894
     2  O   -0.270324
     3  O   -0.237340
     4  O   -0.331414
     5  O   -0.122113
     6  O   -0.265463
     7  N   -0.159091
     8  N   -0.213653
     9  N   -0.047673
    10  N   -0.218567
    11  C    0.102532
    12  C    0.240586
    13  C   -0.115635
    14  C   -0.120047
    15  C   -0.089608
    16  C   -0.003347
    17  C   -0.128631
    18  C    0.001043
    19  C   -0.082245
    20  C   -0.124648
    21  C    0.117352
    22  C    0.173829
    23  C   -0.096182
    24  C    0.095706
    25  C    0.014523
    26  C   -0.096314
    27  C    0.011467
    28  C    0.081911
    29  C    0.119976
    30  C    0.013785
    31  C   -0.050274
    32  C   -0.001458
    33  C   -0.083549
    34  C    0.184556
    35  C    0.053752
    36  C   -0.094803
    37  C    0.137168
    38  C    0.084927
    39  C   -0.192092
    40  C    0.143871
    41  C   -0.086389
    42  C    0.137115
    43  C    0.088245
    44  H    0.015995
    45  H   -0.023364
    46  H   -0.041106
    47  H    0.182505
    48  H    0.146774
    49  H    0.037705
    50  H    0.031047
    51  H    0.033444
    52  H    0.006592
    53  H   -0.012260
    54  H    0.055440
    55  H    0.040233
    56  H    0.048632
    57  H    0.071179
    58  H    0.036324
    59  H    0.054455
    60  H    0.084336
    61  H    0.034672
    62  H   -0.016183
    63  H    0.026728
    64  H    0.061532
    65  H    0.058713
    66  H    0.056178
    67  H    0.063078
    68  H    0.048768
    69  H   -0.002501
    70  H    0.021279
    71  H    0.046925
    72  H    0.238288
    73  H    0.004928
    74  H    0.019311
    75  H    0.028528
    76  H   -0.000625
    77  H    0.247980
    78  H    0.029048
    79  H   -0.046164
 Sum of Mulliken charges =  -0.00000

 Dipole moment (field-independent basis, Debye):
    X=              2.3485    Y=              2.3721    Z=             -1.7585  Tot=              3.7729
 Quadrupole moment (field-independent basis, Debye-Ang):
   XX=           -243.3426   YY=           -228.1260   ZZ=           -268.2820
   XY=              1.4681   XZ=            -30.3122   YZ=             -8.6100

 Normal termination of Gaussian 16 at Sat Jul 27 12:55:36 2019.
