 Gaussian 16, Revision A.03,
 Gaussian 16:  ES64L-G16RevA.03 25-Dec-2016

 --------------------------
 # td=(NStates=1) B3LYP/SVP
 --------------------------

 --
 TD
 --
 Symbolic Z-matrix:
 Charge =  0 Multiplicity = 1

                         Standard orientation:
 ---------------------------------------------------------------------
 Center     Atomic      Atomic             Coordinates (Angstroms)
 Number     Number       Type             X           Y           Z
 ---------------------------------------------------------------------
      1          8           0       -3.364628   -1.418177   -2.869619
      2          8           0        3.013723    3.116561    2.784597
      3          8           0        3.220551    1.735656    4.685636
      4          8           0        7.822893   -1.491937   -0.627711
      5          8           0        6.623164   -3.155247   -1.826176
      6          8           0       -2.669413    1.725247    1.426190
      7          7           0       -0.309937   -2.415808    1.020403
      8          7           0       -2.706427   -1.233217   -0.624468
      9          7           0        1.124563    0.014913   -0.696357
     10          7           0       -0.955470    1.400011   -0.192823
     11          6           0       -3.411696   -1.292449    0.628431
     12          6           0       -2.649776   -2.302064    1.692449
     13          6           0       -1.209069   -2.008672    1.849208
     14          6           0       -0.471810   -1.181245    2.791648
     15          6           0        0.851071   -1.120107    2.474195
     16          6           0        1.025932   -1.940715    1.294812
     17          6           0       -4.805832   -1.847295    0.248752
     18          6           0        1.938352   -0.404490    3.109240
     19          6           0       -4.912293   -2.081599   -1.033665
     20          6           0        2.097223   -2.039007    0.374486
     21          6           0        2.109472   -0.975962   -0.666346
     22          6           0       -3.571520   -1.562791   -1.736782
     23          6           0        3.039314   -0.722884   -1.720970
     24          6           0       -1.202297   -0.325279    3.811940
     25          6           0       -5.874822   -2.086907    1.290761
     26          6           0        2.575679    0.369797   -2.413251
     27          6           0        2.175365    1.052170    2.404771
     28          6           0        1.410863    0.815725   -1.835561
     29          6           0        4.276779   -1.575456   -1.967486
     30          6           0       -5.914586   -2.516121   -1.896118
     31          6           0        5.526428   -1.095492   -1.166026
     32          6           0        3.247873    1.044505   -3.646108
     33          6           0        0.522829    1.992789   -2.084047
     34          6           0        2.895919    1.982449    3.441301
     35          6           0       -0.509779    2.248249   -1.233579
     36          6           0       -7.139789   -3.005480   -1.568542
     37          6           0        6.739142   -2.045928   -1.313502
     38          6           0       -1.373638    3.490809   -1.301726
     39          6           0       -2.344236    3.362282   -0.282327
     40          6           0       -1.998269    2.065151    0.431233
     41          6           0       -1.132899    4.532387   -2.262940
     42          6           0       -3.420204    4.192215    0.216753
     43          6           0       -1.811447    5.717747   -2.318180
     44          1           0       -3.375050   -0.429870    1.162348
     45          1           0       -2.809940   -3.215427    1.168278
     46          1           0       -3.280049   -2.171906    2.652098
     47          1           0       -0.386941   -2.960018    0.027554
     48          1           0       -2.135831   -0.349071   -0.583474
     49          1           0        1.747200   -0.048103    4.194783
     50          1           0        2.824649   -0.964249    3.130942
     51          1           0        2.660661   -2.859601    0.226787
     52          1           0       -1.528497   -1.087972    4.511882
     53          1           0       -0.377157    0.256909    4.352283
     54          1           0       -1.973248    0.372499    3.312041
     55          1           0       -5.611615   -1.588009    2.239444
     56          1           0       -6.141593   -3.295757    1.634018
     57          1           0       -6.795540   -1.535049    0.839513
     58          1           0        2.876786    0.937354    1.412736
     59          1           0        1.120078    1.743116    1.933030
     60          1           0        0.325988    0.147354   -0.141344
     61          1           0        4.482032   -1.746781   -2.902345
     62          1           0        4.029541   -2.560375   -1.700582
     63          1           0       -5.887232   -2.263263   -2.903799
     64          1           0        5.396805   -0.833712   -0.164737
     65          1           0        5.791372   -0.073017   -1.616859
     66          1           0        4.081184    0.443854   -4.118590
     67          1           0        3.587388    1.923674   -3.191421
     68          1           0        2.660984    1.133864   -4.372810
     69          1           0        0.694310    2.683859   -2.926746
     70          1           0       -7.389999   -3.532879   -0.677484
     71          1           0       -7.995397   -3.188371   -2.303589
     72          1           0        3.364470    3.888049    3.587081
     73          1           0       -0.573251    4.342482   -3.056692
     74          1           0       -4.295789    4.328759   -0.531461
     75          1           0       -3.742582    3.781785    1.208664
     76          1           0       -3.169804    5.323489    0.329260
     77          1           0        8.453658   -1.985181   -0.820127
     78          1           0       -1.467881    6.329722   -3.160324
     79          1           0       -2.468823    6.175735   -1.557945
 ---------------------------------------------------------------------

 SCF Done:  E(RB3LYP) =  -1947.76669862     A.U. after   23 cycles

 Excitation energies and oscillator strengths:

 Excited State   1:      Singlet-A      0.6806 eV 1821.58 nm  f=0.0168  <S**2>=0.000
     155 ->156         0.71037
     155 <-156        -0.10115
 This state for optimization and/or second-order correction.
 Total Energy, E(TD-HF/TD-DFT) =  -1947.74168548
 Copying the excited state density for this state as the 1-particle RhoCI density.

 The electronic state is 1-A.
 Alpha  occ. eigenvalues --  -19.20689 -19.19516 -19.15865 -19.12655 -19.10950
 Alpha  occ. eigenvalues --  -19.10568 -14.38242 -14.37215 -14.32177 -14.30507
 Alpha  occ. eigenvalues --  -10.34947 -10.32689 -10.27633 -10.27218 -10.27056
 Alpha  occ. eigenvalues --  -10.26225 -10.24497 -10.23322 -10.23229 -10.22892
 Alpha  occ. eigenvalues --  -10.22608 -10.22359 -10.21644 -10.21085 -10.21077
 Alpha  occ. eigenvalues --  -10.20977 -10.20785 -10.20762 -10.20531 -10.20408
 Alpha  occ. eigenvalues --  -10.20309 -10.20111 -10.19886 -10.19879 -10.19846
 Alpha  occ. eigenvalues --  -10.19834 -10.18985 -10.18581 -10.18301 -10.18055
 Alpha  occ. eigenvalues --  -10.17270 -10.17065 -10.16379  -1.12615  -1.08329
 Alpha  occ. eigenvalues --   -1.04556  -1.03992  -1.00772  -0.99079  -0.97143
 Alpha  occ. eigenvalues --   -0.96405  -0.91251  -0.91055  -0.84156  -0.82041
 Alpha  occ. eigenvalues --   -0.80989  -0.80708  -0.80015  -0.79136  -0.77901
 Alpha  occ. eigenvalues --   -0.76038  -0.75388  -0.74716  -0.74015  -0.73612
 Alpha  occ. eigenvalues --   -0.71723  -0.70363  -0.69181  -0.68409  -0.67423
 Alpha  occ. eigenvalues --   -0.65474  -0.65204  -0.62889  -0.62387  -0.60933
 Alpha  occ. eigenvalues --   -0.60204  -0.59642  -0.58343  -0.57618  -0.56669
 Alpha  occ. eigenvalues --   -0.55689  -0.55345  -0.54381  -0.53135  -0.52567
 Alpha  occ. eigenvalues --   -0.51984  -0.51495  -0.51130  -0.50573  -0.49838
 Alpha  occ. eigenvalues --   -0.49096  -0.48903  -0.48689  -0.48176  -0.47929
 Alpha  occ. eigenvalues --   -0.47696  -0.46893  -0.46484  -0.45670  -0.45462
 Alpha  occ. eigenvalues --   -0.45163  -0.44387  -0.44351  -0.44074  -0.43839
 Alpha  occ. eigenvalues --   -0.43646  -0.43215  -0.43047  -0.42831  -0.42395
 Alpha  occ. eigenvalues --   -0.42006  -0.41767  -0.41532  -0.41334  -0.41136
 Alpha  occ. eigenvalues --   -0.41015  -0.40332  -0.40151  -0.39574  -0.39254
 Alpha  occ. eigenvalues --   -0.39066  -0.38968  -0.38796  -0.38412  -0.38330
 Alpha  occ. eigenvalues --   -0.37664  -0.37415  -0.36613  -0.36409  -0.36178
 Alpha  occ. eigenvalues --   -0.35935  -0.35662  -0.35190  -0.34999  -0.34519
 Alpha  occ. eigenvalues --   -0.34418  -0.33798  -0.32920  -0.32503  -0.31327
 Alpha  occ. eigenvalues --   -0.31109  -0.30931  -0.30631  -0.28709  -0.28405
 Alpha  occ. eigenvalues --   -0.27565  -0.27316  -0.25710  -0.24934  -0.23973
 Alpha  occ. eigenvalues --   -0.23414  -0.22718  -0.22472  -0.22046  -0.18398
 Alpha virt. eigenvalues --   -0.13544  -0.07703  -0.04313  -0.02963  -0.02160
 Alpha virt. eigenvalues --   -0.01522  -0.00685   0.01393   0.02429   0.02782
 Alpha virt. eigenvalues --    0.03118   0.04246   0.04586   0.05088   0.05500

 Mulliken charges:
               1
     1  O   -0.143800
     2  O   -0.222790
     3  O   -0.316781
     4  O   -0.104576
     5  O   -0.219613
     6  O   -0.253920
     7  N   -0.073171
     8  N   -0.264678
     9  N   -0.082831
    10  N   -0.364275
    11  C    0.077126
    12  C    0.198946
    13  C   -0.076076
    14  C   -0.189716
    15  C   -0.013341
    16  C   -0.022972
    17  C   -0.148316
    18  C    0.106738
    19  C   -0.008514
    20  C    0.002133
    21  C    0.040898
    22  C    0.149071
    23  C   -0.104810
    24  C    0.070242
    25  C   -0.004659
    26  C   -0.170599
    27  C   -0.188014
    28  C    0.116693
    29  C    0.251698
    30  C    0.004672
    31  C   -0.015590
    32  C    0.226412
    33  C   -0.105939
    34  C    0.218320
    35  C    0.133391
    36  C   -0.073452
    37  C    0.170843
    38  C    0.076915
    39  C   -0.162328
    40  C    0.190404
    41  C    0.006685
    42  C    0.018014
    43  C   -0.021304
    44  H   -0.006863
    45  H   -0.041716
    46  H    0.016150
    47  H    0.163345
    48  H    0.160357
    49  H    0.042612
    50  H   -0.008179
    51  H   -0.035423
    52  H    0.006728
    53  H   -0.002032
    54  H    0.078588
    55  H    0.018149
    56  H    0.060350
    57  H    0.054195
    58  H    0.066742
    59  H    0.108223
    60  H    0.153257
    61  H   -0.052297
    62  H   -0.013670
    63  H   -0.015650
    64  H    0.025745
    65  H    0.037742
    66  H    0.017130
    67  H    0.023829
    68  H   -0.031911
    69  H   -0.008055
    70  H    0.008394
    71  H    0.026007
    72  H    0.247522
    73  H   -0.064027
    74  H    0.040723
    75  H    0.050022
    76  H    0.030501
    77  H    0.092235
    78  H    0.019262
    79  H    0.024881
 Sum of Mulliken charges =  -0.00000

 Dipole moment (field-independent basis, Debye):
    X=              4.6735    Y=              2.2110    Z=             -3.0762  Tot=              6.0161
 Quadrupole moment (field-independent basis, Debye-Ang):
   XX=           -228.2551   YY=           -236.2160   ZZ=           -271.0513
   XY=              6.1579   XZ=            -22.3514   YZ=            -10.6854

 Normal termination of Gaussian 16 at Tue Jul 30 15:42:47 2019.
