 Gaussian 16, Revision A.03,
 Gaussian 16:  ES64L-G16RevA.03 25-Dec-2016

 --------------------------
 # td=(NStates=1) B3LYP/SVP
 --------------------------

 --
 TD
 --
 Symbolic Z-matrix:
 Charge =  0 Multiplicity = 1

                         Standard orientation:
 ---------------------------------------------------------------------
 Center     Atomic      Atomic             Coordinates (Angstroms)
 Number     Number       Type             X           Y           Z
 ---------------------------------------------------------------------
      1          8           0       -3.276477   -1.178349   -2.943657
      2          8           0        2.759181    3.014150    3.107650
      3          8           0        3.419425    1.406714    4.642980
      4          8           0        7.718195   -1.421897   -0.800299
      5          8           0        6.664493   -2.864322   -1.951646
      6          8           0       -2.595631    1.558861    1.535056
      7          7           0       -0.208020   -2.542631    0.843377
      8          7           0       -2.581842   -1.175562   -0.772893
      9          7           0        1.102477    0.086293   -0.721428
     10          7           0       -0.983450    1.397791   -0.115692
     11          6           0       -3.249153   -1.329663    0.532997
     12          6           0       -2.589297   -2.443063    1.498505
     13          6           0       -1.159245   -2.113876    1.714344
     14          6           0       -0.528963   -1.386850    2.749860
     15          6           0        0.815003   -1.336585    2.455251
     16          6           0        1.006203   -2.008243    1.115641
     17          6           0       -4.640408   -1.806629    0.147957
     18          6           0        1.780889   -0.524270    3.127610
     19          6           0       -4.771188   -1.983960   -1.186169
     20          6           0        2.123798   -1.897218    0.268597
     21          6           0        2.125184   -0.881294   -0.717628
     22          6           0       -3.473717   -1.398010   -1.743137
     23          6           0        3.051177   -0.610922   -1.804125
     24          6           0       -1.244043   -0.540060    3.729741
     25          6           0       -5.670238   -2.203057    1.180820
     26          6           0        2.637155    0.533623   -2.412794
     27          6           0        1.749728    0.952065    2.840020
     28          6           0        1.368978    0.949219   -1.750547
     29          6           0        4.316757   -1.417170   -2.026076
     30          6           0       -5.886918   -2.364319   -1.998343
     31          6           0        5.467356   -0.959620   -1.221360
     32          6           0        3.233404    1.377577   -3.562121
     33          6           0        0.567948    2.090749   -1.938985
     34          6           0        2.779342    1.764447    3.653508
     35          6           0       -0.584377    2.332630   -1.071455
     36          6           0       -6.874457   -3.249022   -1.736551
     37          6           0        6.643903   -1.912332   -1.354492
     38          6           0       -1.490151    3.446970   -1.115526
     39          6           0       -2.395782    3.294408   -0.107063
     40          6           0       -1.985099    2.045111    0.571398
     41          6           0       -1.265273    4.559377   -2.156797
     42          6           0       -3.441778    4.278048    0.495533
     43          6           0       -2.027734    5.658647   -2.274016
     44          1           0       -3.273097   -0.535078    1.041720
     45          1           0       -2.570894   -3.594692    1.132999
     46          1           0       -2.994348   -2.390894    2.516261
     47          1           0       -0.411194   -2.810071    0.072670
     48          1           0       -1.943260   -0.457906   -0.974931
     49          1           0        1.863497   -0.608518    4.243871
     50          1           0        2.723410   -0.821884    2.860246
     51          1           0        3.026119   -2.621030    0.003619
     52          1           0       -1.998014   -1.335894    4.240511
     53          1           0       -0.391205   -0.074665    4.369147
     54          1           0       -2.071149    0.130332    3.091398
     55          1           0       -5.743180   -1.421935    2.034616
     56          1           0       -5.772514   -3.009718    1.707647
     57          1           0       -6.646760   -2.002828    0.617696
     58          1           0        1.927246    1.308590    1.859030
     59          1           0        0.641422    1.327662    3.009996
     60          1           0        0.234997    0.086345   -0.297318
     61          1           0        4.556888   -1.424534   -3.162004
     62          1           0        4.065197   -2.465625   -1.913330
     63          1           0       -5.949299   -1.957435   -2.969833
     64          1           0        5.172225   -0.921830   -0.300305
     65          1           0        5.757368    0.143492   -1.300255
     66          1           0        3.976175    0.526871   -4.053261
     67          1           0        3.858587    2.236026   -3.340989
     68          1           0        2.312215    1.569752   -4.209402
     69          1           0        0.718378    2.740940   -2.708710
     70          1           0       -6.691356   -3.946204   -0.911138
     71          1           0       -7.758210   -3.482321   -2.345879
     72          1           0        3.205775    3.763749    3.834655
     73          1           0       -0.239365    4.376764   -2.827447
     74          1           0       -4.071795    4.544593   -0.338845
     75          1           0       -3.778019    3.841991    1.402092
     76          1           0       -2.584008    5.057794    0.569056
     77          1           0        8.423863   -2.023815   -0.944362
     78          1           0       -1.719422    6.266105   -3.152843
     79          1           0       -3.007932    6.003136   -1.638184
 ---------------------------------------------------------------------

 SCF Done:  E(RB3LYP) =  -1947.77320966     A.U. after   19 cycles

 Excitation energies and oscillator strengths:

 Excited State   1:      Singlet-A      0.8360 eV 1482.98 nm  f=0.0001  <S**2>=0.000
     155 ->156         0.70301
 This state for optimization and/or second-order correction.
 Total Energy, E(TD-HF/TD-DFT) =  -1947.74248555
 Copying the excited state density for this state as the 1-particle RhoCI density.

 The electronic state is 1-A.
 Alpha  occ. eigenvalues --  -19.18740 -19.18432 -19.13581 -19.12631 -19.12085
 Alpha  occ. eigenvalues --  -19.07531 -14.37139 -14.35942 -14.33507 -14.30505
 Alpha  occ. eigenvalues --  -10.32087 -10.31716 -10.27833 -10.26754 -10.26361
 Alpha  occ. eigenvalues --  -10.25563 -10.25466 -10.23326 -10.23253 -10.23238
 Alpha  occ. eigenvalues --  -10.23129 -10.22974 -10.22098 -10.21975 -10.21920
 Alpha  occ. eigenvalues --  -10.21532 -10.21306 -10.20923 -10.20841 -10.20822
 Alpha  occ. eigenvalues --  -10.20786 -10.20728 -10.20723 -10.19627 -10.19353
 Alpha  occ. eigenvalues --  -10.19272 -10.18750 -10.18660 -10.18621 -10.18613
 Alpha  occ. eigenvalues --  -10.17070 -10.16948 -10.16041  -1.14834  -1.06766
 Alpha  occ. eigenvalues --   -1.04898  -1.02443  -1.00326  -0.99759  -0.98820
 Alpha  occ. eigenvalues --   -0.98773  -0.93155  -0.92314  -0.84825  -0.82040
 Alpha  occ. eigenvalues --   -0.81554  -0.81342  -0.80989  -0.80009  -0.78686
 Alpha  occ. eigenvalues --   -0.76984  -0.76312  -0.75786  -0.74298  -0.73018
 Alpha  occ. eigenvalues --   -0.71239  -0.70398  -0.70040  -0.69697  -0.67961
 Alpha  occ. eigenvalues --   -0.67343  -0.66486  -0.63774  -0.62951  -0.60337
 Alpha  occ. eigenvalues --   -0.60063  -0.59317  -0.58544  -0.58502  -0.57177
 Alpha  occ. eigenvalues --   -0.56889  -0.55941  -0.54849  -0.53652  -0.52986
 Alpha  occ. eigenvalues --   -0.52705  -0.52094  -0.51833  -0.50858  -0.50508
 Alpha  occ. eigenvalues --   -0.49754  -0.49365  -0.48325  -0.48107  -0.47677
 Alpha  occ. eigenvalues --   -0.47483  -0.47259  -0.46569  -0.46267  -0.45764
 Alpha  occ. eigenvalues --   -0.45519  -0.45076  -0.44637  -0.44504  -0.44389
 Alpha  occ. eigenvalues --   -0.43910  -0.43876  -0.43453  -0.43116  -0.42684
 Alpha  occ. eigenvalues --   -0.42255  -0.41979  -0.41547  -0.41312  -0.41202
 Alpha  occ. eigenvalues --   -0.40750  -0.40604  -0.40281  -0.39891  -0.39549
 Alpha  occ. eigenvalues --   -0.39234  -0.38566  -0.38321  -0.38023  -0.37892
 Alpha  occ. eigenvalues --   -0.37694  -0.37100  -0.36764  -0.36515  -0.36100
 Alpha  occ. eigenvalues --   -0.35775  -0.35450  -0.35361  -0.35236  -0.34919
 Alpha  occ. eigenvalues --   -0.34499  -0.34319  -0.32970  -0.31930  -0.31734
 Alpha  occ. eigenvalues --   -0.31260  -0.30277  -0.30191  -0.29477  -0.28482
 Alpha  occ. eigenvalues --   -0.28139  -0.27626  -0.26103  -0.25313  -0.23722
 Alpha  occ. eigenvalues --   -0.23268  -0.22901  -0.22692  -0.22241  -0.18362
 Alpha virt. eigenvalues --   -0.12645  -0.07534  -0.03859  -0.01739  -0.00757
 Alpha virt. eigenvalues --    0.00524   0.01257   0.01417   0.02213   0.02535
 Alpha virt. eigenvalues --    0.03318   0.03927   0.04450   0.04736   0.05194

 Mulliken charges:
               1
     1  O   -0.262724
     2  O   -0.275110
     3  O   -0.238135
     4  O   -0.128912
     5  O   -0.134176
     6  O   -0.235454
     7  N    0.133819
     8  N   -0.140614
     9  N   -0.037169
    10  N   -0.336539
    11  C    0.281991
    12  C    0.146694
    13  C   -0.175169
    14  C   -0.084935
    15  C   -0.068155
    16  C   -0.000795
    17  C   -0.175900
    18  C    0.139716
    19  C    0.015406
    20  C   -0.094833
    21  C    0.017986
    22  C    0.081914
    23  C   -0.067565
    24  C   -0.028698
    25  C    0.086930
    26  C   -0.119241
    27  C   -0.054177
    28  C    0.109966
    29  C    0.068984
    30  C   -0.028139
    31  C    0.090617
    32  C    0.036214
    33  C   -0.042007
    34  C    0.172600
    35  C    0.082086
    36  C   -0.044995
    37  C    0.067222
    38  C    0.029749
    39  C   -0.238714
    40  C    0.176895
    41  C   -0.042132
    42  C    0.103796
    43  C   -0.072059
    44  H   -0.074297
    45  H    0.022499
    46  H   -0.007299
    47  H   -0.008376
    48  H    0.120140
    49  H    0.017105
    50  H   -0.049847
    51  H    0.014778
    52  H    0.015629
    53  H    0.044523
    54  H    0.096498
    55  H    0.005218
    56  H   -0.006916
    57  H    0.031423
    58  H    0.007642
    59  H    0.063307
    60  H    0.137538
    61  H    0.022770
    62  H    0.017038
    63  H   -0.005106
    64  H   -0.037932
    65  H    0.036789
    66  H    0.040322
    67  H    0.054816
    68  H    0.060486
    69  H   -0.080936
    70  H    0.017969
    71  H    0.028668
    72  H    0.241785
    73  H    0.052600
    74  H    0.045560
    75  H    0.039722
    76  H    0.061049
    77  H    0.156315
    78  H    0.033724
    79  H    0.068558
 Sum of Mulliken charges =  -0.00000

 Dipole moment (field-independent basis, Debye):
    X=              3.3038    Y=              3.5824    Z=             -1.6581  Tot=              5.1476
 Quadrupole moment (field-independent basis, Debye-Ang):
   XX=           -229.9659   YY=           -231.7153   ZZ=           -273.6229
   XY=              4.5264   XZ=            -22.4439   YZ=             -9.5006

 Normal termination of Gaussian 16 at Sat Jul 27 17:39:42 2019.
