 Gaussian 16, Revision A.03,
 Gaussian 16:  ES64L-G16RevA.03 25-Dec-2016

 --------------------------
 # td=(NStates=1) B3LYP/SVP
 --------------------------

 --
 TD
 --
 Symbolic Z-matrix:
 Charge =  0 Multiplicity = 1

                         Standard orientation:
 ---------------------------------------------------------------------
 Center     Atomic      Atomic             Coordinates (Angstroms)
 Number     Number       Type             X           Y           Z
 ---------------------------------------------------------------------
      1          8           0       -3.096336   -1.978677   -2.621372
      2          8           0        3.038211    3.544077    2.573017
      3          8           0        3.441100    2.107313    4.345360
      4          8           0        7.720965   -1.627185   -0.412656
      5          8           0        6.737172   -3.033440   -1.860688
      6          8           0       -2.605057    1.790729    1.261131
      7          7           0       -0.297344   -2.273187    1.226198
      8          7           0       -2.741316   -1.167463   -0.446861
      9          7           0        1.139433   -0.068958   -0.722508
     10          7           0       -1.015088    1.371652   -0.283125
     11          6           0       -3.397666   -1.134102    0.764203
     12          6           0       -2.713256   -2.083790    1.879686
     13          6           0       -1.234059   -1.726428    2.047995
     14          6           0       -0.509175   -0.846387    2.978393
     15          6           0        0.777606   -0.889489    2.604346
     16          6           0        0.985471   -1.713830    1.469826
     17          6           0       -4.726229   -1.728361    0.386994
     18          6           0        1.852631    0.024734    3.116612
     19          6           0       -4.736393   -2.120405   -0.882327
     20          6           0        2.125879   -1.944810    0.580476
     21          6           0        2.164170   -1.023210   -0.555121
     22          6           0       -3.421308   -1.846233   -1.451909
     23          6           0        3.040784   -0.895380   -1.607096
     24          6           0       -1.295065    0.058213    3.941051
     25          6           0       -5.776558   -1.990483    1.465105
     26          6           0        2.594895    0.137024   -2.457646
     27          6           0        1.898559    1.436172    2.462576
     28          6           0        1.346477    0.642661   -1.847638
     29          6           0        4.313386   -1.712155   -1.816545
     30          6           0       -5.813600   -2.696068   -1.814945
     31          6           0        5.523645   -1.132169   -0.960989
     32          6           0        2.955688    0.539415   -3.866499
     33          6           0        0.544620    1.751931   -2.204254
     34          6           0        2.924569    2.281978    3.251508
     35          6           0       -0.561744    2.048045   -1.423833
     36          6           0       -6.916688   -3.406046   -1.280121
     37          6           0        6.713770   -2.113600   -1.154562
     38          6           0       -1.437111    3.297860   -1.629713
     39          6           0       -2.320671    3.318787   -0.607959
     40          6           0       -2.049524    2.071016    0.265422
     41          6           0       -1.291554    4.197208   -2.767821
     42          6           0       -3.445237    4.242379   -0.295941
     43          6           0       -2.044783    5.286414   -2.951969
     44          1           0       -3.210213   -0.115437    1.308978
     45          1           0       -2.854161   -3.160315    1.739498
     46          1           0       -3.066725   -1.947241    2.944764
     47          1           0       -0.229046   -2.763439    0.251895
     48          1           0       -1.811201   -0.565942   -0.670276
     49          1           0        1.742132    0.120947    4.174466
     50          1           0        2.924904   -0.254397    3.099378
     51          1           0        2.976881   -2.671679    0.732103
     52          1           0       -2.108487   -0.586906    4.393185
     53          1           0       -0.485414    0.525478    4.590248
     54          1           0       -1.811844    0.663121    3.138679
     55          1           0       -5.702842   -1.202385    2.255155
     56          1           0       -5.907189   -2.902064    1.994906
     57          1           0       -6.825267   -1.812075    1.128418
     58          1           0        2.230434    1.485923    1.380210
     59          1           0        1.029827    1.835357    2.588375
     60          1           0        0.338106    0.103095   -0.149694
     61          1           0        4.754434   -1.734515   -2.818137
     62          1           0        4.138479   -2.731229   -1.526018
     63          1           0       -5.789638   -2.666805   -2.770712
     64          1           0        5.228577   -1.123203    0.107161
     65          1           0        5.772352   -0.170930   -1.245942
     66          1           0        3.984676   -0.033605   -4.094987
     67          1           0        3.209140    1.745478   -3.851305
     68          1           0        2.244650    0.239464   -4.640763
     69          1           0        0.840215    2.605029   -2.860957
     70          1           0       -7.058443   -3.578261   -0.230622
     71          1           0       -7.817337   -3.713922   -1.987689
     72          1           0        3.666806    4.058142    3.104364
     73          1           0       -0.596101    3.800072   -3.607436
     74          1           0       -4.329999    4.182935   -1.042578
     75          1           0       -3.872418    4.034708    0.624867
     76          1           0       -3.139946    5.481179   -0.179364
     77          1           0        8.489656   -2.192428   -0.456827
     78          1           0       -2.085721    5.905530   -3.781743
     79          1           0       -2.786695    5.698145   -2.159696
 ---------------------------------------------------------------------

 SCF Done:  E(RB3LYP) =  -1947.87807929     A.U. after   22 cycles

 Excitation energies and oscillator strengths:

 Excited State   1:      Singlet-A      0.7397 eV 1676.11 nm  f=0.0015  <S**2>=0.000
     155 ->156         0.70381
 This state for optimization and/or second-order correction.
 Total Energy, E(TD-HF/TD-DFT) =  -1947.85089525
 Copying the excited state density for this state as the 1-particle RhoCI density.

 The electronic state is 1-A.
 Alpha  occ. eigenvalues --  -19.19492 -19.16804 -19.15009 -19.13946 -19.12178
 Alpha  occ. eigenvalues --  -19.07710 -14.38133 -14.37604 -14.32711 -14.30721
 Alpha  occ. eigenvalues --  -10.33451 -10.32432 -10.27776 -10.27180 -10.26600
 Alpha  occ. eigenvalues --  -10.25765 -10.25440 -10.24991 -10.23661 -10.23390
 Alpha  occ. eigenvalues --  -10.23157 -10.22260 -10.21941 -10.21753 -10.21595
 Alpha  occ. eigenvalues --  -10.21306 -10.21041 -10.20991 -10.20724 -10.20519
 Alpha  occ. eigenvalues --  -10.20419 -10.20106 -10.20071 -10.19766 -10.19609
 Alpha  occ. eigenvalues --  -10.19353 -10.19029 -10.18777 -10.18654 -10.18435
 Alpha  occ. eigenvalues --  -10.18230 -10.17216 -10.17110  -1.12632  -1.07070
 Alpha  occ. eigenvalues --   -1.05740  -1.04699  -1.00745  -1.00095  -0.99404
 Alpha  occ. eigenvalues --   -0.95804  -0.92771  -0.92350  -0.84182  -0.81986
 Alpha  occ. eigenvalues --   -0.81177  -0.80697  -0.79270  -0.78958  -0.78027
 Alpha  occ. eigenvalues --   -0.76474  -0.75719  -0.75102  -0.73877  -0.72700
 Alpha  occ. eigenvalues --   -0.70359  -0.69906  -0.69694  -0.69214  -0.67459
 Alpha  occ. eigenvalues --   -0.66063  -0.65400  -0.62875  -0.62209  -0.60902
 Alpha  occ. eigenvalues --   -0.59554  -0.58849  -0.58130  -0.57949  -0.57298
 Alpha  occ. eigenvalues --   -0.55786  -0.55216  -0.54990  -0.53475  -0.53134
 Alpha  occ. eigenvalues --   -0.52929  -0.51889  -0.51741  -0.50272  -0.50018
 Alpha  occ. eigenvalues --   -0.49403  -0.49043  -0.48366  -0.48027  -0.47901
 Alpha  occ. eigenvalues --   -0.47469  -0.46822  -0.46296  -0.45968  -0.45680
 Alpha  occ. eigenvalues --   -0.45598  -0.44861  -0.44530  -0.44268  -0.44010
 Alpha  occ. eigenvalues --   -0.43973  -0.43481  -0.43283  -0.42966  -0.42257
 Alpha  occ. eigenvalues --   -0.41554  -0.41309  -0.40814  -0.40696  -0.40558
 Alpha  occ. eigenvalues --   -0.40124  -0.39995  -0.39914  -0.39753  -0.39665
 Alpha  occ. eigenvalues --   -0.39255  -0.39134  -0.38817  -0.38503  -0.38245
 Alpha  occ. eigenvalues --   -0.37765  -0.37461  -0.37369  -0.36983  -0.36470
 Alpha  occ. eigenvalues --   -0.36454  -0.36334  -0.36199  -0.35037  -0.34516
 Alpha  occ. eigenvalues --   -0.34391  -0.34077  -0.33370  -0.33005  -0.32143
 Alpha  occ. eigenvalues --   -0.31818  -0.30722  -0.29207  -0.28986  -0.28707
 Alpha  occ. eigenvalues --   -0.28617  -0.27339  -0.25948  -0.23958  -0.23770
 Alpha  occ. eigenvalues --   -0.23598  -0.23245  -0.22587  -0.22380  -0.18700
 Alpha virt. eigenvalues --   -0.13155  -0.07687  -0.03950  -0.01967  -0.00951
 Alpha virt. eigenvalues --    0.00086   0.00841   0.01593   0.02224   0.03189
 Alpha virt. eigenvalues --    0.03627   0.04285   0.04911   0.05074   0.05205

 Mulliken charges:
               1
     1  O   -0.244729
     2  O   -0.247441
     3  O   -0.220352
     4  O   -0.170383
     5  O   -0.160855
     6  O   -0.166182
     7  N   -0.096187
     8  N   -0.238908
     9  N   -0.064711
    10  N   -0.345735
    11  C    0.037180
    12  C    0.175287
    13  C   -0.130001
    14  C   -0.140932
    15  C   -0.044963
    16  C   -0.047835
    17  C   -0.107903
    18  C    0.048397
    19  C   -0.025408
    20  C   -0.071316
    21  C    0.064894
    22  C    0.129185
    23  C   -0.052618
    24  C    0.081325
    25  C    0.066128
    26  C   -0.124411
    27  C    0.091448
    28  C    0.128010
    29  C    0.104363
    30  C    0.090575
    31  C   -0.020242
    32  C    0.012311
    33  C   -0.109832
    34  C    0.144660
    35  C    0.090477
    36  C   -0.072266
    37  C    0.124306
    38  C    0.056412
    39  C   -0.192357
    40  C    0.162064
    41  C   -0.019027
    42  C    0.029496
    43  C   -0.025253
    44  H    0.078323
    45  H   -0.014629
    46  H   -0.003987
    47  H    0.155180
    48  H    0.172842
    49  H   -0.001677
    50  H   -0.014589
    51  H    0.032025
    52  H    0.018183
    53  H    0.031057
    54  H    0.066952
    55  H    0.005408
    56  H    0.025881
    57  H    0.016767
    58  H    0.046585
    59  H   -0.014064
    60  H    0.164951
    61  H    0.018548
    62  H    0.011355
    63  H   -0.071477
    64  H    0.039709
    65  H    0.020216
    66  H    0.035475
    67  H    0.058087
    68  H    0.065889
    69  H    0.014679
    70  H    0.011720
    71  H    0.039392
    72  H    0.171269
    73  H    0.017308
    74  H    0.052613
    75  H   -0.000750
    76  H    0.049663
    77  H    0.169782
    78  H    0.003006
    79  H    0.031634
 Sum of Mulliken charges =  -0.00000

 Dipole moment (field-independent basis, Debye):
    X=              4.7404    Y=              2.0442    Z=             -1.5854  Tot=              5.4003
 Quadrupole moment (field-independent basis, Debye-Ang):
   XX=           -223.3451   YY=           -244.4652   ZZ=           -267.4482
   XY=             -5.7843   XZ=            -18.6213   YZ=            -19.5414

 Normal termination of Gaussian 16 at Mon Jul 29 08:25:42 2019.
