 Gaussian 16, Revision A.03,
 Gaussian 16:  ES64L-G16RevA.03 25-Dec-2016

 --------------------------
 # td=(NStates=1) B3LYP/SVP
 --------------------------

 --
 TD
 --
 Symbolic Z-matrix:
 Charge =  0 Multiplicity = 1

                         Standard orientation:
 ---------------------------------------------------------------------
 Center     Atomic      Atomic             Coordinates (Angstroms)
 Number     Number       Type             X           Y           Z
 ---------------------------------------------------------------------
      1          8           0        5.164983   -0.460346   -3.437399
      2          8           0       -3.124098   -2.916118    3.241212
      3          8           0       -3.458026   -0.731037    3.014681
      4          8           0       -1.322436    7.383817    1.381651
      5          8           0       -0.143134    6.930926   -0.523277
      6          8           0       -1.889068   -3.913507   -0.009087
      7          7           0        2.411125    0.847394    0.741545
      8          7           0        4.302427   -0.702281   -1.207517
      9          7           0       -1.836594    0.758105   -0.194048
     10          7           0       -2.658010   -1.784200   -0.560325
     11          6           0        4.842883   -1.274008    0.002320
     12          6           0        4.440200   -0.541549    1.345006
     13          6           0        2.999023   -0.059362    1.590303
     14          6           0        1.965248   -0.577335    2.335409
     15          6           0        0.707917   -0.029719    1.958475
     16          6           0        1.111956    0.928261    0.919550
     17          6           0        6.261937   -1.464154   -0.202032
     18          6           0       -0.597435   -0.302953    2.591949
     19          6           0        6.571814   -0.842638   -1.485022
     20          6           0        0.293732    1.870106    0.182517
     21          6           0       -1.043554    1.917210   -0.209242
     22          6           0        5.326811   -0.636903   -2.168322
     23          6           0       -1.888822    2.980626   -0.871485
     24          6           0        2.067923   -1.872475    3.285652
     25          6           0        7.161437   -2.081574    0.809846
     26          6           0       -2.988594    2.449030   -1.371510
     27          6           0       -1.249284   -1.754339    2.643649
     28          6           0       -2.989597    1.035399   -0.948711
     29          6           0       -1.510504    4.374677   -0.916995
     30          6           0        7.882566   -0.756163   -2.154033
     31          6           0       -1.580892    5.173119    0.415588
     32          6           0       -4.172571    3.216834   -1.924056
     33          6           0       -3.827089   -0.017611   -1.420844
     34          6           0       -2.716528   -1.642646    3.075126
     35          6           0       -3.766091   -1.378646   -1.237491
     36          6           0        9.099873   -0.843400   -1.621659
     37          6           0       -0.977294    6.590929    0.371796
     38          6           0       -4.616997   -2.575719   -1.569806
     39          6           0       -4.059751   -3.676909   -1.108033
     40          6           0       -2.751365   -3.215132   -0.484448
     41          6           0       -5.942772   -2.282692   -2.239431
     42          6           0       -4.525986   -5.101250   -1.220084
     43          6           0       -6.840723   -3.189968   -2.620505
     44          1           0        4.393705   -2.277677    0.137854
     45          1           0        4.933820    0.196518    1.297216
     46          1           0        4.682695   -1.120656    2.361081
     47          1           0        2.946008    1.376146    0.040741
     48          1           0        3.272271   -0.854675   -1.425485
     49          1           0       -0.522163    0.019145    3.534786
     50          1           0       -1.388360    0.247459    2.147481
     51          1           0        0.872795    2.781178    0.027023
     52          1           0        3.086881   -2.250026    3.403782
     53          1           0        1.967406   -1.444402    4.361461
     54          1           0        1.449856   -2.624937    2.891456
     55          1           0        6.605366   -2.857883    1.349070
     56          1           0        7.575301   -1.536372    1.558114
     57          1           0        7.773244   -2.766975    0.298188
     58          1           0       -1.293782   -2.195915    1.637651
     59          1           0       -0.624703   -2.473787    3.272117
     60          1           0       -1.725754   -0.230770    0.020414
     61          1           0       -2.125040    4.881734   -1.565880
     62          1           0       -0.402743    4.558936   -1.162432
     63          1           0        7.719143   -0.901273   -3.346957
     64          1           0       -1.141487    4.512808    1.138702
     65          1           0       -2.726100    5.194910    0.870260
     66          1           0       -4.072118    4.230633   -2.004768
     67          1           0       -4.911312    2.971457   -1.105501
     68          1           0       -4.511499    2.747175   -2.924830
     69          1           0       -4.678478    0.413004   -2.108579
     70          1           0        9.308992   -0.646876   -0.666212
     71          1           0        9.933854   -1.041554   -2.346508
     72          1           0       -4.047788   -3.096010    3.513679
     73          1           0       -6.233479   -1.279437   -2.432548
     74          1           0       -5.549278   -5.123042   -0.735935
     75          1           0       -4.743168   -5.363228   -2.329485
     76          1           0       -3.860765   -5.762373   -0.626213
     77          1           0       -0.843288    8.119837    1.254079
     78          1           0       -7.900308   -2.870336   -3.004739
     79          1           0       -6.702950   -4.230002   -2.649776
 ---------------------------------------------------------------------

 SCF Done:  E(RB3LYP) =  -1947.86394267     A.U. after   16 cycles

 Excitation energies and oscillator strengths:

 Excited State   1:      Singlet-A      2.0856 eV  594.48 nm  f=0.4393  <S**2>=0.000
     155 ->156         0.70275
     155 <-156        -0.11367
 This state for optimization and/or second-order correction.
 Total Energy, E(TD-HF/TD-DFT) =  -1947.78729808
 Copying the excited state density for this state as the 1-particle RhoCI density.

 The electronic state is 1-A.
 Alpha  occ. eigenvalues --  -19.20335 -19.15916 -19.13655 -19.11691 -19.10331
 Alpha  occ. eigenvalues --  -19.09391 -14.38578 -14.36354 -14.36353 -14.28562
 Alpha  occ. eigenvalues --  -10.34189 -10.30600 -10.28648 -10.26311 -10.25233
 Alpha  occ. eigenvalues --  -10.24973 -10.24854 -10.23350 -10.23152 -10.22749
 Alpha  occ. eigenvalues --  -10.22694 -10.22357 -10.21677 -10.21411 -10.21156
 Alpha  occ. eigenvalues --  -10.21121 -10.21028 -10.20982 -10.20816 -10.20312
 Alpha  occ. eigenvalues --  -10.20307 -10.20169 -10.20147 -10.20112 -10.19718
 Alpha  occ. eigenvalues --  -10.19581 -10.19566 -10.19472 -10.19108 -10.19006
 Alpha  occ. eigenvalues --  -10.18987 -10.18815 -10.17400  -1.13052  -1.08485
 Alpha  occ. eigenvalues --   -1.01664  -1.00067  -0.99997  -0.99967  -0.99296
 Alpha  occ. eigenvalues --   -0.96989  -0.93199  -0.90980  -0.83899  -0.82071
 Alpha  occ. eigenvalues --   -0.81126  -0.80599  -0.80277  -0.79453  -0.77964
 Alpha  occ. eigenvalues --   -0.77152  -0.75964  -0.75664  -0.74314  -0.72902
 Alpha  occ. eigenvalues --   -0.72437  -0.70938  -0.69855  -0.69512  -0.69128
 Alpha  occ. eigenvalues --   -0.67970  -0.66985  -0.64583  -0.62484  -0.61401
 Alpha  occ. eigenvalues --   -0.60531  -0.59691  -0.58363  -0.57301  -0.56533
 Alpha  occ. eigenvalues --   -0.56148  -0.55721  -0.55362  -0.53961  -0.53352
 Alpha  occ. eigenvalues --   -0.52399  -0.51732  -0.51517  -0.50848  -0.50106
 Alpha  occ. eigenvalues --   -0.49835  -0.48871  -0.48394  -0.47887  -0.47622
 Alpha  occ. eigenvalues --   -0.47393  -0.46824  -0.46644  -0.46374  -0.46218
 Alpha  occ. eigenvalues --   -0.45600  -0.45195  -0.44722  -0.44119  -0.43894
 Alpha  occ. eigenvalues --   -0.43335  -0.43264  -0.43123  -0.42925  -0.42609
 Alpha  occ. eigenvalues --   -0.42457  -0.42153  -0.41631  -0.41469  -0.41271
 Alpha  occ. eigenvalues --   -0.40705  -0.40653  -0.40169  -0.39968  -0.39542
 Alpha  occ. eigenvalues --   -0.39450  -0.38868  -0.38506  -0.38209  -0.38129
 Alpha  occ. eigenvalues --   -0.37748  -0.37411  -0.37167  -0.36928  -0.36631
 Alpha  occ. eigenvalues --   -0.36075  -0.35590  -0.35339  -0.35113  -0.34981
 Alpha  occ. eigenvalues --   -0.34154  -0.33673  -0.32972  -0.32521  -0.31396
 Alpha  occ. eigenvalues --   -0.31103  -0.30763  -0.29046  -0.28397  -0.27562
 Alpha  occ. eigenvalues --   -0.27308  -0.26374  -0.26205  -0.24851  -0.24569
 Alpha  occ. eigenvalues --   -0.24158  -0.23837  -0.23663  -0.22160  -0.18546
 Alpha virt. eigenvalues --   -0.10355  -0.07182  -0.05568  -0.02500  -0.00339
 Alpha virt. eigenvalues --    0.00074   0.01977   0.02149   0.02761   0.03534
 Alpha virt. eigenvalues --    0.04418   0.04748   0.05280   0.05572   0.05685

 Mulliken charges:
               1
     1  O   -0.296597
     2  O   -0.205547
     3  O   -0.184868
     4  O   -0.082425
     5  O   -0.283984
     6  O   -0.192503
     7  N   -0.015683
     8  N   -0.221589
     9  N   -0.101398
    10  N   -0.341826
    11  C    0.108879
    12  C    0.345569
    13  C   -0.136489
    14  C   -0.168186
    15  C   -0.074910
    16  C    0.006958
    17  C   -0.212777
    18  C    0.150812
    19  C   -0.058203
    20  C   -0.084023
    21  C    0.106997
    22  C    0.183541
    23  C   -0.020299
    24  C    0.090985
    25  C    0.193266
    26  C   -0.134522
    27  C   -0.068820
    28  C    0.054088
    29  C    0.103944
    30  C   -0.053321
    31  C   -0.062502
    32  C    0.107902
    33  C   -0.107505
    34  C    0.134150
    35  C    0.107106
    36  C    0.011343
    37  C    0.171003
    38  C    0.109283
    39  C   -0.225984
    40  C    0.155847
    41  C    0.011176
    42  C    0.065522
    43  C   -0.048111
    44  H    0.017602
    45  H   -0.134981
    46  H    0.026168
    47  H    0.121547
    48  H    0.159157
    49  H   -0.029453
    50  H   -0.013064
    51  H   -0.016597
    52  H   -0.021069
    53  H    0.027315
    54  H    0.051196
    55  H   -0.014403
    56  H    0.022817
    57  H    0.014601
    58  H    0.073544
    59  H    0.036051
    60  H    0.141727
    61  H   -0.022299
    62  H    0.041846
    63  H    0.056075
    64  H    0.038012
    65  H    0.041261
    66  H   -0.003051
    67  H    0.048565
    68  H    0.046720
    69  H   -0.013891
    70  H   -0.016519
    71  H    0.039306
    72  H    0.179427
    73  H   -0.022503
    74  H    0.029317
    75  H    0.054800
    76  H    0.037850
    77  H    0.136158
    78  H    0.034822
    79  H   -0.004352
 Sum of Mulliken charges =  -0.00000

 Dipole moment (field-independent basis, Debye):
    X=             -0.3430    Y=              1.5900    Z=              4.4620  Tot=              4.7493
 Quadrupole moment (field-independent basis, Debye-Ang):
   XX=           -214.5317   YY=           -237.5876   ZZ=           -264.2746
   XY=            -11.1330   XZ=             35.4813   YZ=              1.4113

 Normal termination of Gaussian 16 at Thu Oct  3 06:47:01 2019.
