 Gaussian 16, Revision A.03,
 Gaussian 16:  ES64L-G16RevA.03 25-Dec-2016

 --------------------------
 # td=(NStates=1) B3LYP/SVP
 --------------------------

 --
 TD
 --
 Symbolic Z-matrix:
 Charge =  0 Multiplicity = 1

                         Standard orientation:
 ---------------------------------------------------------------------
 Center     Atomic      Atomic             Coordinates (Angstroms)
 Number     Number       Type             X           Y           Z
 ---------------------------------------------------------------------
      1          8           0        5.322141   -0.226258   -3.330084
      2          8           0       -3.130178   -2.803910    3.157807
      3          8           0       -3.422389   -0.634969    2.995364
      4          8           0       -1.707077    7.243784    1.217525
      5          8           0       -0.576844    6.881464   -0.651381
      6          8           0       -1.589944   -4.002621    0.274062
      7          7           0        2.304071    1.039817    0.498377
      8          7           0        4.331107   -0.521332   -1.227931
      9          7           0       -1.827025    0.774339   -0.392978
     10          7           0       -2.409407   -1.966298   -0.507020
     11          6           0        4.773305   -1.083088    0.133871
     12          6           0        4.454161   -0.154678    1.247672
     13          6           0        2.956416    0.093802    1.314499
     14          6           0        1.979236   -0.451633    2.222430
     15          6           0        0.748207    0.096394    1.749313
     16          6           0        0.994151    1.050660    0.758257
     17          6           0        6.194429   -1.334168   -0.067820
     18          6           0       -0.623610   -0.023493    2.515013
     19          6           0        6.559756   -0.986622   -1.295926
     20          6           0        0.085811    1.984384    0.016652
     21          6           0       -1.142759    1.878799   -0.276778
     22          6           0        5.380109   -0.556799   -2.121043
     23          6           0       -2.046964    2.885400   -0.956263
     24          6           0        2.214580   -1.365366    3.290715
     25          6           0        7.030547   -1.924484    1.028365
     26          6           0       -3.239865    2.289173   -1.224229
     27          6           0       -1.158716   -1.439529    2.658293
     28          6           0       -3.052061    0.835472   -1.063324
     29          6           0       -1.657585    4.319187   -0.956635
     30          6           0        7.823464   -0.949186   -1.984178
     31          6           0       -1.879116    5.005771    0.279083
     32          6           0       -4.510061    2.904216   -1.922747
     33          6           0       -3.838095   -0.238324   -1.463760
     34          6           0       -2.703770   -1.554771    3.024357
     35          6           0       -3.550620   -1.678581   -1.046142
     36          6           0        9.124944   -0.743291   -1.509524
     37          6           0       -1.321375    6.406088    0.237201
     38          6           0       -4.448201   -2.776496   -1.431172
     39          6           0       -3.696482   -3.882754   -0.958153
     40          6           0       -2.470717   -3.393347   -0.351374
     41          6           0       -5.780957   -2.699954   -2.054585
     42          6           0       -3.972484   -5.307473   -0.994049
     43          6           0       -6.411740   -3.711355   -2.676788
     44          1           0        4.121987   -1.922596    0.307051
     45          1           0        4.888676    0.855731    0.975171
     46          1           0        4.689035   -0.570388    1.975983
     47          1           0        2.987957    1.711756    0.074251
     48          1           0        3.271127   -0.116606   -1.325990
     49          1           0       -0.455473    0.431547    3.500931
     50          1           0       -1.255662    0.797167    1.808871
     51          1           0        0.434581    3.084735   -0.167884
     52          1           0        3.197069   -1.244538    3.776861
     53          1           0        1.344995   -1.284271    4.134316
     54          1           0        2.107009   -2.449201    2.784852
     55          1           0        6.247447   -2.484329    1.734046
     56          1           0        7.506790   -1.103742    1.512445
     57          1           0        7.726102   -2.762305    0.594615
     58          1           0       -0.937871   -2.106467    1.785927
     59          1           0       -0.604374   -1.955400    3.493818
     60          1           0       -1.713111   -0.230077   -0.043204
     61          1           0       -2.128907    4.799582   -1.856244
     62          1           0       -0.622553    4.475353   -1.199692
     63          1           0        7.516364   -0.646390   -3.072341
     64          1           0       -1.707485    4.615087    1.206327
     65          1           0       -3.140979    5.177663    0.430820
     66          1           0       -4.161811    3.920219   -2.120898
     67          1           0       -5.224487    2.567467   -1.237018
     68          1           0       -4.757584    2.435592   -3.058646
     69          1           0       -4.745660   -0.004951   -1.933861
     70          1           0        9.675884   -0.677247   -0.484304
     71          1           0        9.842270   -0.917944   -2.175681
     72          1           0       -4.055569   -2.798866    3.409102
     73          1           0       -6.335102   -1.716106   -1.722755
     74          1           0       -4.994771   -5.628223   -0.555444
     75          1           0       -4.050312   -5.766355   -2.136509
     76          1           0       -3.126198   -5.929536   -0.594423
     77          1           0       -1.060076    8.051410    1.199542
     78          1           0       -7.566775   -3.720962   -2.986083
     79          1           0       -5.753045   -4.796140   -2.660812
 ---------------------------------------------------------------------

 SCF Done:  E(RB3LYP) =  -1947.76388304     A.U. after   16 cycles

 Excitation energies and oscillator strengths:

 Excited State   1:      Singlet-A      1.8637 eV  665.25 nm  f=0.2863  <S**2>=0.000
     155 ->156         0.70348
 This state for optimization and/or second-order correction.
 Total Energy, E(TD-HF/TD-DFT) =  -1947.69539293
 Copying the excited state density for this state as the 1-particle RhoCI density.

 The electronic state is 1-A.
 Alpha  occ. eigenvalues --  -19.19113 -19.17162 -19.12887 -19.12022 -19.11318
 Alpha  occ. eigenvalues --  -19.09109 -14.38813 -14.35483 -14.35283 -14.30039
 Alpha  occ. eigenvalues --  -10.33003 -10.30564 -10.27908 -10.27671 -10.24671
 Alpha  occ. eigenvalues --  -10.24513 -10.23731 -10.23088 -10.22848 -10.22829
 Alpha  occ. eigenvalues --  -10.22750 -10.22473 -10.22421 -10.21932 -10.21876
 Alpha  occ. eigenvalues --  -10.21649 -10.21288 -10.21243 -10.21190 -10.21145
 Alpha  occ. eigenvalues --  -10.21061 -10.20869 -10.20772 -10.20633 -10.20378
 Alpha  occ. eigenvalues --  -10.20277 -10.20178 -10.19586 -10.19542 -10.19398
 Alpha  occ. eigenvalues --  -10.19221 -10.18957 -10.18824  -1.10266  -1.09405
 Alpha  occ. eigenvalues --   -1.01808  -1.01101  -0.99696  -0.99061  -0.98700
 Alpha  occ. eigenvalues --   -0.98469  -0.93541  -0.92249  -0.84074  -0.82481
 Alpha  occ. eigenvalues --   -0.81737  -0.81259  -0.81141  -0.80494  -0.78501
 Alpha  occ. eigenvalues --   -0.77026  -0.76190  -0.75162  -0.74694  -0.72374
 Alpha  occ. eigenvalues --   -0.71245  -0.70502  -0.70222  -0.68739  -0.68332
 Alpha  occ. eigenvalues --   -0.66198  -0.66070  -0.64832  -0.61353  -0.61116
 Alpha  occ. eigenvalues --   -0.60235  -0.60042  -0.58369  -0.57421  -0.56832
 Alpha  occ. eigenvalues --   -0.56300  -0.55209  -0.54739  -0.54012  -0.53038
 Alpha  occ. eigenvalues --   -0.52483  -0.51648  -0.51098  -0.50839  -0.49496
 Alpha  occ. eigenvalues --   -0.48599  -0.48309  -0.47993  -0.47841  -0.47497
 Alpha  occ. eigenvalues --   -0.47039  -0.46962  -0.46719  -0.46233  -0.45908
 Alpha  occ. eigenvalues --   -0.45128  -0.44789  -0.44552  -0.44474  -0.43926
 Alpha  occ. eigenvalues --   -0.43642  -0.43381  -0.43194  -0.42900  -0.42715
 Alpha  occ. eigenvalues --   -0.42084  -0.41509  -0.41356  -0.41226  -0.41127
 Alpha  occ. eigenvalues --   -0.41051  -0.40730  -0.40430  -0.39700  -0.39515
 Alpha  occ. eigenvalues --   -0.39273  -0.39017  -0.38690  -0.38567  -0.38052
 Alpha  occ. eigenvalues --   -0.37903  -0.37795  -0.37636  -0.37342  -0.36950
 Alpha  occ. eigenvalues --   -0.36277  -0.35203  -0.34770  -0.34254  -0.33850
 Alpha  occ. eigenvalues --   -0.33711  -0.33438  -0.32117  -0.32021  -0.31715
 Alpha  occ. eigenvalues --   -0.30834  -0.30611  -0.29660  -0.28951  -0.28460
 Alpha  occ. eigenvalues --   -0.26863  -0.26058  -0.25263  -0.25188  -0.24964
 Alpha  occ. eigenvalues --   -0.24297  -0.23852  -0.23031  -0.22863  -0.19174
 Alpha virt. eigenvalues --   -0.11591  -0.06474  -0.05898  -0.02132  -0.01465
 Alpha virt. eigenvalues --    0.00262   0.01016   0.02458   0.02736   0.02941
 Alpha virt. eigenvalues --    0.03232   0.03738   0.04028   0.04249   0.04496

 Mulliken charges:
               1
     1  O   -0.268376
     2  O   -0.155134
     3  O   -0.187111
     4  O   -0.209253
     5  O   -0.273676
     6  O   -0.196631
     7  N   -0.084397
     8  N   -0.302973
     9  N   -0.095762
    10  N   -0.247282
    11  C    0.073506
    12  C    0.498889
    13  C   -0.227678
    14  C   -0.064425
    15  C   -0.132474
    16  C    0.056525
    17  C   -0.164068
    18  C    0.020900
    19  C   -0.073961
    20  C   -0.058818
    21  C    0.063901
    22  C    0.215446
    23  C   -0.084540
    24  C   -0.000896
    25  C    0.064535
    26  C   -0.140783
    27  C   -0.036606
    28  C    0.093494
    29  C    0.113275
    30  C   -0.037673
    31  C    0.004267
    32  C    0.073639
    33  C   -0.049774
    34  C    0.101552
    35  C    0.035559
    36  C   -0.029716
    37  C    0.143597
    38  C    0.023413
    39  C   -0.152886
    40  C    0.172950
    41  C   -0.013057
    42  C   -0.015288
    43  C   -0.108109
    44  H    0.011851
    45  H   -0.007726
    46  H   -0.201277
    47  H    0.142858
    48  H    0.173470
    49  H    0.014854
    50  H    0.043979
    51  H    0.006009
    52  H    0.026714
    53  H    0.042718
    54  H    0.059569
    55  H    0.032151
    56  H    0.042637
    57  H    0.062112
    58  H    0.073482
    59  H    0.015813
    60  H    0.174574
    61  H    0.021000
    62  H    0.012882
    63  H    0.058544
    64  H    0.016152
    65  H    0.056787
    66  H    0.023986
    67  H    0.036759
    68  H    0.055025
    69  H   -0.057165
    70  H    0.032980
    71  H   -0.002663
    72  H    0.167317
    73  H    0.036675
    74  H    0.047854
    75  H    0.050108
    76  H    0.041156
    77  H    0.220473
    78  H    0.066297
    79  H    0.057945
 Sum of Mulliken charges =  -0.00000

 Dipole moment (field-independent basis, Debye):
    X=             -2.4044    Y=              1.2664    Z=              4.9083  Tot=              5.6104
 Quadrupole moment (field-independent basis, Debye-Ang):
   XX=           -221.4192   YY=           -243.6156   ZZ=           -265.6403
   XY=              4.5599   XZ=             37.6654   YZ=              5.8468

 Normal termination of Gaussian 16 at Mon Sep 23 11:01:24 2019.
