 Gaussian 16, Revision A.03,
 Gaussian 16:  ES64L-G16RevA.03 25-Dec-2016

 --------------------------
 # td=(NStates=1) B3LYP/SVP
 --------------------------

 --
 TD
 --
 Symbolic Z-matrix:
 Charge =  0 Multiplicity = 1

                         Standard orientation:
 ---------------------------------------------------------------------
 Center     Atomic      Atomic             Coordinates (Angstroms)
 Number     Number       Type             X           Y           Z
 ---------------------------------------------------------------------
      1          8           0       -3.272983   -0.993896   -2.911543
      2          8           0        3.257699    2.771517    3.058269
      3          8           0        3.715425    1.154737    4.404227
      4          8           0        7.758097   -1.334952   -0.923172
      5          8           0        6.605681   -2.888525   -2.170845
      6          8           0       -2.511838    1.463372    1.664855
      7          7           0       -0.200814   -2.523686    0.687588
      8          7           0       -2.756581   -1.126025   -0.611372
      9          7           0        1.181320    0.217859   -0.616110
     10          7           0       -0.994504    1.394493   -0.061753
     11          6           0       -3.378392   -1.370817    0.570625
     12          6           0       -2.596898   -2.493056    1.451342
     13          6           0       -1.190301   -2.128144    1.679434
     14          6           0       -0.589380   -1.461285    2.721924
     15          6           0        0.759871   -1.329569    2.445706
     16          6           0        0.934638   -1.972733    1.163738
     17          6           0       -4.709749   -1.866817    0.058834
     18          6           0        1.828677   -0.656931    3.154341
     19          6           0       -4.738227   -1.877836   -1.228024
     20          6           0        2.086187   -1.848066    0.225909
     21          6           0        2.118108   -0.728185   -0.699719
     22          6           0       -3.570893   -1.287149   -1.790312
     23          6           0        2.969183   -0.449572   -1.874063
     24          6           0       -1.311797   -0.838108    3.889632
     25          6           0       -5.716568   -2.283476    1.110812
     26          6           0        2.457868    0.653025   -2.401537
     27          6           0        2.029471    0.767980    2.672232
     28          6           0        1.350387    1.058027   -1.667706
     29          6           0        4.197828   -1.343111   -2.176767
     30          6           0       -5.798123   -2.208205   -2.175438
     31          6           0        5.446191   -0.948361   -1.295970
     32          6           0        3.041400    1.353424   -3.565335
     33          6           0        0.428453    2.164115   -1.893097
     34          6           0        3.004765    1.583365    3.499044
     35          6           0       -0.669410    2.384709   -1.119136
     36          6           0       -6.773393   -3.187839   -1.941649
     37          6           0        6.624964   -1.889847   -1.559003
     38          6           0       -1.484991    3.533783   -0.996868
     39          6           0       -2.339895    3.334735    0.069527
     40          6           0       -2.046224    2.001484    0.625696
     41          6           0       -1.392998    4.686901   -1.845243
     42          6           0       -3.435724    4.240225    0.681976
     43          6           0       -2.064645    5.869019   -1.728477
     44          1           0       -3.461952   -0.473197    1.217133
     45          1           0       -2.537934   -3.511818    0.969517
     46          1           0       -3.163978   -2.641140    2.504890
     47          1           0       -0.449141   -2.755984   -0.239963
     48          1           0       -1.918475   -0.417106   -0.684158
     49          1           0        1.634185   -0.618448    4.333862
     50          1           0        2.720699   -1.342922    2.929440
     51          1           0        2.777932   -2.710457   -0.121317
     52          1           0       -1.999605   -1.481297    4.257386
     53          1           0       -0.628210   -0.467049    4.734943
     54          1           0       -1.784372    0.117098    3.664613
     55          1           0       -5.563704   -1.780060    1.957029
     56          1           0       -5.419220   -3.346960    1.196219
     57          1           0       -6.691706   -2.610335    0.684341
     58          1           0        2.199876    0.887611    1.610055
     59          1           0        1.123684    1.164100    2.475710
     60          1           0        0.571390    0.448732    0.029416
     61          1           0        4.320013   -1.554198   -3.206124
     62          1           0        3.947861   -2.515689   -1.850516
     63          1           0       -5.741235   -1.813695   -3.103377
     64          1           0        5.224228   -0.995103   -0.230395
     65          1           0        5.791617    0.108184   -1.461914
     66          1           0        3.867949    0.952873   -3.842379
     67          1           0        3.318522    2.527227   -3.143360
     68          1           0        2.318840    1.499125   -4.307180
     69          1           0        0.625728    2.877240   -2.669006
     70          1           0       -6.940124   -3.575920   -0.786626
     71          1           0       -7.558928   -3.358204   -2.778544
     72          1           0        3.971825    3.131642    3.750246
     73          1           0       -0.732594    4.696177   -2.682887
     74          1           0       -4.387061    4.345888   -0.277447
     75          1           0       -4.110313    3.551051    1.417243
     76          1           0       -2.968800    5.209392    0.838154
     77          1           0        8.466502   -1.875792   -0.970785
     78          1           0       -1.761037    6.641159   -2.500727
     79          1           0       -2.907358    5.801244   -0.850855
 ---------------------------------------------------------------------

 SCF Done:  E(RB3LYP) =  -1947.78542225     A.U. after   22 cycles

 Excitation energies and oscillator strengths:

 Excited State   1:      Singlet-A      0.8310 eV 1491.93 nm  f=0.0100  <S**2>=0.000
     155 ->156         0.70365
 This state for optimization and/or second-order correction.
 Total Energy, E(TD-HF/TD-DFT) =  -1947.75488240
 Copying the excited state density for this state as the 1-particle RhoCI density.

 The electronic state is 1-A.
 Alpha  occ. eigenvalues --  -19.18629 -19.17987 -19.15614 -19.11123 -19.10591
 Alpha  occ. eigenvalues --  -19.08891 -14.38059 -14.37056 -14.31210 -14.29653
 Alpha  occ. eigenvalues --  -10.34036 -10.31339 -10.27031 -10.26733 -10.26329
 Alpha  occ. eigenvalues --  -10.25987 -10.24520 -10.24230 -10.24101 -10.23403
 Alpha  occ. eigenvalues --  -10.23301 -10.23233 -10.22180 -10.21899 -10.21441
 Alpha  occ. eigenvalues --  -10.21413 -10.21408 -10.21387 -10.21153 -10.21069
 Alpha  occ. eigenvalues --  -10.20475 -10.20337 -10.20239 -10.20080 -10.19777
 Alpha  occ. eigenvalues --  -10.19287 -10.19259 -10.18624 -10.18383 -10.17374
 Alpha  occ. eigenvalues --  -10.17025 -10.16712 -10.16624  -1.11205  -1.10865
 Alpha  occ. eigenvalues --   -1.03966  -1.03268  -1.01710  -0.99897  -0.98341
 Alpha  occ. eigenvalues --   -0.96570  -0.93004  -0.90864  -0.85909  -0.82367
 Alpha  occ. eigenvalues --   -0.81750  -0.80779  -0.80469  -0.79420  -0.78544
 Alpha  occ. eigenvalues --   -0.76893  -0.75948  -0.74928  -0.74716  -0.73603
 Alpha  occ. eigenvalues --   -0.71404  -0.70836  -0.70410  -0.69878  -0.67741
 Alpha  occ. eigenvalues --   -0.67265  -0.65487  -0.63607  -0.62083  -0.60702
 Alpha  occ. eigenvalues --   -0.60325  -0.59914  -0.58816  -0.58619  -0.57565
 Alpha  occ. eigenvalues --   -0.56463  -0.55923  -0.55517  -0.53809  -0.52829
 Alpha  occ. eigenvalues --   -0.52285  -0.51526  -0.51474  -0.50912  -0.50282
 Alpha  occ. eigenvalues --   -0.49562  -0.49489  -0.48948  -0.48622  -0.48134
 Alpha  occ. eigenvalues --   -0.47855  -0.47411  -0.46939  -0.45939  -0.45611
 Alpha  occ. eigenvalues --   -0.45280  -0.44977  -0.44823  -0.44647  -0.43997
 Alpha  occ. eigenvalues --   -0.43881  -0.43448  -0.42762  -0.42634  -0.42095
 Alpha  occ. eigenvalues --   -0.41874  -0.41796  -0.41732  -0.41368  -0.41122
 Alpha  occ. eigenvalues --   -0.40723  -0.40510  -0.40089  -0.39968  -0.39658
 Alpha  occ. eigenvalues --   -0.39419  -0.39034  -0.38518  -0.38263  -0.37937
 Alpha  occ. eigenvalues --   -0.37719  -0.37574  -0.37246  -0.36711  -0.36429
 Alpha  occ. eigenvalues --   -0.36025  -0.35758  -0.35523  -0.35060  -0.34476
 Alpha  occ. eigenvalues --   -0.34333  -0.33688  -0.32891  -0.32180  -0.31442
 Alpha  occ. eigenvalues --   -0.31062  -0.30838  -0.29518  -0.29176  -0.28296
 Alpha  occ. eigenvalues --   -0.27616  -0.27320  -0.24877  -0.24742  -0.24522
 Alpha  occ. eigenvalues --   -0.23375  -0.23046  -0.22428  -0.21470  -0.18990
 Alpha virt. eigenvalues --   -0.13440  -0.08046  -0.03426  -0.01696  -0.01072
 Alpha virt. eigenvalues --    0.00462   0.00819   0.01962   0.02094   0.02767
 Alpha virt. eigenvalues --    0.03550   0.03881   0.04237   0.05013   0.05080

 Mulliken charges:
               1
     1  O   -0.201705
     2  O   -0.172851
     3  O   -0.268644
     4  O   -0.195649
     5  O   -0.158657
     6  O   -0.257939
     7  N   -0.064783
     8  N   -0.275759
     9  N    0.086283
    10  N   -0.400095
    11  C    0.095830
    12  C    0.107627
    13  C   -0.081346
    14  C   -0.078947
    15  C   -0.120378
    16  C   -0.011979
    17  C   -0.214769
    18  C    0.097007
    19  C   -0.033537
    20  C   -0.068628
    21  C   -0.004109
    22  C    0.137938
    23  C   -0.024254
    24  C    0.136232
    25  C    0.208722
    26  C   -0.166225
    27  C    0.042811
    28  C    0.082165
    29  C    0.035309
    30  C    0.030701
    31  C    0.006575
    32  C    0.189887
    33  C   -0.083549
    34  C    0.143267
    35  C    0.130939
    36  C   -0.098366
    37  C    0.145556
    38  C    0.133587
    39  C   -0.189486
    40  C    0.186526
    41  C   -0.065915
    42  C   -0.013428
    43  C   -0.048928
    44  H    0.044942
    45  H   -0.009107
    46  H    0.012084
    47  H    0.112363
    48  H    0.159022
    49  H    0.038668
    50  H    0.017859
    51  H    0.028724
    52  H   -0.024149
    53  H   -0.008476
    54  H    0.035029
    55  H   -0.004115
    56  H    0.015999
    57  H    0.007408
    58  H   -0.004060
    59  H   -0.007209
    60  H    0.093381
    61  H    0.017766
    62  H    0.041682
    63  H   -0.035432
    64  H    0.049041
    65  H    0.049192
    66  H   -0.035980
    67  H    0.038500
    68  H    0.024857
    69  H   -0.037862
    70  H    0.034330
    71  H    0.041801
    72  H    0.215604
    73  H   -0.030138
    74  H    0.056674
    75  H    0.080173
    76  H    0.066551
    77  H    0.138048
    78  H    0.042851
    79  H    0.036941
 Sum of Mulliken charges =  -0.00000

 Dipole moment (field-independent basis, Debye):
    X=              4.2094    Y=              2.5996    Z=             -2.0244  Tot=              5.3456
 Quadrupole moment (field-independent basis, Debye-Ang):
   XX=           -236.3872   YY=           -238.7797   ZZ=           -268.0302
   XY=              5.1005   XZ=            -23.6760   YZ=             -9.8409

 Normal termination of Gaussian 16 at Wed Jul 31 03:24:28 2019.
