 Gaussian 16, Revision A.03,
 Gaussian 16:  ES64L-G16RevA.03 25-Dec-2016

 --------------------------
 # td=(NStates=1) B3LYP/SVP
 --------------------------

 --
 TD
 --
 Symbolic Z-matrix:
 Charge =  0 Multiplicity = 1

                         Standard orientation:
 ---------------------------------------------------------------------
 Center     Atomic      Atomic             Coordinates (Angstroms)
 Number     Number       Type             X           Y           Z
 ---------------------------------------------------------------------
      1          8           0        5.360805    0.024417   -3.279691
      2          8           0       -2.943216   -3.052203    3.181529
      3          8           0       -3.461738   -0.872579    2.903949
      4          8           0       -1.547579    7.342777    1.245474
      5          8           0       -0.522561    6.889166   -0.636550
      6          8           0       -1.838313   -4.055192   -0.085717
      7          7           0        2.301810    0.894054    0.674618
      8          7           0        4.370481   -0.583197   -1.185640
      9          7           0       -1.903954    0.719645   -0.171394
     10          7           0       -2.684276   -1.856528   -0.502662
     11          6           0        4.847040   -1.106203    0.054089
     12          6           0        4.418211   -0.365636    1.388170
     13          6           0        2.969958   -0.078838    1.457675
     14          6           0        1.872180   -0.642904    2.172675
     15          6           0        0.712504   -0.024505    1.877061
     16          6           0        1.010641    0.877210    0.861752
     17          6           0        6.222090   -1.295815   -0.168801
     18          6           0       -0.594614   -0.260008    2.696044
     19          6           0        6.727778   -0.867046   -1.410478
     20          6           0        0.194168    1.935484    0.325976
     21          6           0       -1.091213    1.906767   -0.184406
     22          6           0        5.436437   -0.372452   -2.119557
     23          6           0       -1.972726    2.901411   -0.834921
     24          6           0        2.141224   -1.807623    3.173012
     25          6           0        7.231187   -1.862121    0.870861
     26          6           0       -3.168076    2.393934   -1.163084
     27          6           0       -1.188575   -1.658204    2.678671
     28          6           0       -3.116666    0.953784   -0.946809
     29          6           0       -1.569032    4.394229   -0.896110
     30          6           0        7.953123   -0.931335   -2.118269
     31          6           0       -1.676987    5.143817    0.465600
     32          6           0       -4.367919    3.081579   -1.896968
     33          6           0       -3.991752   -0.015729   -1.275343
     34          6           0       -2.637930   -1.769610    2.848998
     35          6           0       -3.779540   -1.455505   -1.089585
     36          6           0        9.294352   -0.917602   -1.647143
     37          6           0       -1.182206    6.557026    0.317496
     38          6           0       -4.546384   -2.585782   -1.467510
     39          6           0       -4.011471   -3.711804   -1.143268
     40          6           0       -2.747878   -3.404821   -0.609918
     41          6           0       -5.800951   -2.373663   -2.136426
     42          6           0       -4.351161   -5.214446   -1.311623
     43          6           0       -6.690394   -3.324760   -2.647385
     44          1           0        4.358681   -2.160629    0.242366
     45          1           0        5.014326    0.565435    1.224945
     46          1           0        4.794502   -1.040410    2.070168
     47          1           0        2.717471    1.415109   -0.144342
     48          1           0        3.453276   -0.774596   -1.574012
     49          1           0       -0.431369    0.258170    3.594201
     50          1           0       -1.210770    0.509894    2.289956
     51          1           0        0.764569    2.831555    0.213638
     52          1           0        3.205266   -1.934089    3.624202
     53          1           0        1.644012   -1.519260    4.267882
     54          1           0        1.972403   -2.843705    2.650062
     55          1           0        6.562483   -2.517821    1.329105
     56          1           0        7.388214   -1.047259    1.598758
     57          1           0        8.028785   -2.444286    0.472091
     58          1           0       -0.840598   -2.326196    1.681148
     59          1           0       -0.696770   -2.147089    3.427366
     60          1           0       -1.643199   -0.290632   -0.123744
     61          1           0       -2.081322    5.008596   -1.744778
     62          1           0       -0.487186    4.342168   -0.911344
     63          1           0        7.923467   -1.154439   -3.461622
     64          1           0       -0.926850    4.544751    1.062497
     65          1           0       -2.610073    5.168068    0.954718
     66          1           0       -4.222437    4.167843   -1.843477
     67          1           0       -5.263155    2.833394   -1.384481
     68          1           0       -4.372354    2.680520   -3.047079
     69          1           0       -4.863739    0.637028   -1.700230
     70          1           0        9.761384   -0.700351   -0.473619
     71          1           0       10.151545   -1.099391   -2.285605
     72          1           0       -3.920270   -2.897297    3.607645
     73          1           0       -6.202334   -1.275869   -2.110397
     74          1           0       -5.301344   -5.465121   -0.961445
     75          1           0       -4.263171   -5.475863   -2.366233
     76          1           0       -3.544791   -5.756485   -1.036651
     77          1           0       -0.978994    8.288446    1.349473
     78          1           0       -7.687404   -3.147597   -2.854917
     79          1           0       -6.432394   -4.254471   -2.695512
 ---------------------------------------------------------------------

 SCF Done:  E(RB3LYP) =  -1947.77847208     A.U. after   16 cycles

 Excitation energies and oscillator strengths:

 Excited State   1:      Singlet-A      1.7359 eV  714.24 nm  f=0.3018  <S**2>=0.000
     155 ->156         0.70666
 This state for optimization and/or second-order correction.
 Total Energy, E(TD-HF/TD-DFT) =  -1947.71467947
 Copying the excited state density for this state as the 1-particle RhoCI density.

 The electronic state is 1-A.
 Alpha  occ. eigenvalues --  -19.19897 -19.16732 -19.12677 -19.11168 -19.10989
 Alpha  occ. eigenvalues --  -19.10416 -14.38125 -14.35328 -14.34370 -14.29543
 Alpha  occ. eigenvalues --  -10.31349 -10.30053 -10.28817 -10.27652 -10.25006
 Alpha  occ. eigenvalues --  -10.24180 -10.23400 -10.23234 -10.23154 -10.22271
 Alpha  occ. eigenvalues --  -10.22151 -10.21992 -10.21838 -10.21630 -10.21598
 Alpha  occ. eigenvalues --  -10.21514 -10.21328 -10.20854 -10.20721 -10.20721
 Alpha  occ. eigenvalues --  -10.20598 -10.20455 -10.20451 -10.20430 -10.19837
 Alpha  occ. eigenvalues --  -10.19690 -10.19582 -10.19397 -10.18713 -10.18665
 Alpha  occ. eigenvalues --  -10.18328 -10.17643 -10.17451  -1.11278  -1.06932
 Alpha  occ. eigenvalues --   -1.01942  -1.01507  -1.00287  -0.99186  -0.97668
 Alpha  occ. eigenvalues --   -0.94436  -0.94373  -0.93055  -0.82070  -0.81712
 Alpha  occ. eigenvalues --   -0.81097  -0.80760  -0.80626  -0.79340  -0.77323
 Alpha  occ. eigenvalues --   -0.76935  -0.76211  -0.75450  -0.74167  -0.71652
 Alpha  occ. eigenvalues --   -0.71286  -0.70698  -0.70042  -0.68233  -0.67657
 Alpha  occ. eigenvalues --   -0.66939  -0.66762  -0.65163  -0.61345  -0.60871
 Alpha  occ. eigenvalues --   -0.60063  -0.58607  -0.57076  -0.56647  -0.56137
 Alpha  occ. eigenvalues --   -0.55803  -0.55401  -0.54629  -0.53616  -0.52921
 Alpha  occ. eigenvalues --   -0.52007  -0.51312  -0.50928  -0.49968  -0.49863
 Alpha  occ. eigenvalues --   -0.48843  -0.48565  -0.47974  -0.47345  -0.46896
 Alpha  occ. eigenvalues --   -0.46602  -0.46522  -0.46310  -0.45846  -0.45643
 Alpha  occ. eigenvalues --   -0.45152  -0.44860  -0.44570  -0.44008  -0.43746
 Alpha  occ. eigenvalues --   -0.43441  -0.43275  -0.42777  -0.42433  -0.42221
 Alpha  occ. eigenvalues --   -0.41961  -0.41801  -0.41219  -0.41038  -0.40657
 Alpha  occ. eigenvalues --   -0.40463  -0.40385  -0.39984  -0.39719  -0.39413
 Alpha  occ. eigenvalues --   -0.38989  -0.38884  -0.38535  -0.38269  -0.38164
 Alpha  occ. eigenvalues --   -0.37627  -0.37077  -0.37057  -0.36763  -0.36694
 Alpha  occ. eigenvalues --   -0.35910  -0.35668  -0.35446  -0.34532  -0.34211
 Alpha  occ. eigenvalues --   -0.33332  -0.32348  -0.32164  -0.31934  -0.31157
 Alpha  occ. eigenvalues --   -0.30347  -0.30315  -0.28682  -0.28150  -0.27407
 Alpha  occ. eigenvalues --   -0.26606  -0.26400  -0.25458  -0.25170  -0.24784
 Alpha  occ. eigenvalues --   -0.24688  -0.24192  -0.23401  -0.22416  -0.18400
 Alpha virt. eigenvalues --   -0.11321  -0.06738  -0.06227  -0.01172  -0.00872
 Alpha virt. eigenvalues --   -0.00271   0.00958   0.01058   0.02168   0.03396
 Alpha virt. eigenvalues --    0.03750   0.03856   0.04481   0.04638   0.05070

 Mulliken charges:
               1
     1  O   -0.219484
     2  O   -0.244047
     3  O   -0.241449
     4  O   -0.185779
     5  O   -0.235040
     6  O   -0.189066
     7  N   -0.055896
     8  N   -0.216298
     9  N   -0.183153
    10  N   -0.319275
    11  C    0.027232
    12  C    0.296487
    13  C   -0.090162
    14  C   -0.099931
    15  C   -0.145524
    16  C    0.004578
    17  C   -0.223711
    18  C    0.206720
    19  C   -0.003259
    20  C   -0.130557
    21  C    0.156656
    22  C    0.152631
    23  C   -0.080226
    24  C   -0.030704
    25  C    0.170029
    26  C   -0.109927
    27  C    0.022724
    28  C    0.024839
    29  C    0.085504
    30  C   -0.100221
    31  C    0.001384
    32  C    0.082899
    33  C   -0.066921
    34  C    0.156805
    35  C    0.126596
    36  C   -0.100568
    37  C    0.092351
    38  C    0.128814
    39  C   -0.238179
    40  C    0.156228
    41  C   -0.112912
    42  C    0.234495
    43  C    0.090084
    44  H    0.031299
    45  H   -0.005060
    46  H   -0.047260
    47  H    0.134179
    48  H    0.135748
    49  H   -0.019513
    50  H   -0.028950
    51  H   -0.027760
    52  H    0.013478
    53  H    0.043011
    54  H    0.059181
    55  H   -0.019792
    56  H    0.038446
    57  H    0.032079
    58  H    0.103293
    59  H   -0.002596
    60  H    0.156776
    61  H    0.043544
    62  H    0.000848
    63  H    0.079358
    64  H    0.039060
    65  H    0.012955
    66  H    0.016165
    67  H    0.027695
    68  H    0.064044
    69  H   -0.015989
    70  H    0.051348
    71  H    0.031972
    72  H    0.210467
    73  H    0.022636
    74  H    0.021062
    75  H    0.009195
    76  H   -0.024239
    77  H    0.254517
    78  H    0.013113
    79  H   -0.049076
 Sum of Mulliken charges =  -0.00000

 Dipole moment (field-independent basis, Debye):
    X=             -1.1441    Y=              0.9703    Z=              3.2658  Tot=              3.5939
 Quadrupole moment (field-independent basis, Debye-Ang):
   XX=           -218.9876   YY=           -230.6451   ZZ=           -260.1375
   XY=             -6.0982   XZ=             32.9276   YZ=             16.3446

 Normal termination of Gaussian 16 at Mon Sep 16 04:18:52 2019.
