 Gaussian 16, Revision A.03,
 Gaussian 16:  ES64L-G16RevA.03 25-Dec-2016

 --------------------------
 # td=(NStates=1) B3LYP/SVP
 --------------------------

 --
 TD
 --
 Symbolic Z-matrix:
 Charge =  0 Multiplicity = 1

                         Standard orientation:
 ---------------------------------------------------------------------
 Center     Atomic      Atomic             Coordinates (Angstroms)
 Number     Number       Type             X           Y           Z
 ---------------------------------------------------------------------
      1          8           0        5.511893   -0.063058   -3.300151
      2          8           0       -3.059091   -2.990681    3.240113
      3          8           0       -3.352639   -0.767759    2.782149
      4          8           0       -1.889312    7.124643    1.577406
      5          8           0       -1.099963    7.084008   -0.526357
      6          8           0       -1.611726   -4.036262    0.124165
      7          7           0        2.305247    1.083299    0.621389
      8          7           0        4.425404   -0.416633   -1.216272
      9          7           0       -1.838941    0.663971   -0.453942
     10          7           0       -2.499697   -1.861076   -0.533783
     11          6           0        4.819241   -0.942649    0.104054
     12          6           0        4.370411   -0.124092    1.359061
     13          6           0        2.982423    0.089691    1.440013
     14          6           0        1.863334   -0.608940    2.184006
     15          6           0        0.652831    0.046035    1.755611
     16          6           0        0.932539    1.064602    0.764813
     17          6           0        6.379440   -1.188107   -0.096818
     18          6           0       -0.721014   -0.238690    2.511468
     19          6           0        6.735648   -0.692028   -1.308301
     20          6           0        0.052939    2.007177    0.109428
     21          6           0       -1.143186    1.866555   -0.387537
     22          6           0        5.527701   -0.234714   -2.066274
     23          6           0       -1.984859    2.844421   -0.944701
     24          6           0        2.198475   -1.536916    3.352225
     25          6           0        7.202970   -1.854199    0.958427
     26          6           0       -3.143149    2.251079   -1.359985
     27          6           0       -1.112641   -1.698131    2.717023
     28          6           0       -2.972688    0.831136   -1.103434
     29          6           0       -1.648485    4.357029   -0.893731
     30          6           0        7.981560   -0.745924   -2.029310
     31          6           0       -2.018896    4.957576    0.448808
     32          6           0       -4.318198    2.807897   -2.065348
     33          6           0       -3.866818   -0.163422   -1.445958
     34          6           0       -2.664955   -1.732936    2.945173
     35          6           0       -3.563210   -1.557316   -1.209446
     36          6           0        9.312346   -0.841606   -1.584402
     37          6           0       -1.614559    6.502216    0.347849
     38          6           0       -4.402579   -2.824686   -1.443459
     39          6           0       -3.694462   -3.863287   -1.088738
     40          6           0       -2.451025   -3.291740   -0.396620
     41          6           0       -5.720132   -2.732920   -2.127437
     42          6           0       -4.155144   -5.238399   -1.009969
     43          6           0       -6.603939   -3.695144   -2.563784
     44          1           0        4.504390   -1.926108    0.141380
     45          1           0        4.934030    0.766599    1.363626
     46          1           0        4.724427   -0.741604    2.275473
     47          1           0        2.703654    1.847918   -0.057610
     48          1           0        3.311920    0.037300   -1.316806
     49          1           0       -0.561455    0.470013    3.526116
     50          1           0       -1.495060    0.360045    1.949630
     51          1           0        0.641680    2.923142   -0.397017
     52          1           0        3.356089   -1.501858    3.507974
     53          1           0        1.498726   -1.223203    4.220997
     54          1           0        1.896157   -2.631364    2.985681
     55          1           0        6.773550   -2.586889    1.545768
     56          1           0        7.664460   -1.219877    1.697547
     57          1           0        7.971077   -2.429081    0.204976
     58          1           0       -1.076750   -2.366598    1.789770
     59          1           0       -0.632637   -2.167320    3.617960
     60          1           0       -1.627773   -0.317346   -0.160192
     61          1           0       -2.152023    4.831476   -1.665795
     62          1           0       -0.623906    4.412624   -1.148587
     63          1           0        7.772940   -0.698612   -3.124040
     64          1           0       -1.440676    4.535398    1.311015
     65          1           0       -3.062047    5.131703    0.343654
     66          1           0       -4.352026    3.915121   -2.197588
     67          1           0       -5.350200    2.503921   -1.612577
     68          1           0       -4.443808    2.402208   -3.079372
     69          1           0       -4.659441    0.105293   -2.255126
     70          1           0        9.643851   -1.305740   -0.397466
     71          1           0       10.331671   -0.935458   -2.360522
     72          1           0       -4.022547   -3.180814    3.501474
     73          1           0       -5.972479   -1.651579   -2.628656
     74          1           0       -4.953563   -5.478558   -0.414399
     75          1           0       -4.501672   -5.784298   -1.952949
     76          1           0       -3.257086   -5.698798   -0.568655
     77          1           0       -1.711345    7.997106    1.343039
     78          1           0       -7.340747   -3.704105   -3.168580
     79          1           0       -6.500272   -4.702112   -2.156721
 ---------------------------------------------------------------------

 SCF Done:  E(RB3LYP) =  -1947.81903093     A.U. after   17 cycles

 Excitation energies and oscillator strengths:

 Excited State   1:      Singlet-A      2.1610 eV  573.74 nm  f=0.4949  <S**2>=0.000
     155 ->156         0.70322
 This state for optimization and/or second-order correction.
 Total Energy, E(TD-HF/TD-DFT) =  -1947.73961697
 Copying the excited state density for this state as the 1-particle RhoCI density.

 The electronic state is 1-A.
 Alpha  occ. eigenvalues --  -19.17563 -19.17532 -19.14986 -19.11906 -19.11598
 Alpha  occ. eigenvalues --  -19.09825 -14.40047 -14.36411 -14.35812 -14.30140
 Alpha  occ. eigenvalues --  -10.32875 -10.31058 -10.28756 -10.28089 -10.24435
 Alpha  occ. eigenvalues --  -10.24338 -10.23969 -10.23840 -10.23784 -10.23321
 Alpha  occ. eigenvalues --  -10.23156 -10.22543 -10.22322 -10.22307 -10.22252
 Alpha  occ. eigenvalues --  -10.22221 -10.21914 -10.21094 -10.20910 -10.20908
 Alpha  occ. eigenvalues --  -10.20894 -10.20708 -10.20671 -10.20578 -10.20450
 Alpha  occ. eigenvalues --  -10.20306 -10.20207 -10.20114 -10.20005 -10.19257
 Alpha  occ. eigenvalues --  -10.18878 -10.18870 -10.17915  -1.11354  -1.07672
 Alpha  occ. eigenvalues --   -1.02779  -1.01491  -1.00528  -1.00057  -0.99731
 Alpha  occ. eigenvalues --   -0.96615  -0.93200  -0.92149  -0.83742  -0.82257
 Alpha  occ. eigenvalues --   -0.81301  -0.81001  -0.80527  -0.79353  -0.78695
 Alpha  occ. eigenvalues --   -0.76261  -0.75619  -0.75034  -0.74552  -0.72186
 Alpha  occ. eigenvalues --   -0.70646  -0.70193  -0.70110  -0.68772  -0.68236
 Alpha  occ. eigenvalues --   -0.66391  -0.65772  -0.64337  -0.60892  -0.59675
 Alpha  occ. eigenvalues --   -0.59443  -0.59309  -0.58587  -0.57422  -0.57010
 Alpha  occ. eigenvalues --   -0.56582  -0.55546  -0.54884  -0.53311  -0.52863
 Alpha  occ. eigenvalues --   -0.52277  -0.51644  -0.51065  -0.49938  -0.49678
 Alpha  occ. eigenvalues --   -0.49436  -0.48559  -0.48148  -0.47214  -0.47124
 Alpha  occ. eigenvalues --   -0.46854  -0.46475  -0.46131  -0.45877  -0.45759
 Alpha  occ. eigenvalues --   -0.45696  -0.45345  -0.44863  -0.44183  -0.43900
 Alpha  occ. eigenvalues --   -0.43493  -0.43405  -0.43013  -0.42775  -0.42533
 Alpha  occ. eigenvalues --   -0.42331  -0.41942  -0.41454  -0.41194  -0.40479
 Alpha  occ. eigenvalues --   -0.40251  -0.40191  -0.40117  -0.39949  -0.39682
 Alpha  occ. eigenvalues --   -0.39404  -0.39045  -0.39037  -0.38652  -0.38638
 Alpha  occ. eigenvalues --   -0.38322  -0.38155  -0.37793  -0.37008  -0.36815
 Alpha  occ. eigenvalues --   -0.36747  -0.36077  -0.35615  -0.34639  -0.33730
 Alpha  occ. eigenvalues --   -0.33685  -0.33479  -0.32750  -0.31940  -0.31774
 Alpha  occ. eigenvalues --   -0.31523  -0.30547  -0.29598  -0.29360  -0.28519
 Alpha  occ. eigenvalues --   -0.26810  -0.26162  -0.25736  -0.25396  -0.24795
 Alpha  occ. eigenvalues --   -0.24400  -0.24017  -0.23695  -0.22923  -0.18993
 Alpha virt. eigenvalues --   -0.10469  -0.06609  -0.06008  -0.01265  -0.00338
 Alpha virt. eigenvalues --    0.00042   0.00114   0.00990   0.02299   0.02458
 Alpha virt. eigenvalues --    0.03038   0.03538   0.03896   0.04536   0.04661

 Mulliken charges:
               1
     1  O   -0.254241
     2  O   -0.227326
     3  O   -0.205423
     4  O   -0.192099
     5  O   -0.171650
     6  O   -0.221307
     7  N   -0.174621
     8  N   -0.314663
     9  N   -0.043076
    10  N   -0.294835
    11  C    0.153792
    12  C    0.208392
    13  C   -0.051155
    14  C   -0.108778
    15  C   -0.120128
    16  C    0.044163
    17  C   -0.180574
    18  C    0.012534
    19  C   -0.052357
    20  C   -0.148365
    21  C    0.149302
    22  C    0.207100
    23  C   -0.113644
    24  C    0.017155
    25  C    0.069961
    26  C   -0.096435
    27  C   -0.017359
    28  C    0.069195
    29  C    0.165543
    30  C   -0.010282
    31  C    0.077046
    32  C    0.061160
    33  C   -0.133636
    34  C    0.136145
    35  C    0.067464
    36  C   -0.153051
    37  C    0.088636
    38  C    0.086513
    39  C   -0.191290
    40  C    0.194337
    41  C   -0.058424
    42  C    0.078544
    43  C    0.037015
    44  H   -0.005932
    45  H   -0.017277
    46  H    0.005994
    47  H    0.153458
    48  H    0.187006
    49  H    0.036373
    50  H    0.029161
    51  H    0.010282
    52  H    0.031571
    53  H    0.054877
    54  H    0.061063
    55  H   -0.006020
    56  H    0.039276
    57  H    0.061909
    58  H    0.087308
    59  H    0.032753
    60  H    0.158930
    61  H   -0.019961
    62  H   -0.015019
    63  H    0.039133
    64  H    0.069345
    65  H    0.026416
    66  H    0.014582
    67  H    0.033925
    68  H    0.026298
    69  H    0.008608
    70  H    0.054072
    71  H    0.065942
    72  H    0.207625
    73  H    0.023609
    74  H    0.002991
    75  H    0.028345
    76  H    0.022892
    77  H    0.139373
    78  H   -0.040003
    79  H    0.001819
 Sum of Mulliken charges =  -0.00000

 Dipole moment (field-independent basis, Debye):
    X=             -1.5278    Y=              1.7331    Z=              3.9486  Tot=              4.5748
 Quadrupole moment (field-independent basis, Debye-Ang):
   XX=           -231.6004   YY=           -245.9303   ZZ=           -260.1419
   XY=             -2.9423   XZ=             35.5121   YZ=             -4.9087

 Normal termination of Gaussian 16 at Tue Sep 24 10:32:28 2019.
