 Gaussian 16, Revision A.03,
 Gaussian 16:  ES64L-G16RevA.03 25-Dec-2016

 --------------------------
 # td=(NStates=1) B3LYP/SVP
 --------------------------

 --
 TD
 --
 Symbolic Z-matrix:
 Charge =  0 Multiplicity = 1

                         Standard orientation:
 ---------------------------------------------------------------------
 Center     Atomic      Atomic             Coordinates (Angstroms)
 Number     Number       Type             X           Y           Z
 ---------------------------------------------------------------------
      1          8           0       -3.321017   -0.763756   -2.949228
      2          8           0        3.270130    2.491962    3.541650
      3          8           0        4.187805    0.466260    4.177863
      4          8           0        7.648640   -1.399873   -0.830025
      5          8           0        6.760038   -2.436480   -2.788236
      6          8           0       -2.715280    1.453019    1.695606
      7          7           0       -0.313723   -2.599744    0.618201
      8          7           0       -2.759711   -1.107430   -0.755605
      9          7           0        1.097716    0.195227   -0.675933
     10          7           0       -1.098327    1.491311    0.099846
     11          6           0       -3.387164   -1.443914    0.464404
     12          6           0       -2.709503   -2.676010    1.273186
     13          6           0       -1.177652   -2.454278    1.549749
     14          6           0       -0.551890   -1.558984    2.632117
     15          6           0        0.735326   -1.499128    2.269193
     16          6           0        0.904769   -2.091859    0.871148
     17          6           0       -4.788133   -1.880816    0.013197
     18          6           0        1.908173   -1.010003    3.159091
     19          6           0       -4.866644   -1.699440   -1.347433
     20          6           0        2.070006   -1.972459    0.071659
     21          6           0        2.156410   -0.738007   -0.714071
     22          6           0       -3.554750   -1.198838   -1.803593
     23          6           0        2.908509   -0.399618   -1.851131
     24          6           0       -1.247604   -1.076426    3.782579
     25          6           0       -5.939151   -2.159964    1.031623
     26          6           0        2.442467    0.779878   -2.425664
     27          6           0        2.000311    0.623911    3.020445
     28          6           0        1.343634    1.160712   -1.708335
     29          6           0        4.206547   -1.183797   -2.215091
     30          6           0       -5.962080   -1.969932   -2.309100
     31          6           0        5.430626   -0.907630   -1.293407
     32          6           0        3.005864    1.560561   -3.547940
     33          6           0        0.469629    2.253271   -1.755806
     34          6           0        3.256248    1.084481    3.595953
     35          6           0       -0.640994    2.355111   -0.825008
     36          6           0       -6.907552   -3.035571   -2.170229
     37          6           0        6.644534   -1.587653   -1.772436
     38          6           0       -1.487766    3.699945   -0.752173
     39          6           0       -2.371301    3.454389    0.208382
     40          6           0       -2.063124    2.042804    0.839395
     41          6           0       -1.203477    4.926970   -1.583006
     42          6           0       -3.267845    4.272827    0.974380
     43          6           0       -1.765404    6.082264   -1.413363
     44          1           0       -3.410666   -0.647848    1.126504
     45          1           0       -2.842743   -3.739254    0.700437
     46          1           0       -3.221021   -2.843071    2.102176
     47          1           0       -0.354380   -3.109663   -0.287827
     48          1           0       -1.977308   -0.269327   -0.597393
     49          1           0        1.837752   -1.223009    4.298953
     50          1           0        2.810953   -1.140893    2.759134
     51          1           0        2.718644   -2.808460   -0.280441
     52          1           0       -2.268895   -1.725042    4.192480
     53          1           0       -0.588033   -0.657300    4.584239
     54          1           0       -1.937741   -0.159131    3.610413
     55          1           0       -5.787676   -1.477484    1.879587
     56          1           0       -5.822794   -3.241220    1.459347
     57          1           0       -6.906692   -2.010530    0.659462
     58          1           0        2.026125    0.860731    1.949076
     59          1           0        1.058950    1.199656    3.483581
     60          1           0        0.183516    0.153740   -0.178359
     61          1           0        4.465826   -0.955365   -3.411551
     62          1           0        3.689774   -2.241663   -2.093727
     63          1           0       -5.884072   -1.476872   -3.200288
     64          1           0        5.258192   -1.019660   -0.140652
     65          1           0        5.821860   -0.073427   -1.190289
     66          1           0        3.867303    1.223274   -4.133656
     67          1           0        3.395438    2.376463   -3.281476
     68          1           0        2.187225    1.830054   -4.166944
     69          1           0        0.553585    2.926896   -2.632868
     70          1           0       -6.912526   -3.646350   -1.369016
     71          1           0       -7.660868   -3.046436   -3.025379
     72          1           0        4.107786    2.804247    3.947451
     73          1           0       -0.509298    4.713484   -2.456408
     74          1           0       -4.197901    4.508484    0.442444
     75          1           0       -3.560189    3.696906    2.041087
     76          1           0       -2.782504    5.302284    1.515123
     77          1           0        8.100543   -2.171825   -1.061823
     78          1           0       -1.524103    6.880076   -2.001474
     79          1           0       -2.604390    6.346145   -0.640785
 ---------------------------------------------------------------------

 SCF Done:  E(RB3LYP) =  -1947.72626585     A.U. after   21 cycles

 Excitation energies and oscillator strengths:

 Excited State   1:      Singlet-A      1.0333 eV 1199.89 nm  f=0.0406  <S**2>=0.000
     155 ->156         0.70448
 This state for optimization and/or second-order correction.
 Total Energy, E(TD-HF/TD-DFT) =  -1947.68829300
 Copying the excited state density for this state as the 1-particle RhoCI density.

 The electronic state is 1-A.
 Alpha  occ. eigenvalues --  -19.20024 -19.17258 -19.14666 -19.13184 -19.12367
 Alpha  occ. eigenvalues --  -19.07095 -14.40292 -14.36738 -14.33645 -14.31850
 Alpha  occ. eigenvalues --  -10.34695 -10.32409 -10.28263 -10.26615 -10.26067
 Alpha  occ. eigenvalues --  -10.25920 -10.25872 -10.24718 -10.24007 -10.22914
 Alpha  occ. eigenvalues --  -10.22521 -10.22517 -10.22275 -10.22134 -10.21974
 Alpha  occ. eigenvalues --  -10.21829 -10.21337 -10.21204 -10.21178 -10.21027
 Alpha  occ. eigenvalues --  -10.20858 -10.20775 -10.20111 -10.20101 -10.19970
 Alpha  occ. eigenvalues --  -10.19930 -10.19645 -10.19622 -10.19279 -10.19079
 Alpha  occ. eigenvalues --  -10.19026 -10.18659 -10.18598  -1.10644  -1.06703
 Alpha  occ. eigenvalues --   -1.03206  -1.01050  -0.99664  -0.98253  -0.98228
 Alpha  occ. eigenvalues --   -0.97833  -0.93872  -0.92423  -0.83845  -0.82960
 Alpha  occ. eigenvalues --   -0.81473  -0.81092  -0.80687  -0.79422  -0.78713
 Alpha  occ. eigenvalues --   -0.77231  -0.76655  -0.75772  -0.75239  -0.73270
 Alpha  occ. eigenvalues --   -0.71435  -0.70154  -0.69728  -0.69476  -0.68523
 Alpha  occ. eigenvalues --   -0.67293  -0.66089  -0.64107  -0.61822  -0.60341
 Alpha  occ. eigenvalues --   -0.60232  -0.59996  -0.58769  -0.57664  -0.56821
 Alpha  occ. eigenvalues --   -0.56618  -0.55328  -0.54880  -0.53725  -0.53374
 Alpha  occ. eigenvalues --   -0.52759  -0.52058  -0.51646  -0.50177  -0.49988
 Alpha  occ. eigenvalues --   -0.49305  -0.48883  -0.48624  -0.48364  -0.47737
 Alpha  occ. eigenvalues --   -0.47471  -0.47131  -0.46814  -0.46635  -0.46295
 Alpha  occ. eigenvalues --   -0.45874  -0.45418  -0.45113  -0.44551  -0.44404
 Alpha  occ. eigenvalues --   -0.44259  -0.43929  -0.43057  -0.42593  -0.42345
 Alpha  occ. eigenvalues --   -0.42151  -0.41786  -0.41508  -0.41081  -0.40982
 Alpha  occ. eigenvalues --   -0.40701  -0.40460  -0.40341  -0.40222  -0.39531
 Alpha  occ. eigenvalues --   -0.39440  -0.39250  -0.38632  -0.38241  -0.37957
 Alpha  occ. eigenvalues --   -0.37688  -0.37377  -0.36960  -0.36867  -0.36327
 Alpha  occ. eigenvalues --   -0.36228  -0.35700  -0.35191  -0.34995  -0.34679
 Alpha  occ. eigenvalues --   -0.34657  -0.33274  -0.32693  -0.32619  -0.31856
 Alpha  occ. eigenvalues --   -0.31534  -0.29763  -0.29256  -0.28975  -0.28668
 Alpha  occ. eigenvalues --   -0.28170  -0.26984  -0.26175  -0.24597  -0.24256
 Alpha  occ. eigenvalues --   -0.24191  -0.22972  -0.22619  -0.22305  -0.19065
 Alpha virt. eigenvalues --   -0.13313  -0.07529  -0.04888  -0.04591  -0.01846
 Alpha virt. eigenvalues --   -0.01590   0.00361   0.01430   0.02537   0.02864
 Alpha virt. eigenvalues --    0.03343   0.03733   0.04580   0.04753   0.04835

 Mulliken charges:
               1
     1  O   -0.278689
     2  O   -0.235121
     3  O   -0.267771
     4  O   -0.166510
     5  O   -0.314217
     6  O   -0.214673
     7  N    0.085146
     8  N   -0.202822
     9  N   -0.185085
    10  N   -0.268591
    11  C    0.116866
    12  C    0.163388
    13  C   -0.125550
    14  C   -0.049185
    15  C   -0.109596
    16  C   -0.044237
    17  C   -0.183672
    18  C    0.178617
    19  C   -0.052205
    20  C   -0.101665
    21  C    0.086426
    22  C    0.114937
    23  C   -0.122107
    24  C   -0.013789
    25  C    0.093769
    26  C   -0.091027
    27  C   -0.087023
    28  C    0.120803
    29  C    0.031169
    30  C    0.006562
    31  C    0.130324
    32  C    0.230649
    33  C   -0.115975
    34  C    0.176544
    35  C    0.111692
    36  C   -0.001669
    37  C    0.175592
    38  C    0.032942
    39  C   -0.190935
    40  C    0.159204
    41  C    0.017253
    42  C   -0.046187
    43  C   -0.008650
    44  H    0.016094
    45  H    0.004164
    46  H   -0.050766
    47  H    0.138318
    48  H    0.203153
    49  H    0.046808
    50  H   -0.047991
    51  H    0.019816
    52  H    0.023316
    53  H    0.012340
    54  H    0.042780
    55  H    0.023195
    56  H    0.035713
    57  H    0.015379
    58  H    0.048075
    59  H    0.080531
    60  H    0.189662
    61  H    0.067385
    62  H    0.053684
    63  H   -0.020592
    64  H    0.070355
    65  H   -0.058902
    66  H    0.005870
    67  H   -0.048623
    68  H    0.016577
    69  H    0.001157
    70  H   -0.010173
    71  H    0.041269
    72  H    0.181262
    73  H    0.005705
    74  H    0.041581
    75  H    0.051892
    76  H    0.051296
    77  H    0.154517
    78  H   -0.005157
    79  H    0.045379
 Sum of Mulliken charges =  -0.00000

 Dipole moment (field-independent basis, Debye):
    X=              2.2751    Y=              2.0370    Z=              0.3833  Tot=              3.0777
 Quadrupole moment (field-independent basis, Debye-Ang):
   XX=           -251.5894   YY=           -232.2014   ZZ=           -272.2880
   XY=             12.1672   XZ=            -17.6047   YZ=            -11.3089

 Normal termination of Gaussian 16 at Tue Jul 30 16:36:19 2019.
