 Gaussian 16, Revision A.03,
 Gaussian 16:  ES64L-G16RevA.03 25-Dec-2016

 --------------------------
 # td=(NStates=1) B3LYP/SVP
 --------------------------

 --
 TD
 --
 Symbolic Z-matrix:
 Charge =  0 Multiplicity = 1

                         Standard orientation:
 ---------------------------------------------------------------------
 Center     Atomic      Atomic             Coordinates (Angstroms)
 Number     Number       Type             X           Y           Z
 ---------------------------------------------------------------------
      1          8           0       -3.048855   -1.786129   -2.622993
      2          8           0        3.283082    3.494369    2.575971
      3          8           0        3.456758    2.132077    4.440692
      4          8           0        7.768860   -1.685914   -0.649731
      5          8           0        6.562101   -3.163570   -1.854787
      6          8           0       -2.678281    1.732086    1.217301
      7          7           0       -0.311774   -2.228384    1.242914
      8          7           0       -2.608552   -1.217163   -0.419262
      9          7           0        1.059575   -0.102353   -0.732433
     10          7           0       -1.143724    1.408976   -0.436996
     11          6           0       -3.359799   -1.237320    0.839885
     12          6           0       -2.569887   -2.148074    1.913181
     13          6           0       -1.191192   -1.768910    2.102938
     14          6           0       -0.587656   -0.762362    2.999743
     15          6           0        0.862999   -0.757062    2.618686
     16          6           0        1.044457   -1.590318    1.557264
     17          6           0       -4.695987   -1.905613    0.464210
     18          6           0        1.904152    0.021285    3.193940
     19          6           0       -4.722721   -2.172362   -0.892647
     20          6           0        2.030139   -1.766204    0.530870
     21          6           0        2.109427   -0.938654   -0.599228
     22          6           0       -3.402537   -1.749943   -1.411400
     23          6           0        3.035864   -0.786321   -1.623493
     24          6           0       -1.333177    0.045721    4.022531
     25          6           0       -5.731677   -2.098345    1.584748
     26          6           0        2.455204    0.154215   -2.468749
     27          6           0        2.022130    1.437368    2.499960
     28          6           0        1.252684    0.728392   -1.836147
     29          6           0        4.258998   -1.731815   -1.708200
     30          6           0       -5.693703   -2.770641   -1.757320
     31          6           0        5.515016   -1.152856   -1.157276
     32          6           0        3.224936    0.572985   -3.664655
     33          6           0        0.369250    1.769401   -2.206593
     34          6           0        2.989160    2.290412    3.272020
     35          6           0       -0.691151    2.113257   -1.500257
     36          6           0       -6.790821   -3.579610   -1.419184
     37          6           0        6.673709   -2.136091   -1.270837
     38          6           0       -1.625646    3.301744   -1.689614
     39          6           0       -2.515080    3.257493   -0.642299
     40          6           0       -2.164943    2.088181    0.147041
     41          6           0       -1.406178    4.296397   -2.680782
     42          6           0       -3.470387    4.307317   -0.196274
     43          6           0       -2.221054    5.335992   -3.054860
     44          1           0       -3.215228   -0.255865    1.178066
     45          1           0       -2.476202   -3.200032    1.468067
     46          1           0       -3.111553   -2.351762    2.858614
     47          1           0       -0.171685   -2.899772    0.452403
     48          1           0       -2.144701   -0.349585   -0.644342
     49          1           0        1.822871    0.400183    4.215607
     50          1           0        2.951749   -0.340758    3.022045
     51          1           0        2.641266   -2.503188    0.717520
     52          1           0       -1.898482   -0.722953    4.564703
     53          1           0       -0.720246    0.698992    4.704718
     54          1           0       -1.978766    0.853471    3.646612
     55          1           0       -5.542501   -1.204018    2.320128
     56          1           0       -5.490044   -3.054685    1.924080
     57          1           0       -6.752652   -2.199287    1.000767
     58          1           0        2.292689    1.352163    1.339951
     59          1           0        0.983336    1.773895    2.612977
     60          1           0        0.422434    0.391840    0.036412
     61          1           0        4.389688   -2.048153   -2.754863
     62          1           0        4.163147   -2.712036   -1.219049
     63          1           0       -5.204184   -2.813314   -2.909803
     64          1           0        5.385238   -0.835827   -0.117307
     65          1           0        6.002727   -0.125342   -1.628157
     66          1           0        3.900854   -0.123090   -3.856578
     67          1           0        3.740417    1.589497   -3.622377
     68          1           0        2.549573    0.568425   -4.509077
     69          1           0        0.586447    2.269372   -3.202401
     70          1           0       -7.209687   -3.802580   -0.386971
     71          1           0       -7.427318   -4.039651   -2.268298
     72          1           0        4.107618    3.889577    3.093857
     73          1           0       -0.611683    4.246843   -3.354499
     74          1           0       -4.386358    4.230002   -0.782020
     75          1           0       -3.702896    4.179200    0.936822
     76          1           0       -2.788814    5.285057   -0.203509
     77          1           0        8.550982   -2.407893   -0.624767
     78          1           0       -1.716777    5.844573   -3.809963
     79          1           0       -3.106433    5.599873   -2.433781
 ---------------------------------------------------------------------

 SCF Done:  E(RB3LYP) =  -1947.85380812     A.U. after   23 cycles

 Excitation energies and oscillator strengths:

 Excited State   1:      Singlet-A      0.6554 eV 1891.60 nm  f=0.0002  <S**2>=0.000
     155 ->156         0.70402
 This state for optimization and/or second-order correction.
 Total Energy, E(TD-HF/TD-DFT) =  -1947.82972096
 Copying the excited state density for this state as the 1-particle RhoCI density.

 The electronic state is 1-A.
 Alpha  occ. eigenvalues --  -19.20338 -19.18020 -19.14109 -19.13637 -19.11092
 Alpha  occ. eigenvalues --  -19.07193 -14.37693 -14.36394 -14.31353 -14.29926
 Alpha  occ. eigenvalues --  -10.33306 -10.33075 -10.27332 -10.26989 -10.25720
 Alpha  occ. eigenvalues --  -10.25123 -10.24279 -10.23372 -10.23118 -10.22855
 Alpha  occ. eigenvalues --  -10.22541 -10.21986 -10.21642 -10.21246 -10.21094
 Alpha  occ. eigenvalues --  -10.21086 -10.21084 -10.20998 -10.20745 -10.20483
 Alpha  occ. eigenvalues --  -10.20316 -10.20304 -10.20298 -10.20245 -10.20226
 Alpha  occ. eigenvalues --  -10.20093 -10.19977 -10.19360 -10.19040 -10.18541
 Alpha  occ. eigenvalues --  -10.18157 -10.17693 -10.17665  -1.10990  -1.05965
 Alpha  occ. eigenvalues --   -1.02734  -1.01977  -1.00392  -0.98097  -0.97654
 Alpha  occ. eigenvalues --   -0.94789  -0.93528  -0.90394  -0.84315  -0.83159
 Alpha  occ. eigenvalues --   -0.81708  -0.81308  -0.79918  -0.79778  -0.78675
 Alpha  occ. eigenvalues --   -0.76613  -0.75795  -0.75437  -0.74348  -0.73087
 Alpha  occ. eigenvalues --   -0.70910  -0.70248  -0.69450  -0.69311  -0.68030
 Alpha  occ. eigenvalues --   -0.66074  -0.65534  -0.63290  -0.61475  -0.60996
 Alpha  occ. eigenvalues --   -0.59739  -0.59319  -0.57877  -0.57412  -0.56330
 Alpha  occ. eigenvalues --   -0.56056  -0.55452  -0.54602  -0.53910  -0.53026
 Alpha  occ. eigenvalues --   -0.52306  -0.51232  -0.50705  -0.50270  -0.49505
 Alpha  occ. eigenvalues --   -0.49308  -0.48966  -0.48553  -0.48217  -0.47790
 Alpha  occ. eigenvalues --   -0.47329  -0.46864  -0.46689  -0.46577  -0.45738
 Alpha  occ. eigenvalues --   -0.45416  -0.44718  -0.43959  -0.43839  -0.43586
 Alpha  occ. eigenvalues --   -0.43291  -0.43002  -0.42838  -0.42652  -0.42452
 Alpha  occ. eigenvalues --   -0.42090  -0.41536  -0.41423  -0.40984  -0.40872
 Alpha  occ. eigenvalues --   -0.40549  -0.40314  -0.40087  -0.39677  -0.39195
 Alpha  occ. eigenvalues --   -0.39075  -0.38855  -0.38597  -0.38509  -0.37636
 Alpha  occ. eigenvalues --   -0.37498  -0.37048  -0.36757  -0.36497  -0.36010
 Alpha  occ. eigenvalues --   -0.35555  -0.35472  -0.35398  -0.35140  -0.34662
 Alpha  occ. eigenvalues --   -0.34284  -0.33674  -0.32417  -0.32258  -0.31862
 Alpha  occ. eigenvalues --   -0.31372  -0.29928  -0.29693  -0.28702  -0.28462
 Alpha  occ. eigenvalues --   -0.28039  -0.27560  -0.25599  -0.23778  -0.23583
 Alpha  occ. eigenvalues --   -0.23234  -0.22689  -0.22196  -0.21792  -0.18242
 Alpha virt. eigenvalues --   -0.13157  -0.08105  -0.04764  -0.02644  -0.01898
 Alpha virt. eigenvalues --   -0.00591   0.00803   0.01226   0.02008   0.02721
 Alpha virt. eigenvalues --    0.03354   0.03822   0.04764   0.05147   0.05220

 Mulliken charges:
               1
     1  O   -0.292313
     2  O   -0.268981
     3  O   -0.268771
     4  O   -0.226797
     5  O   -0.200536
     6  O   -0.229139
     7  N   -0.109049
     8  N   -0.185513
     9  N   -0.108096
    10  N   -0.307282
    11  C    0.075499
    12  C    0.144621
    13  C   -0.044703
    14  C   -0.131028
    15  C   -0.037713
    16  C   -0.027368
    17  C   -0.176491
    18  C    0.062131
    19  C   -0.015590
    20  C   -0.055942
    21  C    0.125410
    22  C    0.129841
    23  C   -0.024828
    24  C    0.075506
    25  C    0.083032
    26  C   -0.175123
    27  C   -0.081609
    28  C    0.094012
    29  C    0.122233
    30  C   -0.054147
    31  C   -0.078026
    32  C    0.176001
    33  C   -0.106411
    34  C    0.205295
    35  C    0.127597
    36  C   -0.098548
    37  C    0.140271
    38  C    0.128215
    39  C   -0.195171
    40  C    0.145376
    41  C   -0.091669
    42  C    0.039064
    43  C    0.021808
    44  H    0.021552
    45  H   -0.023507
    46  H   -0.000029
    47  H    0.144152
    48  H    0.140450
    49  H    0.018248
    50  H   -0.001423
    51  H   -0.060635
    52  H    0.016990
    53  H   -0.003108
    54  H    0.033429
    55  H    0.065075
    56  H    0.026036
    57  H    0.049432
    58  H    0.058799
    59  H    0.064648
    60  H    0.235559
    61  H    0.026234
    62  H    0.026053
    63  H    0.063869
    64  H    0.033766
    65  H    0.059377
    66  H   -0.038946
    67  H    0.046218
    68  H    0.015411
    69  H    0.005284
    70  H    0.033236
    71  H    0.042179
    72  H    0.214256
    73  H   -0.040177
    74  H    0.051001
    75  H    0.042565
    76  H    0.054144
    77  H    0.232532
    78  H    0.011164
    79  H    0.031096
 Sum of Mulliken charges =  -0.00000

 Dipole moment (field-independent basis, Debye):
    X=              5.6050    Y=              2.0229    Z=             -1.3759  Tot=              6.1156
 Quadrupole moment (field-independent basis, Debye-Ang):
   XX=           -220.2717   YY=           -241.4881   ZZ=           -271.0260
   XY=             -2.7519   XZ=            -21.6343   YZ=            -20.2086

 Normal termination of Gaussian 16 at Wed Jul 31 07:33:11 2019.
