 Gaussian 16, Revision A.03,
 Gaussian 16:  ES64L-G16RevA.03 25-Dec-2016

 --------------------------
 # td=(NStates=1) B3LYP/SVP
 --------------------------

 --
 TD
 --
 Symbolic Z-matrix:
 Charge =  0 Multiplicity = 1

                         Standard orientation:
 ---------------------------------------------------------------------
 Center     Atomic      Atomic             Coordinates (Angstroms)
 Number     Number       Type             X           Y           Z
 ---------------------------------------------------------------------
      1          8           0       -3.223748   -1.235319   -2.906039
      2          8           0        3.160648    3.007018    3.290151
      3          8           0        3.559637    1.203402    4.618874
      4          8           0        7.766962   -1.457240   -0.830040
      5          8           0        6.663436   -2.995435   -2.103273
      6          8           0       -2.691194    1.678738    1.492562
      7          7           0       -0.344779   -2.508912    0.834900
      8          7           0       -2.649988   -1.215682   -0.629185
      9          7           0        1.122576    0.073302   -0.769306
     10          7           0       -0.938962    1.499116   -0.168185
     11          6           0       -3.341799   -1.360151    0.629027
     12          6           0       -2.670190   -2.389103    1.517140
     13          6           0       -1.313932   -2.144009    1.799835
     14          6           0       -0.637285   -1.348276    2.759483
     15          6           0        0.684744   -1.215990    2.422166
     16          6           0        0.926816   -1.891302    1.177755
     17          6           0       -4.737486   -1.859829    0.182003
     18          6           0        1.781612   -0.482496    3.187698
     19          6           0       -4.681976   -2.073884   -1.156909
     20          6           0        2.050356   -1.865978    0.219374
     21          6           0        2.091442   -0.910513   -0.642814
     22          6           0       -3.450088   -1.422983   -1.667679
     23          6           0        3.034806   -0.641955   -1.806611
     24          6           0       -1.309506   -0.808015    3.961904
     25          6           0       -5.823506   -2.221974    1.146983
     26          6           0        2.554055    0.473003   -2.489345
     27          6           0        1.968948    0.992925    2.720142
     28          6           0        1.376640    0.998934   -1.742672
     29          6           0        4.239811   -1.412241   -2.079357
     30          6           0       -5.740834   -2.467942   -2.099160
     31          6           0        5.442412   -0.996699   -1.266599
     32          6           0        3.147869    1.117579   -3.687457
     33          6           0        0.456398    2.047869   -1.923991
     34          6           0        3.025442    1.711072    3.630863
     35          6           0       -0.588226    2.314818   -1.151471
     36          6           0       -6.868180   -3.179158   -1.806629
     37          6           0        6.678900   -1.923117   -1.479036
     38          6           0       -1.396215    3.606518   -1.142808
     39          6           0       -2.266800    3.449648   -0.133483
     40          6           0       -1.990511    2.098073    0.486760
     41          6           0       -1.202798    4.661037   -2.040624
     42          6           0       -3.340484    4.417218    0.372225
     43          6           0       -2.144560    5.775114   -2.174439
     44          1           0       -3.405788   -0.459506    1.240856
     45          1           0       -2.838372   -3.303900    1.172591
     46          1           0       -3.231618   -2.386887    2.667795
     47          1           0       -0.437518   -2.824345   -0.212498
     48          1           0       -2.241136   -0.201921   -0.583696
     49          1           0        1.403258   -0.577998    4.284164
     50          1           0        2.709409   -0.913832    3.057895
     51          1           0        2.797015   -2.555141    0.431098
     52          1           0       -1.987103   -1.481986    4.236625
     53          1           0       -0.519486   -0.285707    4.558154
     54          1           0       -1.908412    0.064014    3.599899
     55          1           0       -5.772661   -1.610683    2.097591
     56          1           0       -5.989709   -3.227761    1.431272
     57          1           0       -6.722323   -1.877770    0.606470
     58          1           0        2.609754    1.050138    1.741256
     59          1           0        0.990368    1.536651    2.537633
     60          1           0        0.391174    0.231871    0.009751
     61          1           0        4.635582   -1.032650   -3.124938
     62          1           0        4.065901   -2.547125   -1.945505
     63          1           0       -5.794546   -1.841500   -3.140356
     64          1           0        5.257452   -1.020534   -0.141958
     65          1           0        5.645158    0.274685   -1.465101
     66          1           0        3.811022    0.448070   -4.487449
     67          1           0        4.067696    2.066381   -3.434753
     68          1           0        2.285827    1.930205   -4.248296
     69          1           0        0.894359    2.769826   -2.701050
     70          1           0       -7.078689   -3.697983   -0.865225
     71          1           0       -7.384684   -3.385389   -2.801623
     72          1           0        3.735456    3.385338    4.019418
     73          1           0       -0.207175    4.830981   -2.540689
     74          1           0       -4.020039    4.488544   -0.549609
     75          1           0       -4.021760    3.833234    1.020938
     76          1           0       -3.033538    5.476120    0.902156
     77          1           0        8.384405   -2.240499   -0.654870
     78          1           0       -1.825737    6.463347   -2.853340
     79          1           0       -3.206659    5.790475   -1.573678
 ---------------------------------------------------------------------

 SCF Done:  E(RB3LYP) =  -1947.80435785     A.U. after   19 cycles

 Excitation energies and oscillator strengths:

 Excited State   1:      Singlet-A      0.9953 eV 1245.72 nm  f=0.0002  <S**2>=0.000
     155 ->156         0.70444
 This state for optimization and/or second-order correction.
 Total Energy, E(TD-HF/TD-DFT) =  -1947.76778181
 Copying the excited state density for this state as the 1-particle RhoCI density.

 The electronic state is 1-A.
 Alpha  occ. eigenvalues --  -19.20395 -19.19123 -19.14639 -19.12823 -19.11693
 Alpha  occ. eigenvalues --  -19.07692 -14.37909 -14.36753 -14.33445 -14.31367
 Alpha  occ. eigenvalues --  -10.34556 -10.32395 -10.28455 -10.27958 -10.26566
 Alpha  occ. eigenvalues --  -10.26228 -10.25430 -10.25109 -10.24802 -10.24249
 Alpha  occ. eigenvalues --  -10.23946 -10.23280 -10.22054 -10.21846 -10.21715
 Alpha  occ. eigenvalues --  -10.21712 -10.21629 -10.21121 -10.20995 -10.20862
 Alpha  occ. eigenvalues --  -10.20751 -10.20670 -10.20564 -10.19962 -10.19721
 Alpha  occ. eigenvalues --  -10.19307 -10.19302 -10.19204 -10.18658 -10.18191
 Alpha  occ. eigenvalues --  -10.17466 -10.16599 -10.16533  -1.10400  -1.09503
 Alpha  occ. eigenvalues --   -1.01097  -1.00247  -0.99846  -0.99418  -0.99040
 Alpha  occ. eigenvalues --   -0.94145  -0.93664  -0.92098  -0.84634  -0.83691
 Alpha  occ. eigenvalues --   -0.81789  -0.80442  -0.80005  -0.79337  -0.78982
 Alpha  occ. eigenvalues --   -0.77688  -0.76066  -0.74434  -0.74059  -0.72352
 Alpha  occ. eigenvalues --   -0.70557  -0.70037  -0.69968  -0.68668  -0.67735
 Alpha  occ. eigenvalues --   -0.66777  -0.66063  -0.63298  -0.61691  -0.61184
 Alpha  occ. eigenvalues --   -0.59950  -0.58877  -0.58697  -0.56868  -0.56256
 Alpha  occ. eigenvalues --   -0.55937  -0.54881  -0.54628  -0.52950  -0.52603
 Alpha  occ. eigenvalues --   -0.51849  -0.51423  -0.51031  -0.50271  -0.50032
 Alpha  occ. eigenvalues --   -0.49450  -0.49364  -0.48736  -0.48437  -0.48227
 Alpha  occ. eigenvalues --   -0.47857  -0.47171  -0.46842  -0.46166  -0.45765
 Alpha  occ. eigenvalues --   -0.45568  -0.44705  -0.44505  -0.44183  -0.43522
 Alpha  occ. eigenvalues --   -0.43286  -0.43221  -0.42954  -0.42587  -0.42222
 Alpha  occ. eigenvalues --   -0.41665  -0.41111  -0.40930  -0.40794  -0.40619
 Alpha  occ. eigenvalues --   -0.40426  -0.39959  -0.39533  -0.39502  -0.39273
 Alpha  occ. eigenvalues --   -0.38992  -0.38377  -0.38153  -0.38035  -0.37763
 Alpha  occ. eigenvalues --   -0.37234  -0.37006  -0.36979  -0.36410  -0.36166
 Alpha  occ. eigenvalues --   -0.35575  -0.35060  -0.35016  -0.34906  -0.34779
 Alpha  occ. eigenvalues --   -0.34030  -0.33807  -0.33187  -0.32525  -0.32387
 Alpha  occ. eigenvalues --   -0.31889  -0.29974  -0.29645  -0.29095  -0.28719
 Alpha  occ. eigenvalues --   -0.28025  -0.27119  -0.25592  -0.25349  -0.23685
 Alpha  occ. eigenvalues --   -0.23297  -0.23004  -0.22900  -0.22814  -0.18864
 Alpha virt. eigenvalues --   -0.12678  -0.07870  -0.04091  -0.03232  -0.03162
 Alpha virt. eigenvalues --   -0.00298  -0.00064   0.00810   0.01406   0.01448
 Alpha virt. eigenvalues --    0.02674   0.03363   0.03933   0.04540   0.04610

 Mulliken charges:
               1
     1  O   -0.291945
     2  O   -0.189176
     3  O   -0.248965
     4  O   -0.199537
     5  O   -0.241550
     6  O   -0.283846
     7  N   -0.171933
     8  N   -0.156845
     9  N   -0.118516
    10  N   -0.297619
    11  C    0.042882
    12  C    0.219101
    13  C   -0.040274
    14  C   -0.164970
    15  C   -0.110784
    16  C   -0.066711
    17  C   -0.155558
    18  C    0.152107
    19  C   -0.050741
    20  C   -0.153685
    21  C    0.238640
    22  C    0.116299
    23  C   -0.054431
    24  C    0.208410
    25  C    0.079504
    26  C   -0.009089
    27  C   -0.077938
    28  C    0.083655
    29  C    0.082920
    30  C   -0.072003
    31  C   -0.125091
    32  C   -0.152330
    33  C   -0.125874
    34  C    0.149110
    35  C    0.157020
    36  C   -0.052148
    37  C    0.182958
    38  C    0.114153
    39  C   -0.196426
    40  C    0.191102
    41  C   -0.121269
    42  C    0.041830
    43  C   -0.013440
    44  H    0.035972
    45  H   -0.076590
    46  H    0.006003
    47  H    0.159985
    48  H    0.183530
    49  H    0.039512
    50  H   -0.032787
    51  H   -0.010499
    52  H   -0.026016
    53  H   -0.004566
    54  H    0.016599
    55  H    0.019980
    56  H    0.033229
    57  H    0.031803
    58  H    0.040904
    59  H    0.072906
    60  H    0.225836
    61  H    0.029513
    62  H    0.057422
    63  H    0.058374
    64  H    0.052777
    65  H    0.072457
    66  H    0.087071
    67  H    0.054891
    68  H    0.069801
    69  H   -0.002931
    70  H    0.019886
    71  H    0.038250
    72  H    0.191351
    73  H    0.018223
    74  H    0.038603
    75  H    0.019201
    76  H    0.077152
    77  H    0.212236
    78  H    0.002876
    79  H    0.070050
 Sum of Mulliken charges =  -0.00000

 Dipole moment (field-independent basis, Debye):
    X=              4.5667    Y=              3.1592    Z=             -0.1588  Tot=              5.5552
 Quadrupole moment (field-independent basis, Debye-Ang):
   XX=           -230.1543   YY=           -238.1802   ZZ=           -274.6266
   XY=              4.4038   XZ=            -16.9275   YZ=            -13.6643

 Normal termination of Gaussian 16 at Sun Jul 28 04:32:56 2019.
