 Gaussian 16, Revision A.03,
 Gaussian 16:  ES64L-G16RevA.03 25-Dec-2016

 --------------------------
 # td=(NStates=1) B3LYP/SVP
 --------------------------

 --
 TD
 --
 Symbolic Z-matrix:
 Charge =  0 Multiplicity = 1

                         Standard orientation:
 ---------------------------------------------------------------------
 Center     Atomic      Atomic             Coordinates (Angstroms)
 Number     Number       Type             X           Y           Z
 ---------------------------------------------------------------------
      1          8           0        5.367445   -0.068291   -3.271432
      2          8           0       -3.250809   -2.852952    3.084073
      3          8           0       -3.426467   -0.608036    2.936804
      4          8           0       -1.828235    7.221094    1.304739
      5          8           0       -0.805989    6.953817   -0.582038
      6          8           0       -1.493657   -3.917996    0.197312
      7          7           0        2.215339    1.026178    0.623714
      8          7           0        4.414083   -0.544673   -1.307456
      9          7           0       -1.887404    0.700926   -0.269540
     10          7           0       -2.395022   -1.888344   -0.569450
     11          6           0        4.745294   -1.163249    0.046016
     12          6           0        4.280933   -0.294683    1.196165
     13          6           0        2.846312    0.081511    1.349951
     14          6           0        1.896021   -0.599607    2.097960
     15          6           0        0.614664    0.058099    1.831398
     16          6           0        0.908424    1.091396    0.909344
     17          6           0        6.278077   -1.277340   -0.072782
     18          6           0       -0.700344   -0.140336    2.629504
     19          6           0        6.643440   -0.828207   -1.369207
     20          6           0        0.078391    2.101697    0.251495
     21          6           0       -1.180435    1.841928   -0.274764
     22          6           0        5.415502   -0.413384   -2.085617
     23          6           0       -2.023408    2.864692   -0.923683
     24          6           0        2.232660   -1.639577    3.156786
     25          6           0        7.087407   -1.917979    0.950581
     26          6           0       -3.191247    2.315792   -1.322797
     27          6           0       -1.146292   -1.568912    2.719200
     28          6           0       -2.962122    0.834452   -1.005230
     29          6           0       -1.680576    4.273884   -1.009315
     30          6           0        8.010551   -0.518775   -1.901133
     31          6           0       -1.840181    5.063724    0.327282
     32          6           0       -4.417774    2.759934   -2.032357
     33          6           0       -3.902186   -0.210252   -1.301167
     34          6           0       -2.712344   -1.666875    2.951727
     35          6           0       -3.523435   -1.591599   -1.143322
     36          6           0        9.221390   -0.614402   -1.407015
     37          6           0       -1.443877    6.431960    0.259643
     38          6           0       -4.359609   -2.841190   -1.530635
     39          6           0       -3.613351   -3.871410   -1.081950
     40          6           0       -2.395225   -3.334236   -0.477746
     41          6           0       -5.600200   -2.683320   -2.087277
     42          6           0       -3.931841   -5.307547   -1.171240
     43          6           0       -6.410944   -3.700182   -2.432869
     44          1           0        4.301454   -2.229179    0.200727
     45          1           0        4.919547    0.600420    1.347326
     46          1           0        4.698858   -0.846295    2.263093
     47          1           0        2.912505    1.470431   -0.171446
     48          1           0        3.435692   -0.600695   -1.572453
     49          1           0       -0.463114    0.376057    3.621660
     50          1           0       -1.365028    0.482187    1.940370
     51          1           0        0.589007    2.944958    0.108532
     52          1           0        3.309061   -1.775014    3.359590
     53          1           0        1.924869   -1.300468    4.093175
     54          1           0        1.713188   -2.530612    2.861163
     55          1           0        6.421903   -2.456302    1.596649
     56          1           0        7.407506   -1.035442    1.673575
     57          1           0        8.067441   -2.625756    0.818708
     58          1           0       -1.078172   -1.953184    1.562953
     59          1           0       -0.650653   -2.274301    3.400912
     60          1           0       -1.586179   -0.308336   -0.076975
     61          1           0       -2.417898    4.568259   -1.853022
     62          1           0       -0.679989    4.518421   -1.428877
     63          1           0        7.830641   -0.166981   -3.037344
     64          1           0       -1.189914    4.642327    1.231227
     65          1           0       -2.898263    4.834904    0.829781
     66          1           0       -4.374531    3.796942   -2.192888
     67          1           0       -5.446318    2.769037   -1.362832
     68          1           0       -4.542759    2.145672   -3.005577
     69          1           0       -4.854847    0.060023   -1.725112
     70          1           0        9.463963   -0.779077   -0.135749
     71          1           0        9.996595   -0.478850   -1.975442
     72          1           0       -4.155771   -2.760658    2.989046
     73          1           0       -5.945331   -1.747858   -2.366333
     74          1           0       -4.876143   -5.733172   -0.565801
     75          1           0       -4.282838   -5.650343   -2.267198
     76          1           0       -3.241028   -5.966290   -0.923937
     77          1           0       -1.759002    8.193617    1.010110
     78          1           0       -7.493210   -3.550547   -2.986746
     79          1           0       -5.960573   -4.729656   -2.239089
 ---------------------------------------------------------------------

 SCF Done:  E(RB3LYP) =  -1947.83799322     A.U. after   16 cycles

 Excitation energies and oscillator strengths:

 Excited State   1:      Singlet-A      2.0443 eV  606.48 nm  f=0.3574  <S**2>=0.000
     155 ->156         0.70222
 This state for optimization and/or second-order correction.
 Total Energy, E(TD-HF/TD-DFT) =  -1947.76286551
 Copying the excited state density for this state as the 1-particle RhoCI density.

 The electronic state is 1-A.
 Alpha  occ. eigenvalues --  -19.18074 -19.16989 -19.12510 -19.10863 -19.10077
 Alpha  occ. eigenvalues --  -19.08326 -14.38975 -14.37413 -14.36265 -14.29935
 Alpha  occ. eigenvalues --  -10.31696 -10.31067 -10.27539 -10.27404 -10.26534
 Alpha  occ. eigenvalues --  -10.25112 -10.24457 -10.23619 -10.23138 -10.23126
 Alpha  occ. eigenvalues --  -10.22975 -10.22594 -10.22361 -10.22131 -10.21782
 Alpha  occ. eigenvalues --  -10.21728 -10.21725 -10.21517 -10.21185 -10.21163
 Alpha  occ. eigenvalues --  -10.20776 -10.20616 -10.20537 -10.20385 -10.20226
 Alpha  occ. eigenvalues --  -10.20224 -10.19866 -10.19551 -10.19490 -10.19297
 Alpha  occ. eigenvalues --  -10.18937 -10.18359 -10.18324  -1.10415  -1.10171
 Alpha  occ. eigenvalues --   -1.02236  -1.01021  -1.00020  -0.99586  -0.99177
 Alpha  occ. eigenvalues --   -0.96222  -0.93893  -0.92516  -0.84067  -0.82829
 Alpha  occ. eigenvalues --   -0.82334  -0.81484  -0.79915  -0.79443  -0.78568
 Alpha  occ. eigenvalues --   -0.77549  -0.76587  -0.75328  -0.74802  -0.72742
 Alpha  occ. eigenvalues --   -0.71910  -0.71321  -0.70362  -0.69394  -0.69074
 Alpha  occ. eigenvalues --   -0.66916  -0.66518  -0.64170  -0.62018  -0.61755
 Alpha  occ. eigenvalues --   -0.60431  -0.59756  -0.58343  -0.57714  -0.57141
 Alpha  occ. eigenvalues --   -0.56378  -0.55764  -0.54428  -0.54294  -0.53443
 Alpha  occ. eigenvalues --   -0.52583  -0.51816  -0.51405  -0.50684  -0.49758
 Alpha  occ. eigenvalues --   -0.49170  -0.48508  -0.48236  -0.47912  -0.47750
 Alpha  occ. eigenvalues --   -0.47274  -0.47083  -0.46627  -0.46138  -0.46015
 Alpha  occ. eigenvalues --   -0.45504  -0.44613  -0.44298  -0.44057  -0.43834
 Alpha  occ. eigenvalues --   -0.43616  -0.43315  -0.43157  -0.42870  -0.42666
 Alpha  occ. eigenvalues --   -0.42260  -0.41983  -0.41760  -0.41636  -0.41358
 Alpha  occ. eigenvalues --   -0.41265  -0.40866  -0.40479  -0.39721  -0.39492
 Alpha  occ. eigenvalues --   -0.39284  -0.39159  -0.38745  -0.38627  -0.38534
 Alpha  occ. eigenvalues --   -0.38170  -0.37915  -0.37651  -0.37087  -0.36059
 Alpha  occ. eigenvalues --   -0.35761  -0.35492  -0.35160  -0.34660  -0.34153
 Alpha  occ. eigenvalues --   -0.33707  -0.32599  -0.32232  -0.31977  -0.31605
 Alpha  occ. eigenvalues --   -0.31004  -0.29610  -0.28995  -0.28530  -0.28271
 Alpha  occ. eigenvalues --   -0.26919  -0.26608  -0.25443  -0.24687  -0.24581
 Alpha  occ. eigenvalues --   -0.24039  -0.23848  -0.23465  -0.22819  -0.19230
 Alpha virt. eigenvalues --   -0.10900  -0.06998  -0.06274  -0.00747  -0.00351
 Alpha virt. eigenvalues --    0.00868   0.01114   0.01909   0.02501   0.02864
 Alpha virt. eigenvalues --    0.03290   0.03921   0.04137   0.04389   0.04919

 Mulliken charges:
               1
     1  O   -0.261184
     2  O   -0.093211
     3  O   -0.310113
     4  O   -0.239654
     5  O   -0.195089
     6  O   -0.243594
     7  N   -0.079660
     8  N   -0.117084
     9  N   -0.003715
    10  N   -0.290736
    11  C    0.094615
    12  C    0.060383
    13  C   -0.085269
    14  C   -0.147494
    15  C   -0.169848
    16  C    0.019280
    17  C   -0.156251
    18  C    0.131541
    19  C   -0.080438
    20  C   -0.059545
    21  C    0.140256
    22  C    0.102117
    23  C   -0.104947
    24  C    0.144499
    25  C    0.040724
    26  C   -0.103286
    27  C   -0.071993
    28  C    0.041539
    29  C    0.086430
    30  C   -0.013255
    31  C   -0.065256
    32  C    0.067331
    33  C   -0.100990
    34  C    0.130595
    35  C    0.057559
    36  C   -0.015111
    37  C    0.127691
    38  C    0.144873
    39  C   -0.145303
    40  C    0.179469
    41  C   -0.036767
    42  C    0.067680
    43  C   -0.060664
    44  H    0.052973
    45  H   -0.002375
    46  H    0.023792
    47  H    0.172860
    48  H    0.131678
    49  H    0.028928
    50  H    0.026083
    51  H   -0.062110
    52  H   -0.015156
    53  H   -0.003520
    54  H    0.037506
    55  H    0.003083
    56  H    0.043887
    57  H    0.079846
    58  H    0.112645
    59  H    0.033249
    60  H    0.183659
    61  H    0.028306
    62  H    0.027631
    63  H    0.047462
    64  H    0.073233
    65  H    0.061350
    66  H   -0.009177
    67  H    0.051096
    68  H    0.061634
    69  H   -0.032139
    70  H    0.038128
    71  H   -0.022128
    72  H    0.151414
    73  H   -0.045614
    74  H    0.038379
    75  H    0.038405
    76  H   -0.026993
    77  H    0.206096
    78  H    0.059344
    79  H    0.020422
 Sum of Mulliken charges =  -0.00000

 Dipole moment (field-independent basis, Debye):
    X=             -2.0906    Y=              0.7728    Z=              2.1496  Tot=              3.0966
 Quadrupole moment (field-independent basis, Debye-Ang):
   XX=           -222.0958   YY=           -244.8216   ZZ=           -267.0035
   XY=             -6.5754   XZ=             43.2659   YZ=              1.4129

 Normal termination of Gaussian 16 at Sat Sep 14 15:28:27 2019.
