 Gaussian 16, Revision A.03,
 Gaussian 16:  ES64L-G16RevA.03 25-Dec-2016

 --------------------------
 # td=(NStates=1) B3LYP/SVP
 --------------------------

 --
 TD
 --
 Symbolic Z-matrix:
 Charge =  0 Multiplicity = 1

                         Standard orientation:
 ---------------------------------------------------------------------
 Center     Atomic      Atomic             Coordinates (Angstroms)
 Number     Number       Type             X           Y           Z
 ---------------------------------------------------------------------
      1          8           0        5.236126   -0.002687   -3.284785
      2          8           0       -3.039191   -2.995789    3.181745
      3          8           0       -3.324955   -0.812435    3.098876
      4          8           0       -1.959398    7.113624    1.382560
      5          8           0       -0.761299    7.035409   -0.502975
      6          8           0       -1.427954   -3.949290    0.042464
      7          7           0        2.309589    1.084529    0.628249
      8          7           0        4.299804   -0.418542   -1.231460
      9          7           0       -1.815972    0.720959   -0.516228
     10          7           0       -2.433559   -1.910965   -0.535938
     11          6           0        4.676566   -1.126678   -0.040981
     12          6           0        4.375708   -0.263256    1.345256
     13          6           0        2.937684    0.018794    1.360884
     14          6           0        1.969872   -0.646427    2.142403
     15          6           0        0.698970   -0.070529    1.860600
     16          6           0        0.919671    0.966696    0.893921
     17          6           0        6.209790   -1.238766   -0.190300
     18          6           0       -0.598384   -0.291697    2.648406
     19          6           0        6.568500   -0.764975   -1.376822
     20          6           0        0.102123    2.007707    0.299891
     21          6           0       -1.160827    1.915204   -0.236501
     22          6           0        5.360420   -0.442800   -2.162442
     23          6           0       -2.041040    2.913384   -0.764765
     24          6           0        2.174413   -1.721741    3.153664
     25          6           0        7.082483   -1.844473    0.821674
     26          6           0       -3.223926    2.349259   -1.159841
     27          6           0       -1.090974   -1.754028    2.693204
     28          6           0       -3.005976    0.872143   -1.066841
     29          6           0       -1.718159    4.354640   -0.931602
     30          6           0        7.812451   -0.686997   -2.078919
     31          6           0       -1.842543    5.112872    0.427612
     32          6           0       -4.424189    2.887301   -1.998202
     33          6           0       -3.843835   -0.172725   -1.322568
     34          6           0       -2.548402   -1.733879    2.925458
     35          6           0       -3.534006   -1.555475   -1.129297
     36          6           0        9.088634   -0.437368   -1.425962
     37          6           0       -1.450544    6.497634    0.293109
     38          6           0       -4.415855   -2.705418   -1.581983
     39          6           0       -3.652400   -3.858885   -1.175189
     40          6           0       -2.366819   -3.313135   -0.525207
     41          6           0       -5.657450   -2.611498   -2.197330
     42          6           0       -3.950226   -5.284879   -1.153434
     43          6           0       -6.549715   -3.616424   -2.515200
     44          1           0        4.160854   -2.149662    0.150793
     45          1           0        4.880990    0.590198    1.244397
     46          1           0        4.664492   -0.943010    2.109164
     47          1           0        3.072333    1.474041    0.006945
     48          1           0        3.267679   -0.380963   -1.408431
     49          1           0       -0.427014    0.330801    3.635715
     50          1           0       -1.162224    0.420972    1.842199
     51          1           0        0.410115    3.130888    0.202839
     52          1           0        3.306645   -2.056059    3.207666
     53          1           0        1.656540   -1.680044    4.192613
     54          1           0        1.828663   -2.697052    2.903498
     55          1           0        6.635687   -2.605818    1.611860
     56          1           0        7.378120   -1.194306    1.625520
     57          1           0        7.816376   -2.349250    0.284161
     58          1           0       -0.961583   -2.238795    1.706804
     59          1           0       -0.744277   -2.531607    3.382143
     60          1           0       -1.496536   -0.204293   -0.078884
     61          1           0       -2.326393    4.745428   -1.804145
     62          1           0       -0.522163    4.562860   -1.239938
     63          1           0        7.783399   -0.672731   -3.184331
     64          1           0       -1.273889    4.712905    1.239379
     65          1           0       -2.794009    5.241396    1.067650
     66          1           0       -4.323357    3.830205   -2.366534
     67          1           0       -5.359661    2.997033   -1.455987
     68          1           0       -4.554918    2.301744   -2.888130
     69          1           0       -4.898326    0.081668   -1.631653
     70          1           0        9.446101   -0.427780   -0.234982
     71          1           0        9.974617   -0.264733   -2.144835
     72          1           0       -4.031584   -3.131096    3.250852
     73          1           0       -5.782312   -1.593694   -2.632896
     74          1           0       -4.789014   -5.335481   -0.526683
     75          1           0       -4.202392   -5.727237   -2.067525
     76          1           0       -3.082913   -5.919623   -0.713190
     77          1           0       -1.502254    7.939527    1.466282
     78          1           0       -7.358185   -3.434841   -3.238281
     79          1           0       -6.407340   -4.785606   -2.265671
 ---------------------------------------------------------------------

 SCF Done:  E(RB3LYP) =  -1947.87163196     A.U. after   17 cycles

 Excitation energies and oscillator strengths:

 Excited State   1:      Singlet-A      1.9860 eV  624.30 nm  f=0.3811  <S**2>=0.000
     154 ->156         0.12900
     155 ->156         0.69080
 This state for optimization and/or second-order correction.
 Total Energy, E(TD-HF/TD-DFT) =  -1947.79864925
 Copying the excited state density for this state as the 1-particle RhoCI density.

 The electronic state is 1-A.
 Alpha  occ. eigenvalues --  -19.17961 -19.14856 -19.13379 -19.10793 -19.10658
 Alpha  occ. eigenvalues --  -19.10287 -14.38733 -14.36196 -14.35637 -14.29085
 Alpha  occ. eigenvalues --  -10.31718 -10.30105 -10.28949 -10.27126 -10.25416
 Alpha  occ. eigenvalues --  -10.24404 -10.24189 -10.23795 -10.23436 -10.22927
 Alpha  occ. eigenvalues --  -10.22865 -10.22812 -10.22478 -10.22160 -10.21880
 Alpha  occ. eigenvalues --  -10.21697 -10.21421 -10.21108 -10.21069 -10.20979
 Alpha  occ. eigenvalues --  -10.20895 -10.20862 -10.20839 -10.20653 -10.20429
 Alpha  occ. eigenvalues --  -10.20377 -10.20161 -10.20019 -10.19732 -10.19576
 Alpha  occ. eigenvalues --  -10.19127 -10.18757 -10.18368  -1.11222  -1.05939
 Alpha  occ. eigenvalues --   -1.03188  -1.02399  -0.99414  -0.98966  -0.96682
 Alpha  occ. eigenvalues --   -0.96376  -0.94072  -0.92021  -0.83089  -0.83025
 Alpha  occ. eigenvalues --   -0.81617  -0.80992  -0.80620  -0.79486  -0.78699
 Alpha  occ. eigenvalues --   -0.76923  -0.76563  -0.75803  -0.74536  -0.72828
 Alpha  occ. eigenvalues --   -0.71517  -0.71503  -0.69483  -0.69079  -0.68151
 Alpha  occ. eigenvalues --   -0.67420  -0.66038  -0.64087  -0.61240  -0.60737
 Alpha  occ. eigenvalues --   -0.60008  -0.59069  -0.58940  -0.58105  -0.57573
 Alpha  occ. eigenvalues --   -0.55661  -0.55464  -0.54721  -0.53681  -0.52605
 Alpha  occ. eigenvalues --   -0.52066  -0.51861  -0.51013  -0.50478  -0.49793
 Alpha  occ. eigenvalues --   -0.48924  -0.48537  -0.47921  -0.47831  -0.47384
 Alpha  occ. eigenvalues --   -0.47166  -0.46715  -0.46503  -0.45610  -0.45353
 Alpha  occ. eigenvalues --   -0.45012  -0.44811  -0.44391  -0.44008  -0.43866
 Alpha  occ. eigenvalues --   -0.43568  -0.42964  -0.42672  -0.42434  -0.42325
 Alpha  occ. eigenvalues --   -0.42194  -0.41801  -0.41344  -0.41160  -0.40973
 Alpha  occ. eigenvalues --   -0.40751  -0.40537  -0.40176  -0.40054  -0.39795
 Alpha  occ. eigenvalues --   -0.39545  -0.39339  -0.38816  -0.38612  -0.38509
 Alpha  occ. eigenvalues --   -0.38195  -0.37876  -0.37763  -0.37052  -0.36925
 Alpha  occ. eigenvalues --   -0.36350  -0.36004  -0.35118  -0.34544  -0.34424
 Alpha  occ. eigenvalues --   -0.34333  -0.33590  -0.33546  -0.31950  -0.31572
 Alpha  occ. eigenvalues --   -0.31195  -0.29588  -0.29248  -0.28721  -0.27351
 Alpha  occ. eigenvalues --   -0.26945  -0.26184  -0.26154  -0.25623  -0.24810
 Alpha  occ. eigenvalues --   -0.24277  -0.23963  -0.23061  -0.21666  -0.18997
 Alpha virt. eigenvalues --   -0.10944  -0.07046  -0.06516  -0.01363  -0.00758
 Alpha virt. eigenvalues --    0.00013   0.00785   0.01882   0.02964   0.03554
 Alpha virt. eigenvalues --    0.03830   0.04052   0.05111   0.05328   0.05540

 Mulliken charges:
               1
     1  O   -0.203388
     2  O   -0.254859
     3  O   -0.231957
     4  O   -0.181356
     5  O   -0.190126
     6  O   -0.249133
     7  N   -0.153174
     8  N   -0.223377
     9  N   -0.072903
    10  N   -0.241902
    11  C   -0.002394
    12  C    0.338863
    13  C   -0.158600
    14  C   -0.072732
    15  C   -0.106331
    16  C    0.090358
    17  C   -0.133314
    18  C    0.036053
    19  C   -0.023519
    20  C   -0.079057
    21  C    0.025663
    22  C    0.167661
    23  C   -0.026279
    24  C    0.060414
    25  C    0.083349
    26  C   -0.115557
    27  C    0.049163
    28  C    0.077258
    29  C    0.015689
    30  C   -0.041081
    31  C    0.000278
    32  C    0.147243
    33  C   -0.128674
    34  C    0.123954
    35  C    0.076955
    36  C   -0.115328
    37  C    0.101067
    38  C    0.051043
    39  C   -0.214160
    40  C    0.183601
    41  C   -0.039394
    42  C    0.116049
    43  C   -0.079008
    44  H    0.039438
    45  H   -0.064438
    46  H   -0.016260
    47  H    0.152702
    48  H    0.146069
    49  H    0.054896
    50  H    0.040898
    51  H    0.012354
    52  H   -0.003456
    53  H    0.032151
    54  H    0.010243
    55  H    0.014128
    56  H    0.025621
    57  H    0.031215
    58  H    0.066454
    59  H    0.036242
    60  H    0.171387
    61  H    0.036763
    62  H    0.058306
    63  H    0.038902
    64  H    0.028572
    65  H    0.047485
    66  H   -0.032572
    67  H    0.020363
    68  H    0.024065
    69  H   -0.008238
    70  H    0.069710
    71  H    0.045868
    72  H    0.198870
    73  H    0.004348
    74  H    0.019486
    75  H    0.012955
    76  H    0.041803
    77  H    0.159754
    78  H    0.030084
    79  H    0.046773
 Sum of Mulliken charges =  -0.00000

 Dipole moment (field-independent basis, Debye):
    X=              0.8315    Y=              1.2617    Z=              2.7167  Tot=              3.1087
 Quadrupole moment (field-independent basis, Debye-Ang):
   XX=           -219.5293   YY=           -244.7142   ZZ=           -262.0758
   XY=             -6.8504   XZ=             34.3083   YZ=              5.8794

 Normal termination of Gaussian 16 at Thu Sep 26 22:57:59 2019.
