 Gaussian 16, Revision A.03,
 Gaussian 16:  ES64L-G16RevA.03 25-Dec-2016

 --------------------------
 # td=(NStates=1) B3LYP/SVP
 --------------------------

 --
 TD
 --
 Symbolic Z-matrix:
 Charge =  0 Multiplicity = 1

                         Standard orientation:
 ---------------------------------------------------------------------
 Center     Atomic      Atomic             Coordinates (Angstroms)
 Number     Number       Type             X           Y           Z
 ---------------------------------------------------------------------
      1          8           0       -3.265063   -1.384650   -2.885642
      2          8           0        2.853492    3.280326    2.971598
      3          8           0        3.402110    1.649054    4.457123
      4          8           0        7.661086   -1.684554   -0.380815
      5          8           0        6.744457   -2.938783   -2.088515
      6          8           0       -2.656456    1.682832    1.454904
      7          7           0       -0.200305   -2.550114    0.952241
      8          7           0       -2.548671   -1.269040   -0.643055
      9          7           0        0.984094    0.032419   -0.800920
     10          7           0       -0.982061    1.440090   -0.193765
     11          6           0       -3.266375   -1.462808    0.615723
     12          6           0       -2.551878   -2.475681    1.546179
     13          6           0       -1.097741   -2.168308    1.783782
     14          6           0       -0.594241   -1.274163    2.790801
     15          6           0        0.771130   -1.145872    2.465380
     16          6           0        0.941201   -1.872359    1.357909
     17          6           0       -4.726185   -1.960531    0.269787
     18          6           0        1.771623   -0.295535    3.170515
     19          6           0       -4.759048   -2.003937   -1.058858
     20          6           0        2.118153   -1.850992    0.315871
     21          6           0        2.099287   -1.011597   -0.699634
     22          6           0       -3.521662   -1.485684   -1.730830
     23          6           0        2.975337   -0.686091   -1.829214
     24          6           0       -1.377774   -0.686710    3.861067
     25          6           0       -5.702890   -2.318433    1.297154
     26          6           0        2.471191    0.438124   -2.428731
     27          6           0        1.869755    1.217554    2.599824
     28          6           0        1.377726    0.824466   -1.861078
     29          6           0        4.335079   -1.446052   -2.083788
     30          6           0       -5.852292   -2.336213   -2.081101
     31          6           0        5.490454   -1.182674   -1.038705
     32          6           0        3.126920    1.102563   -3.679572
     33          6           0        0.549388    1.977559   -2.063499
     34          6           0        2.789693    2.039894    3.429109
     35          6           0       -0.637319    2.237699   -1.277822
     36          6           0       -6.898274   -3.169263   -1.688680
     37          6           0        6.689646   -2.062754   -1.209153
     38          6           0       -1.335105    3.577520   -1.176268
     39          6           0       -2.252358    3.441238   -0.090602
     40          6           0       -2.008083    2.039285    0.492886
     41          6           0       -1.278239    4.613735   -2.215609
     42          6           0       -3.327382    4.420506    0.357420
     43          6           0       -1.776000    5.902896   -2.325574
     44          1           0       -3.486527   -0.529920    1.101274
     45          1           0       -2.693308   -3.365747    1.238288
     46          1           0       -2.838455   -2.750905    2.518848
     47          1           0       -0.444694   -2.719983   -0.077630
     48          1           0       -2.065140   -0.439701   -0.705502
     49          1           0        1.381198   -0.226495    4.104088
     50          1           0        2.746205   -0.686991    3.004086
     51          1           0        3.059596   -2.623979    0.418880
     52          1           0       -2.155075   -1.373917    4.286079
     53          1           0       -0.692995   -0.530741    4.794104
     54          1           0       -1.853259    0.212553    3.339348
     55          1           0       -5.534920   -1.787776    2.148059
     56          1           0       -5.618931   -3.401058    1.530750
     57          1           0       -6.575547   -2.169510    0.670341
     58          1           0        2.131576    1.155024    1.521754
     59          1           0        0.820397    1.807935    2.524208
     60          1           0        0.263240    0.274450   -0.262647
     61          1           0        4.520445   -1.151854   -3.050516
     62          1           0        4.169137   -2.490146   -2.238308
     63          1           0       -5.866795   -1.915398   -3.170443
     64          1           0        5.213306   -1.408552    0.139499
     65          1           0        5.779483   -0.014211   -1.111165
     66          1           0        3.878720    0.310625   -4.157753
     67          1           0        3.595230    1.951310   -3.314594
     68          1           0        2.394163    1.409739   -4.605975
     69          1           0        0.920576    2.476697   -2.958942
     70          1           0       -6.843243   -3.694155   -0.631219
     71          1           0       -7.697115   -3.620885   -2.255894
     72          1           0        3.336653    4.113197    3.466403
     73          1           0       -0.654013    4.188652   -3.141496
     74          1           0       -4.183102    4.787762   -0.229917
     75          1           0       -3.772776    4.059024    1.290062
     76          1           0       -2.794903    5.550269    0.672645
     77          1           0        8.559363   -2.227109   -0.504141
     78          1           0       -1.607927    6.627463   -3.114524
     79          1           0       -2.561388    6.172763   -1.556916
 ---------------------------------------------------------------------

 SCF Done:  E(RB3LYP) =  -1947.78015575     A.U. after   20 cycles

 Excitation energies and oscillator strengths:

 Excited State   1:      Singlet-A      0.8561 eV 1448.29 nm  f=0.0005  <S**2>=0.000
     155 ->156         0.70503
 This state for optimization and/or second-order correction.
 Total Energy, E(TD-HF/TD-DFT) =  -1947.74869560
 Copying the excited state density for this state as the 1-particle RhoCI density.

 The electronic state is 1-A.
 Alpha  occ. eigenvalues --  -19.21040 -19.18036 -19.13807 -19.11734 -19.10785
 Alpha  occ. eigenvalues --  -19.10229 -14.36199 -14.35580 -14.31805 -14.30778
 Alpha  occ. eigenvalues --  -10.33931 -10.31450 -10.28003 -10.27372 -10.26060
 Alpha  occ. eigenvalues --  -10.25559 -10.25143 -10.24943 -10.24323 -10.24028
 Alpha  occ. eigenvalues --  -10.23266 -10.22277 -10.22161 -10.21932 -10.21649
 Alpha  occ. eigenvalues --  -10.21612 -10.21309 -10.21001 -10.20960 -10.20920
 Alpha  occ. eigenvalues --  -10.20592 -10.20566 -10.20524 -10.20173 -10.19570
 Alpha  occ. eigenvalues --  -10.18985 -10.18951 -10.18878 -10.17939 -10.17686
 Alpha  occ. eigenvalues --  -10.16660 -10.16438 -10.15609  -1.10271  -1.07077
 Alpha  occ. eigenvalues --   -1.03034  -1.02965  -1.00874  -0.98644  -0.98026
 Alpha  occ. eigenvalues --   -0.96919  -0.92251  -0.91064  -0.84139  -0.82325
 Alpha  occ. eigenvalues --   -0.81154  -0.80470  -0.79449  -0.78786  -0.77560
 Alpha  occ. eigenvalues --   -0.75733  -0.75509  -0.74497  -0.73869  -0.72507
 Alpha  occ. eigenvalues --   -0.71351  -0.70725  -0.70561  -0.69291  -0.67325
 Alpha  occ. eigenvalues --   -0.66657  -0.65511  -0.63210  -0.61625  -0.60492
 Alpha  occ. eigenvalues --   -0.59783  -0.58831  -0.58181  -0.58088  -0.56726
 Alpha  occ. eigenvalues --   -0.55770  -0.54825  -0.53782  -0.53447  -0.52323
 Alpha  occ. eigenvalues --   -0.51582  -0.50916  -0.50739  -0.50389  -0.49383
 Alpha  occ. eigenvalues --   -0.49188  -0.48628  -0.48497  -0.47957  -0.47330
 Alpha  occ. eigenvalues --   -0.46735  -0.46608  -0.46134  -0.45441  -0.45200
 Alpha  occ. eigenvalues --   -0.45146  -0.44611  -0.44289  -0.43825  -0.43561
 Alpha  occ. eigenvalues --   -0.43233  -0.42833  -0.42711  -0.42670  -0.42396
 Alpha  occ. eigenvalues --   -0.42071  -0.41519  -0.41360  -0.41268  -0.41227
 Alpha  occ. eigenvalues --   -0.40479  -0.40159  -0.39977  -0.39309  -0.39066
 Alpha  occ. eigenvalues --   -0.38616  -0.38603  -0.38341  -0.38240  -0.37931
 Alpha  occ. eigenvalues --   -0.37430  -0.37095  -0.36314  -0.36094  -0.35756
 Alpha  occ. eigenvalues --   -0.35688  -0.35475  -0.35140  -0.34590  -0.33999
 Alpha  occ. eigenvalues --   -0.33875  -0.33580  -0.32469  -0.31606  -0.30747
 Alpha  occ. eigenvalues --   -0.30359  -0.29847  -0.29426  -0.29158  -0.28991
 Alpha  occ. eigenvalues --   -0.27722  -0.26312  -0.25936  -0.25071  -0.24691
 Alpha  occ. eigenvalues --   -0.23646  -0.23190  -0.22583  -0.22377  -0.18315
 Alpha virt. eigenvalues --   -0.12678  -0.07763  -0.03898  -0.02023  -0.01864
 Alpha virt. eigenvalues --    0.00035   0.00760   0.00969   0.01445   0.01936
 Alpha virt. eigenvalues --    0.02888   0.03268   0.04286   0.05078   0.05492

 Mulliken charges:
               1
     1  O   -0.176401
     2  O   -0.241851
     3  O   -0.276380
     4  O   -0.213778
     5  O   -0.252937
     6  O   -0.203720
     7  N    0.001746
     8  N   -0.233865
     9  N   -0.092001
    10  N   -0.343513
    11  C    0.103855
    12  C    0.361465
    13  C   -0.222243
    14  C   -0.141892
    15  C   -0.090131
    16  C   -0.078934
    17  C   -0.204544
    18  C    0.274480
    19  C   -0.090159
    20  C   -0.197077
    21  C    0.202159
    22  C    0.145860
    23  C   -0.099753
    24  C    0.039431
    25  C    0.165139
    26  C   -0.103531
    27  C   -0.110307
    28  C    0.061347
    29  C    0.236193
    30  C   -0.006442
    31  C   -0.098156
    32  C    0.034880
    33  C   -0.048526
    34  C    0.190676
    35  C    0.143965
    36  C   -0.087763
    37  C    0.171591
    38  C    0.026842
    39  C   -0.152590
    40  C    0.187031
    41  C   -0.056102
    42  C   -0.000550
    43  C   -0.038848
    44  H    0.027927
    45  H   -0.124756
    46  H   -0.046709
    47  H    0.157831
    48  H    0.115557
    49  H   -0.032831
    50  H   -0.012751
    51  H    0.050463
    52  H    0.001716
    53  H    0.017523
    54  H    0.065978
    55  H   -0.002029
    56  H    0.038269
    57  H    0.038755
    58  H    0.037641
    59  H    0.072485
    60  H    0.095389
    61  H   -0.042210
    62  H    0.015392
    63  H    0.050533
    64  H    0.078766
    65  H    0.073853
    66  H    0.052662
    67  H    0.026522
    68  H    0.067898
    69  H   -0.029858
    70  H    0.025885
    71  H    0.022347
    72  H    0.244708
    73  H    0.018767
    74  H    0.047793
    75  H    0.026019
    76  H    0.040910
    77  H    0.235642
    78  H    0.033690
    79  H    0.025559
 Sum of Mulliken charges =  -0.00000

 Dipole moment (field-independent basis, Debye):
    X=              4.1283    Y=              2.0415    Z=             -1.7641  Tot=              4.9318
 Quadrupole moment (field-independent basis, Debye-Ang):
   XX=           -218.6396   YY=           -234.4831   ZZ=           -271.7567
   XY=              7.2129   XZ=            -18.1440   YZ=            -12.5130

 Normal termination of Gaussian 16 at Thu Jul 25 07:57:30 2019.
