 Gaussian 16, Revision A.03,
 Gaussian 16:  ES64L-G16RevA.03 25-Dec-2016

 --------------------------
 # td=(NStates=1) B3LYP/SVP
 --------------------------

 --
 TD
 --
 Symbolic Z-matrix:
 Charge =  0 Multiplicity = 1

                         Standard orientation:
 ---------------------------------------------------------------------
 Center     Atomic      Atomic             Coordinates (Angstroms)
 Number     Number       Type             X           Y           Z
 ---------------------------------------------------------------------
      1          8           0        5.100757    0.024907   -3.257774
      2          8           0       -2.980330   -3.050330    3.266287
      3          8           0       -3.329894   -0.866460    3.100003
      4          8           0       -1.631592    7.167591    1.451076
      5          8           0       -0.963887    6.973258   -0.650886
      6          8           0       -1.654581   -4.040293    0.011573
      7          7           0        2.294150    0.996639    0.687795
      8          7           0        4.304808   -0.386186   -1.133393
      9          7           0       -1.849649    0.693969   -0.216456
     10          7           0       -2.417155   -1.892799   -0.661636
     11          6           0        4.756394   -1.144590    0.025483
     12          6           0        4.327850   -0.250659    1.251030
     13          6           0        2.867203   -0.031247    1.431421
     14          6           0        1.975582   -0.607957    2.246371
     15          6           0        0.690230    0.042919    1.940258
     16          6           0        0.945708    0.993436    0.917188
     17          6           0        6.265892   -1.220329   -0.220713
     18          6           0       -0.625725   -0.227279    2.649931
     19          6           0        6.543280   -0.712929   -1.385952
     20          6           0        0.153348    2.062788    0.195743
     21          6           0       -1.108925    1.871962   -0.261759
     22          6           0        5.296880   -0.314062   -2.102276
     23          6           0       -1.961651    2.862420   -0.805886
     24          6           0        2.215154   -1.656346    3.230677
     25          6           0        7.227256   -1.870360    0.800639
     26          6           0       -3.123455    2.212033   -1.337776
     27          6           0       -1.072572   -1.688877    2.700399
     28          6           0       -2.970763    0.891750   -1.004564
     29          6           0       -1.562132    4.317364   -0.837272
     30          6           0        7.814817   -0.705018   -2.188991
     31          6           0       -1.781290    5.088918    0.452109
     32          6           0       -4.367264    2.820262   -2.110570
     33          6           0       -3.802293   -0.106360   -1.409289
     34          6           0       -2.535618   -1.786378    3.046283
     35          6           0       -3.618532   -1.482250   -1.166600
     36          6           0        9.122538   -0.867837   -1.715462
     37          6           0       -1.369672    6.494400    0.370123
     38          6           0       -4.516515   -2.635020   -1.509794
     39          6           0       -3.811026   -3.795027   -1.159410
     40          6           0       -2.515207   -3.358135   -0.463246
     41          6           0       -5.765093   -2.427955   -2.199898
     42          6           0       -4.035423   -5.281787   -1.106013
     43          6           0       -6.539075   -3.496319   -2.749890
     44          1           0        4.304883   -2.313806    0.235724
     45          1           0        4.830350    0.899675    1.570209
     46          1           0        4.605969   -0.952823    2.120476
     47          1           0        2.600364    1.303851   -0.332508
     48          1           0        3.289524   -0.365374   -1.337720
     49          1           0       -0.552710    0.154920    3.731988
     50          1           0       -1.351136    0.345872    2.206371
     51          1           0        0.441080    3.087096    0.074939
     52          1           0        3.161535   -1.610858    3.619356
     53          1           0        1.380362   -1.383012    4.167705
     54          1           0        2.035248   -2.744335    2.887759
     55          1           0        6.818185   -2.686759    1.319006
     56          1           0        7.532537   -1.090720    1.403717
     57          1           0        8.021406   -2.411240    0.309089
     58          1           0       -0.965597   -2.093389    1.650601
     59          1           0       -0.450725   -2.240296    3.375052
     60          1           0       -1.516344   -0.214771    0.045116
     61          1           0       -1.918991    4.834123   -1.663200
     62          1           0       -0.628681    4.496278   -1.062395
     63          1           0        7.862988   -0.698053   -3.376943
     64          1           0       -1.197306    4.683619    1.388360
     65          1           0       -2.838975    5.012935    0.770477
     66          1           0       -4.308404    3.930257   -2.054718
     67          1           0       -5.118964    2.532804   -1.556873
     68          1           0       -4.386559    2.437180   -3.124251
     69          1           0       -4.730648    0.308892   -2.041736
     70          1           0        9.315252   -0.818228   -0.599149
     71          1           0        9.908860   -0.886007   -2.317479
     72          1           0       -3.795775   -3.134849    3.434754
     73          1           0       -6.269602   -1.325609   -2.356131
     74          1           0       -4.828398   -5.696294   -0.463954
     75          1           0       -4.342023   -5.638827   -2.113543
     76          1           0       -3.063992   -5.830974   -0.658285
     77          1           0       -1.542082    8.218019    1.388358
     78          1           0       -7.396693   -3.047315   -3.247229
     79          1           0       -6.273200   -4.561910   -2.623104
 ---------------------------------------------------------------------

 SCF Done:  E(RB3LYP) =  -1947.84488768     A.U. after   16 cycles

 Excitation energies and oscillator strengths:

 Excited State   1:      Singlet-A      1.9385 eV  639.59 nm  f=0.3119  <S**2>=0.000
     153 ->156        -0.11026
     154 ->156         0.12380
     155 ->156         0.68327
     155 <-156        -0.10340
 This state for optimization and/or second-order correction.
 Total Energy, E(TD-HF/TD-DFT) =  -1947.77364889
 Copying the excited state density for this state as the 1-particle RhoCI density.

 The electronic state is 1-A.
 Alpha  occ. eigenvalues --  -19.19586 -19.15310 -19.12253 -19.11748 -19.11037
 Alpha  occ. eigenvalues --  -19.10348 -14.37369 -14.35463 -14.35350 -14.28911
 Alpha  occ. eigenvalues --  -10.31924 -10.30952 -10.28691 -10.26993 -10.26796
 Alpha  occ. eigenvalues --  -10.23504 -10.23381 -10.23152 -10.22829 -10.22795
 Alpha  occ. eigenvalues --  -10.22194 -10.22141 -10.21731 -10.21669 -10.21499
 Alpha  occ. eigenvalues --  -10.21409 -10.21293 -10.21165 -10.21092 -10.20683
 Alpha  occ. eigenvalues --  -10.20622 -10.20603 -10.20603 -10.20050 -10.19839
 Alpha  occ. eigenvalues --  -10.19794 -10.19512 -10.19398 -10.19350 -10.19005
 Alpha  occ. eigenvalues --  -10.18887 -10.18517 -10.18445  -1.11037  -1.09439
 Alpha  occ. eigenvalues --   -1.03022  -1.02541  -1.01367  -0.99508  -0.98114
 Alpha  occ. eigenvalues --   -0.97459  -0.94214  -0.89935  -0.82930  -0.82331
 Alpha  occ. eigenvalues --   -0.81666  -0.80959  -0.79328  -0.79206  -0.77965
 Alpha  occ. eigenvalues --   -0.76660  -0.75771  -0.74955  -0.73658  -0.72628
 Alpha  occ. eigenvalues --   -0.72396  -0.71393  -0.70052  -0.69255  -0.68711
 Alpha  occ. eigenvalues --   -0.67635  -0.65725  -0.63312  -0.61341  -0.61203
 Alpha  occ. eigenvalues --   -0.60780  -0.59865  -0.58448  -0.57270  -0.56799
 Alpha  occ. eigenvalues --   -0.56487  -0.55124  -0.54775  -0.53564  -0.52943
 Alpha  occ. eigenvalues --   -0.51469  -0.51058  -0.50466  -0.50159  -0.49787
 Alpha  occ. eigenvalues --   -0.49387  -0.48676  -0.48255  -0.47846  -0.47570
 Alpha  occ. eigenvalues --   -0.47441  -0.46771  -0.46280  -0.45988  -0.45899
 Alpha  occ. eigenvalues --   -0.45505  -0.44813  -0.44501  -0.43840  -0.43280
 Alpha  occ. eigenvalues --   -0.43046  -0.42641  -0.42548  -0.42369  -0.42185
 Alpha  occ. eigenvalues --   -0.42118  -0.41868  -0.41534  -0.41259  -0.40825
 Alpha  occ. eigenvalues --   -0.40716  -0.40113  -0.39879  -0.39784  -0.39704
 Alpha  occ. eigenvalues --   -0.39462  -0.38796  -0.38747  -0.38257  -0.38080
 Alpha  occ. eigenvalues --   -0.37784  -0.37381  -0.37234  -0.37058  -0.36615
 Alpha  occ. eigenvalues --   -0.36459  -0.35824  -0.35191  -0.35186  -0.34649
 Alpha  occ. eigenvalues --   -0.34441  -0.34239  -0.33029  -0.32918  -0.31767
 Alpha  occ. eigenvalues --   -0.31117  -0.30975  -0.28375  -0.28232  -0.27979
 Alpha  occ. eigenvalues --   -0.26976  -0.26640  -0.25810  -0.25554  -0.24703
 Alpha  occ. eigenvalues --   -0.24353  -0.23749  -0.23305  -0.21679  -0.19107
 Alpha virt. eigenvalues --   -0.11168  -0.06916  -0.05580  -0.01048   0.00065
 Alpha virt. eigenvalues --    0.00212   0.00682   0.01445   0.01840   0.03037
 Alpha virt. eigenvalues --    0.03476   0.03822   0.04051   0.04828   0.05005

 Mulliken charges:
               1
     1  O   -0.209070
     2  O   -0.107174
     3  O   -0.233558
     4  O   -0.196162
     5  O   -0.226199
     6  O   -0.172867
     7  N   -0.127342
     8  N   -0.221610
     9  N   -0.070393
    10  N   -0.345821
    11  C    0.050966
    12  C    0.087934
    13  C   -0.106216
    14  C   -0.068573
    15  C   -0.121716
    16  C    0.054200
    17  C   -0.175479
    18  C    0.113718
    19  C   -0.020381
    20  C   -0.073168
    21  C    0.078744
    22  C    0.159893
    23  C   -0.082286
    24  C    0.041629
    25  C    0.168827
    26  C   -0.188925
    27  C    0.002678
    28  C    0.149438
    29  C    0.232034
    30  C   -0.075028
    31  C   -0.062002
    32  C    0.203689
    33  C   -0.166421
    34  C    0.120131
    35  C    0.100672
    36  C   -0.006852
    37  C    0.118266
    38  C    0.101081
    39  C   -0.183392
    40  C    0.177726
    41  C   -0.135803
    42  C    0.018503
    43  C   -0.003406
    44  H    0.064198
    45  H    0.058302
    46  H   -0.016045
    47  H    0.161052
    48  H    0.136754
    49  H    0.013394
    50  H   -0.026978
    51  H   -0.019149
    52  H   -0.008387
    53  H    0.036802
    54  H    0.055250
    55  H   -0.005882
    56  H    0.028541
    57  H    0.021014
    58  H    0.080810
    59  H    0.013755
    60  H    0.134408
    61  H   -0.022513
    62  H   -0.060263
    63  H    0.052891
    64  H    0.051755
    65  H    0.039134
    66  H    0.018739
    67  H   -0.009958
    68  H    0.039120
    69  H   -0.002281
    70  H    0.023967
    71  H   -0.010389
    72  H    0.098871
    73  H    0.043022
    74  H    0.029975
    75  H    0.029700
    76  H    0.058677
    77  H    0.232687
    78  H    0.027452
    79  H    0.031287
 Sum of Mulliken charges =  -0.00000

 Dipole moment (field-independent basis, Debye):
    X=             -0.3205    Y=              2.0627    Z=              3.0859  Tot=              3.7256
 Quadrupole moment (field-independent basis, Debye-Ang):
   XX=           -217.7420   YY=           -231.8589   ZZ=           -263.1767
   XY=            -14.8368   XZ=             29.3222   YZ=              6.7568

 Normal termination of Gaussian 16 at Thu Sep 19 17:59:39 2019.
