 Gaussian 16, Revision A.03,
 Gaussian 16:  ES64L-G16RevA.03 25-Dec-2016

 --------------------------
 # td=(NStates=1) B3LYP/SVP
 --------------------------

 --
 TD
 --
 Symbolic Z-matrix:
 Charge =  0 Multiplicity = 1

                         Standard orientation:
 ---------------------------------------------------------------------
 Center     Atomic      Atomic             Coordinates (Angstroms)
 Number     Number       Type             X           Y           Z
 ---------------------------------------------------------------------
      1          8           0        5.373368   -0.362389   -3.377477
      2          8           0       -3.217039   -2.885655    3.037070
      3          8           0       -3.439582   -0.638106    3.042638
      4          8           0       -1.276075    7.180397    1.489634
      5          8           0       -0.396417    7.135596   -0.516158
      6          8           0       -1.590086   -3.963406   -0.020392
      7          7           0        2.309588    0.896712    0.624854
      8          7           0        4.326719   -0.593223   -1.134417
      9          7           0       -1.880696    0.763314   -0.427928
     10          7           0       -2.471552   -1.971129   -0.510695
     11          6           0        4.701058   -1.223624    0.067485
     12          6           0        4.350546   -0.320425    1.228728
     13          6           0        2.994192    0.013181    1.411378
     14          6           0        1.940943   -0.549456    2.227885
     15          6           0        0.635669   -0.025799    1.861883
     16          6           0        0.922950    1.020155    0.845207
     17          6           0        6.193954   -1.382205   -0.151932
     18          6           0       -0.674406   -0.152266    2.579284
     19          6           0        6.546329   -1.006839   -1.290793
     20          6           0        0.161953    2.027030    0.112419
     21          6           0       -1.067713    1.944407   -0.297712
     22          6           0        5.348259   -0.624821   -2.092732
     23          6           0       -1.933092    2.923157   -0.901725
     24          6           0        2.049223   -1.700200    3.192388
     25          6           0        6.969947   -2.087374    0.919459
     26          6           0       -3.064317    2.368726   -1.437344
     27          6           0       -1.290181   -1.544925    2.616080
     28          6           0       -2.932308    0.938194   -1.120193
     29          6           0       -1.389388    4.415758   -0.945498
     30          6           0        7.857965   -0.975785   -1.993761
     31          6           0       -1.681258    5.214993    0.328077
     32          6           0       -4.215736    3.030603   -2.073157
     33          6           0       -3.792888   -0.136993   -1.484565
     34          6           0       -2.759964   -1.540851    2.944236
     35          6           0       -3.568447   -1.485952   -1.166834
     36          6           0        9.082422   -0.957239   -1.428907
     37          6           0       -1.064658    6.620555    0.339771
     38          6           0       -4.486064   -2.623179   -1.515812
     39          6           0       -3.788942   -3.774120   -1.032380
     40          6           0       -2.609057   -3.267431   -0.292268
     41          6           0       -5.826169   -2.494734   -2.021967
     42          6           0       -4.339985   -5.129062   -0.975575
     43          6           0       -6.723701   -3.435245   -2.465015
     44          1           0        4.120034   -2.214068    0.170431
     45          1           0        4.851940    0.641266    1.218103
     46          1           0        4.430079   -0.826422    2.188537
     47          1           0        2.774288    1.547150   -0.088189
     48          1           0        3.322069   -0.358941   -1.374023
     49          1           0       -0.603414    0.249449    3.554604
     50          1           0       -1.458447    0.566279    2.178439
     51          1           0        0.499273    3.080661   -0.174325
     52          1           0        3.163285   -2.011608    3.372956
     53          1           0        1.678513   -1.430499    4.151749
     54          1           0        1.634798   -2.531005    2.717781
     55          1           0        6.192130   -3.052958    1.245331
     56          1           0        7.152199   -1.354909    1.880109
     57          1           0        7.859267   -2.431610    0.533777
     58          1           0       -1.501206   -1.954716    1.463871
     59          1           0       -0.586631   -2.322799    3.008658
     60          1           0       -1.716296   -0.365647   -0.319897
     61          1           0       -2.111551    4.966964   -1.717297
     62          1           0       -0.304773    4.275197   -1.222732
     63          1           0        7.916997   -1.099461   -3.104266
     64          1           0       -1.692785    4.503838    1.279305
     65          1           0       -2.910509    5.476035    0.397359
     66          1           0       -4.155888    4.048102   -2.125330
     67          1           0       -5.049818    2.480548   -1.430329
     68          1           0       -4.218243    2.644164   -3.188090
     69          1           0       -4.653298    0.056075   -2.100960
     70          1           0        9.011520   -0.731250   -0.256481
     71          1           0       10.086904   -0.791553   -1.811643
     72          1           0       -4.080756   -2.804063    3.717403
     73          1           0       -6.022497   -1.458379   -2.293732
     74          1           0       -5.288766   -5.383534   -0.197853
     75          1           0       -4.523925   -5.731504   -1.879829
     76          1           0       -3.594057   -5.754657   -0.441226
     77          1           0       -0.837340    7.976944    1.177659
     78          1           0       -7.659134   -3.219352   -3.035126
     79          1           0       -6.628549   -4.554357   -2.516609
 ---------------------------------------------------------------------

 SCF Done:  E(RB3LYP) =  -1947.80377895     A.U. after   19 cycles

 Excitation energies and oscillator strengths:

 Excited State   1:      Singlet-A      2.0207 eV  613.58 nm  f=0.0753  <S**2>=0.000
     152 ->156        -0.24368
     154 ->156         0.49695
     155 ->156         0.42518
 This state for optimization and/or second-order correction.
 Total Energy, E(TD-HF/TD-DFT) =  -1947.72952100
 Copying the excited state density for this state as the 1-particle RhoCI density.

 The electronic state is 1-A.
 Alpha  occ. eigenvalues --  -19.20227 -19.15300 -19.14437 -19.12474 -19.10484
 Alpha  occ. eigenvalues --  -19.08522 -14.39557 -14.36830 -14.36814 -14.29132
 Alpha  occ. eigenvalues --  -10.33738 -10.30165 -10.29605 -10.25609 -10.25266
 Alpha  occ. eigenvalues --  -10.25179 -10.24564 -10.24341 -10.24226 -10.23664
 Alpha  occ. eigenvalues --  -10.23657 -10.23426 -10.23121 -10.22588 -10.21901
 Alpha  occ. eigenvalues --  -10.21696 -10.21577 -10.21494 -10.21158 -10.20856
 Alpha  occ. eigenvalues --  -10.20814 -10.20495 -10.20423 -10.20194 -10.20050
 Alpha  occ. eigenvalues --  -10.20040 -10.20003 -10.19812 -10.19475 -10.19332
 Alpha  occ. eigenvalues --  -10.19243 -10.19158 -10.19022  -1.15196  -1.09272
 Alpha  occ. eigenvalues --   -1.03104  -1.00313  -0.99955  -0.99064  -0.98014
 Alpha  occ. eigenvalues --   -0.97785  -0.94167  -0.91147  -0.84384  -0.83548
 Alpha  occ. eigenvalues --   -0.82644  -0.81448  -0.80679  -0.79557  -0.78622
 Alpha  occ. eigenvalues --   -0.77160  -0.76383  -0.75925  -0.74271  -0.73113
 Alpha  occ. eigenvalues --   -0.72081  -0.71135  -0.69744  -0.68836  -0.68315
 Alpha  occ. eigenvalues --   -0.66821  -0.66184  -0.64629  -0.61182  -0.60870
 Alpha  occ. eigenvalues --   -0.59943  -0.59315  -0.58738  -0.57399  -0.56305
 Alpha  occ. eigenvalues --   -0.55446  -0.55420  -0.54234  -0.53779  -0.53332
 Alpha  occ. eigenvalues --   -0.52474  -0.52223  -0.52017  -0.51549  -0.50892
 Alpha  occ. eigenvalues --   -0.50257  -0.49719  -0.49108  -0.48344  -0.48078
 Alpha  occ. eigenvalues --   -0.47926  -0.47586  -0.46969  -0.46705  -0.46072
 Alpha  occ. eigenvalues --   -0.45797  -0.45315  -0.44795  -0.44639  -0.44317
 Alpha  occ. eigenvalues --   -0.43629  -0.43404  -0.43032  -0.42892  -0.42543
 Alpha  occ. eigenvalues --   -0.42465  -0.41975  -0.41840  -0.41605  -0.41194
 Alpha  occ. eigenvalues --   -0.41157  -0.40600  -0.40200  -0.40125  -0.39381
 Alpha  occ. eigenvalues --   -0.39100  -0.38888  -0.38582  -0.38379  -0.37995
 Alpha  occ. eigenvalues --   -0.37952  -0.37549  -0.37489  -0.37285  -0.36913
 Alpha  occ. eigenvalues --   -0.36303  -0.35930  -0.34890  -0.34372  -0.34153
 Alpha  occ. eigenvalues --   -0.33752  -0.33577  -0.32942  -0.32011  -0.31830
 Alpha  occ. eigenvalues --   -0.31625  -0.30562  -0.30115  -0.28753  -0.27634
 Alpha  occ. eigenvalues --   -0.26650  -0.26493  -0.26275  -0.25756  -0.25123
 Alpha  occ. eigenvalues --   -0.24558  -0.23370  -0.23219  -0.21333  -0.19977
 Alpha virt. eigenvalues --   -0.11072  -0.07133  -0.05408  -0.01609  -0.01540
 Alpha virt. eigenvalues --   -0.00248   0.00428   0.01840   0.02203   0.02351
 Alpha virt. eigenvalues --    0.02808   0.03325   0.04549   0.04918   0.05035

 Mulliken charges:
               1
     1  O   -0.303100
     2  O   -0.315466
     3  O   -0.131965
     4  O   -0.103914
     5  O   -0.229760
     6  O   -0.275282
     7  N   -0.127676
     8  N   -0.236533
     9  N   -0.098611
    10  N   -0.274772
    11  C    0.104011
    12  C    0.251118
    13  C   -0.099750
    14  C   -0.189688
    15  C   -0.055871
    16  C    0.073561
    17  C   -0.188204
    18  C    0.111895
    19  C    0.030351
    20  C   -0.070056
    21  C    0.094488
    22  C    0.202597
    23  C   -0.098841
    24  C    0.107469
    25  C    0.048598
    26  C   -0.132907
    27  C   -0.112080
    28  C    0.032010
    29  C    0.062637
    30  C   -0.019785
    31  C   -0.122803
    32  C    0.105303
    33  C   -0.097660
    34  C    0.126865
    35  C    0.095002
    36  C   -0.070975
    37  C    0.151197
    38  C    0.033618
    39  C   -0.125754
    40  C    0.164878
    41  C    0.011004
    42  C    0.006159
    43  C   -0.070773
    44  H    0.039076
    45  H   -0.008320
    46  H   -0.003823
    47  H    0.134214
    48  H    0.146929
    49  H   -0.002277
    50  H    0.007661
    51  H    0.002107
    52  H   -0.004381
    53  H    0.021456
    54  H    0.045773
    55  H    0.046895
    56  H    0.059689
    57  H    0.014387
    58  H    0.110816
    59  H    0.037725
    60  H    0.213232
    61  H    0.034066
    62  H    0.054738
    63  H    0.034742
    64  H    0.074909
    65  H    0.059888
    66  H   -0.008740
    67  H    0.066135
    68  H    0.048331
    69  H   -0.039560
    70  H    0.018496
    71  H    0.037544
    72  H    0.216337
    73  H   -0.013702
    74  H    0.042268
    75  H    0.031946
    76  H    0.014656
    77  H    0.148108
    78  H    0.027157
    79  H    0.030989
 Sum of Mulliken charges =  -0.00000

 Dipole moment (field-independent basis, Debye):
    X=             -0.2615    Y=              4.3038    Z=              3.7089  Tot=              5.6875
 Quadrupole moment (field-independent basis, Debye-Ang):
   XX=           -226.7777   YY=           -251.9498   ZZ=           -262.0119
   XY=             -9.6613   XZ=             31.5269   YZ=             -0.3998

 Normal termination of Gaussian 16 at Tue Sep 17 15:28:42 2019.
