 Gaussian 16, Revision A.03,
 Gaussian 16:  ES64L-G16RevA.03 25-Dec-2016

 --------------------------
 # td=(NStates=1) B3LYP/SVP
 --------------------------

 --
 TD
 --
 Symbolic Z-matrix:
 Charge =  0 Multiplicity = 1

                         Standard orientation:
 ---------------------------------------------------------------------
 Center     Atomic      Atomic             Coordinates (Angstroms)
 Number     Number       Type             X           Y           Z
 ---------------------------------------------------------------------
      1          8           0        5.270862    0.009521   -3.232576
      2          8           0       -3.250536   -2.832911    3.268759
      3          8           0       -3.444756   -0.599903    3.258819
      4          8           0       -1.221540    7.272286    1.376888
      5          8           0       -0.020709    6.909761   -0.486519
      6          8           0       -1.936222   -3.882755   -0.061920
      7          7           0        2.382036    0.731843    0.720094
      8          7           0        4.421547   -0.760047   -1.282217
      9          7           0       -1.900144    0.723661   -0.261562
     10          7           0       -2.697167   -1.823060   -0.602819
     11          6           0        4.797905   -1.354947    0.015122
     12          6           0        4.372076   -0.636564    1.272049
     13          6           0        2.930994   -0.386464    1.439648
     14          6           0        1.957171   -0.800400    2.125751
     15          6           0        0.657969   -0.089068    1.849667
     16          6           0        1.079040    0.858660    0.870252
     17          6           0        6.240186   -1.559705   -0.183726
     18          6           0       -0.552089   -0.295692    2.629952
     19          6           0        6.671158   -0.914434   -1.384888
     20          6           0        0.204379    1.824173    0.207657
     21          6           0       -1.062867    1.782906   -0.220281
     22          6           0        5.456766   -0.338731   -2.028084
     23          6           0       -1.811585    2.955909   -0.756909
     24          6           0        2.023159   -1.887932    3.188677
     25          6           0        7.121525   -2.326382    0.770549
     26          6           0       -3.066978    2.473485   -1.178318
     27          6           0       -1.305543   -1.697502    2.602487
     28          6           0       -3.078207    0.985684   -0.984034
     29          6           0       -1.320208    4.329313   -0.847686
     30          6           0        7.892725   -0.807456   -2.109873
     31          6           0       -1.552429    5.197740    0.451332
     32          6           0       -4.202973    3.190623   -1.886624
     33          6           0       -3.998205    0.128032   -1.467762
     34          6           0       -2.727357   -1.632325    3.122728
     35          6           0       -3.833127   -1.319789   -1.207777
     36          6           0        9.159203   -0.825069   -1.501622
     37          6           0       -0.827312    6.557682    0.353322
     38          6           0       -4.783930   -2.498827   -1.543374
     39          6           0       -4.010074   -3.615334   -1.238709
     40          6           0       -2.796295   -3.210208   -0.577313
     41          6           0       -5.981072   -2.318219   -2.236557
     42          6           0       -4.392445   -5.080471   -1.354395
     43          6           0       -6.956422   -3.126756   -2.605806
     44          1           0        4.301104   -2.383312    0.012684
     45          1           0        5.033697    0.373184    1.079443
     46          1           0        4.764715   -1.113231    2.164708
     47          1           0        3.054001    1.328638    0.182553
     48          1           0        3.502068   -0.541073   -1.650289
     49          1           0       -0.420217   -0.064903    3.556246
     50          1           0       -1.245981    0.443506    2.243240
     51          1           0        0.489381    2.980529   -0.149104
     52          1           0        3.087807   -2.114767    3.497334
     53          1           0        1.728046   -1.272282    4.160543
     54          1           0        1.483206   -2.670676    2.859308
     55          1           0        6.649088   -3.080267    1.270741
     56          1           0        7.394474   -1.610461    1.539593
     57          1           0        7.854145   -2.749226    0.234931
     58          1           0       -1.483136   -2.203800    1.543814
     59          1           0       -0.809683   -2.346967    3.107421
     60          1           0       -1.578070   -0.287773   -0.204725
     61          1           0       -1.829755    4.788586   -1.706929
     62          1           0       -0.346409    4.549221   -1.219483
     63          1           0        7.822239   -0.682877   -3.119311
     64          1           0       -1.247578    4.634643    1.287648
     65          1           0       -2.705253    5.476777    0.631074
     66          1           0       -4.172017    4.378165   -1.797866
     67          1           0       -5.257287    2.686825   -1.353685
     68          1           0       -4.454871    3.012080   -2.846493
     69          1           0       -4.860188    0.392293   -1.918052
     70          1           0        9.374278   -0.923172   -0.567693
     71          1           0       10.214585   -0.751936   -2.082464
     72          1           0       -4.170874   -2.608765    3.602956
     73          1           0       -6.068838   -1.206956   -2.322368
     74          1           0       -5.270726   -5.320695   -0.838004
     75          1           0       -4.553640   -5.428885   -2.367455
     76          1           0       -3.347481   -5.538887   -0.975677
     77          1           0       -0.898981    8.233316    1.328103
     78          1           0       -7.847329   -2.682924   -3.155635
     79          1           0       -6.636042   -4.180299   -2.541896
 ---------------------------------------------------------------------

 SCF Done:  E(RB3LYP) =  -1947.81715040     A.U. after   16 cycles

 Excitation energies and oscillator strengths:

 Excited State   1:      Singlet-A      1.9619 eV  631.97 nm  f=0.2775  <S**2>=0.000
     152 ->156         0.10740
     155 ->156         0.69391
 This state for optimization and/or second-order correction.
 Total Energy, E(TD-HF/TD-DFT) =  -1947.74505321
 Copying the excited state density for this state as the 1-particle RhoCI density.

 The electronic state is 1-A.
 Alpha  occ. eigenvalues --  -19.19981 -19.17814 -19.13491 -19.11257 -19.10401
 Alpha  occ. eigenvalues --  -19.08548 -14.37087 -14.36219 -14.34979 -14.29378
 Alpha  occ. eigenvalues --  -10.33038 -10.30542 -10.27381 -10.26466 -10.25284
 Alpha  occ. eigenvalues --  -10.25278 -10.25000 -10.23805 -10.23596 -10.23085
 Alpha  occ. eigenvalues --  -10.22597 -10.22139 -10.22105 -10.22012 -10.21997
 Alpha  occ. eigenvalues --  -10.21781 -10.21150 -10.20892 -10.20715 -10.20596
 Alpha  occ. eigenvalues --  -10.20407 -10.20150 -10.20133 -10.20123 -10.19978
 Alpha  occ. eigenvalues --  -10.19554 -10.19370 -10.19336 -10.19113 -10.18574
 Alpha  occ. eigenvalues --  -10.18197 -10.17618 -10.17387  -1.11309  -1.08989
 Alpha  occ. eigenvalues --   -1.03003  -1.01462  -1.00428  -0.98295  -0.97541
 Alpha  occ. eigenvalues --   -0.96358  -0.92788  -0.91277  -0.82567  -0.82184
 Alpha  occ. eigenvalues --   -0.81779  -0.81279  -0.80980  -0.80238  -0.77900
 Alpha  occ. eigenvalues --   -0.77222  -0.76465  -0.75932  -0.75200  -0.72753
 Alpha  occ. eigenvalues --   -0.71780  -0.71165  -0.69992  -0.69504  -0.68551
 Alpha  occ. eigenvalues --   -0.68102  -0.66347  -0.64896  -0.62170  -0.61761
 Alpha  occ. eigenvalues --   -0.61275  -0.59246  -0.58690  -0.57708  -0.57142
 Alpha  occ. eigenvalues --   -0.56162  -0.56122  -0.55005  -0.54615  -0.53524
 Alpha  occ. eigenvalues --   -0.53061  -0.51341  -0.50902  -0.50626  -0.49603
 Alpha  occ. eigenvalues --   -0.49054  -0.48998  -0.48772  -0.48006  -0.47571
 Alpha  occ. eigenvalues --   -0.47271  -0.47099  -0.46825  -0.46342  -0.46262
 Alpha  occ. eigenvalues --   -0.45307  -0.45103  -0.44945  -0.44851  -0.44415
 Alpha  occ. eigenvalues --   -0.44216  -0.43889  -0.43662  -0.42981  -0.42780
 Alpha  occ. eigenvalues --   -0.42418  -0.42155  -0.41845  -0.41199  -0.40995
 Alpha  occ. eigenvalues --   -0.40749  -0.40528  -0.40381  -0.39677  -0.39423
 Alpha  occ. eigenvalues --   -0.39350  -0.39249  -0.39027  -0.38429  -0.37951
 Alpha  occ. eigenvalues --   -0.37712  -0.37518  -0.37401  -0.36534  -0.36426
 Alpha  occ. eigenvalues --   -0.36137  -0.35662  -0.35448  -0.35401  -0.34728
 Alpha  occ. eigenvalues --   -0.34461  -0.33444  -0.33348  -0.32153  -0.32046
 Alpha  occ. eigenvalues --   -0.30672  -0.29868  -0.29206  -0.28789  -0.27504
 Alpha  occ. eigenvalues --   -0.26022  -0.25921  -0.25603  -0.24981  -0.24771
 Alpha  occ. eigenvalues --   -0.24152  -0.23345  -0.23148  -0.22403  -0.19576
 Alpha virt. eigenvalues --   -0.11447  -0.06951  -0.06562  -0.01293  -0.00391
 Alpha virt. eigenvalues --   -0.00058   0.01212   0.01571   0.02715   0.03078
 Alpha virt. eigenvalues --    0.03430   0.04666   0.05230   0.05447   0.05855

 Mulliken charges:
               1
     1  O   -0.296855
     2  O   -0.157514
     3  O   -0.302849
     4  O   -0.171065
     5  O   -0.228697
     6  O   -0.188455
     7  N   -0.085511
     8  N   -0.174309
     9  N   -0.087585
    10  N   -0.303424
    11  C    0.133040
    12  C    0.134835
    13  C    0.009356
    14  C   -0.201390
    15  C   -0.115384
    16  C    0.066781
    17  C   -0.228759
    18  C    0.204378
    19  C   -0.029598
    20  C   -0.070442
    21  C    0.011636
    22  C    0.139725
    23  C   -0.053156
    24  C    0.111132
    25  C    0.217979
    26  C   -0.088673
    27  C    0.036595
    28  C    0.187008
    29  C    0.061527
    30  C    0.022231
    31  C   -0.028652
    32  C    0.033390
    33  C   -0.056947
    34  C    0.114280
    35  C    0.049941
    36  C   -0.014480
    37  C    0.135629
    38  C    0.063846
    39  C   -0.218175
    40  C    0.157464
    41  C   -0.046493
    42  C    0.074166
    43  C   -0.006739
    44  H    0.025652
    45  H    0.015607
    46  H   -0.008327
    47  H    0.120491
    48  H    0.122401
    49  H   -0.053184
    50  H   -0.003442
    51  H    0.015284
    52  H   -0.006339
    53  H    0.032105
    54  H    0.032274
    55  H   -0.021550
    56  H    0.030057
    57  H    0.002900
    58  H    0.100237
    59  H   -0.047071
    60  H    0.171976
    61  H   -0.000360
    62  H    0.020283
    63  H   -0.014919
    64  H    0.035986
    65  H    0.060241
    66  H    0.044615
    67  H    0.035553
    68  H    0.010393
    69  H   -0.078031
    70  H   -0.038850
    71  H    0.042364
    72  H    0.186944
    73  H   -0.015346
    74  H    0.025125
    75  H    0.022363
    76  H    0.055580
    77  H    0.206050
    78  H    0.046016
    79  H    0.017131
 Sum of Mulliken charges =  -0.00000

 Dipole moment (field-independent basis, Debye):
    X=             -0.9904    Y=              2.1752    Z=              3.2107  Tot=              4.0026
 Quadrupole moment (field-independent basis, Debye-Ang):
   XX=           -220.5802   YY=           -232.0384   ZZ=           -262.9344
   XY=            -15.1891   XZ=             41.5183   YZ=              4.5670

 Normal termination of Gaussian 16 at Mon Sep 16 09:09:43 2019.
