 Gaussian 16, Revision A.03,
 Gaussian 16:  ES64L-G16RevA.03 25-Dec-2016

 --------------------------
 # td=(NStates=1) B3LYP/SVP
 --------------------------

 --
 TD
 --
 Symbolic Z-matrix:
 Charge =  0 Multiplicity = 1

                         Standard orientation:
 ---------------------------------------------------------------------
 Center     Atomic      Atomic             Coordinates (Angstroms)
 Number     Number       Type             X           Y           Z
 ---------------------------------------------------------------------
      1          8           0       -3.310179   -0.759691   -3.092697
      2          8           0        3.092329    2.342657    3.714600
      3          8           0        3.714056    0.237210    4.402444
      4          8           0        7.661500   -1.384614   -0.718624
      5          8           0        6.894325   -2.169240   -2.705014
      6          8           0       -2.532990    1.113417    1.834484
      7          7           0       -0.223980   -2.650084    0.353460
      8          7           0       -2.693734   -0.972246   -0.966257
      9          7           0        1.179439    0.304542   -0.724082
     10          7           0       -0.893799    1.467990    0.193025
     11          6           0       -3.351814   -1.438711    0.383482
     12          6           0       -2.703630   -2.729153    1.038558
     13          6           0       -1.218681   -2.451621    1.257759
     14          6           0       -0.659994   -1.903454    2.442456
     15          6           0        0.744331   -1.673838    2.090788
     16          6           0        0.917552   -2.065011    0.758817
     17          6           0       -4.776808   -1.848104   -0.081992
     18          6           0        1.759771   -1.116719    2.969148
     19          6           0       -4.818876   -1.594445   -1.406668
     20          6           0        2.095499   -1.877346   -0.097581
     21          6           0        2.051684   -0.682891   -0.910468
     22          6           0       -3.527384   -1.170603   -1.962321
     23          6           0        3.046316   -0.250695   -1.924550
     24          6           0       -1.255482   -1.539597    3.637117
     25          6           0       -5.736489   -2.399606    0.861401
     26          6           0        2.649256    1.051473   -2.350405
     27          6           0        1.837031    0.427079    2.840807
     28          6           0        1.396609    1.382850   -1.522028
     29          6           0        4.401346   -0.903230   -2.290979
     30          6           0       -5.967739   -1.810137   -2.398591
     31          6           0        5.448804   -0.717022   -1.274420
     32          6           0        3.274851    1.893671   -3.351541
     33          6           0        0.462460    2.449974   -1.520813
     34          6           0        2.992411    0.925186    3.697145
     35          6           0       -0.617676    2.441994   -0.722108
     36          6           0       -7.077383   -2.561850   -2.377645
     37          6           0        6.777966   -1.610897   -1.668494
     38          6           0       -1.470239    3.640908   -0.488529
     39          6           0       -2.357966    3.343027    0.648091
     40          6           0       -2.007317    1.918924    1.008210
     41          6           0       -1.408778    4.864492   -1.243304
     42          6           0       -3.466460    3.982190    1.261703
     43          6           0       -2.087990    6.100452   -1.101081
     44          1           0       -3.107835   -0.682570    0.961336
     45          1           0       -2.806741   -3.563410    0.476894
     46          1           0       -3.301903   -2.708438    1.884981
     47          1           0       -0.256062   -2.981885   -0.660900
     48          1           0       -1.904318   -0.202921   -0.727831
     49          1           0        1.729673   -1.242468    4.097958
     50          1           0        2.859010   -1.476052    2.691565
     51          1           0        2.786473   -2.822062   -0.150211
     52          1           0       -2.043932   -2.197815    4.165320
     53          1           0       -0.691057   -1.171999    4.447074
     54          1           0       -2.151403   -0.613329    3.303124
     55          1           0       -5.364678   -2.031990    1.827090
     56          1           0       -5.816354   -3.449063    0.862750
     57          1           0       -6.861845   -1.991351    0.634392
     58          1           0        2.159166    0.574002    1.882360
     59          1           0        0.907899    0.964027    3.116621
     60          1           0        0.394628    0.202624   -0.147267
     61          1           0        4.640530   -0.607777   -3.214184
     62          1           0        4.051801   -1.969587   -2.170173
     63          1           0       -5.991049   -1.259428   -3.224168
     64          1           0        5.156491   -1.169496   -0.384788
     65          1           0        5.866477    0.261002   -1.504478
     66          1           0        4.098256    1.415135   -3.870392
     67          1           0        3.813055    2.822861   -2.830408
     68          1           0        2.540674    2.261413   -4.289222
     69          1           0        0.652386    3.218472   -2.346818
     70          1           0       -7.229086   -3.283878   -1.532701
     71          1           0       -7.687397   -2.701877   -3.244316
     72          1           0        3.796779    2.673990    4.302728
     73          1           0       -0.909300    4.668068   -2.229590
     74          1           0       -3.899901    4.688039    0.426481
     75          1           0       -3.911300    3.431656    2.040022
     76          1           0       -3.137639    5.046609    1.704951
     77          1           0        8.334225   -2.021062   -0.889003
     78          1           0       -1.770054    6.931346   -1.904295
     79          1           0       -2.744562    6.436157   -0.191237
 ---------------------------------------------------------------------

 SCF Done:  E(RB3LYP) =  -1947.78121760     A.U. after   22 cycles

 Excitation energies and oscillator strengths:

 Excited State   1:      Singlet-A      0.8600 eV 1441.72 nm  f=0.0041  <S**2>=0.000
     155 ->156         0.70131
 This state for optimization and/or second-order correction.
 Total Energy, E(TD-HF/TD-DFT) =  -1947.74961411
 Copying the excited state density for this state as the 1-particle RhoCI density.

 The electronic state is 1-A.
 Alpha  occ. eigenvalues --  -19.20868 -19.16443 -19.14860 -19.12591 -19.12566
 Alpha  occ. eigenvalues --  -19.05814 -14.38204 -14.37574 -14.32129 -14.30851
 Alpha  occ. eigenvalues --  -10.33501 -10.31656 -10.28923 -10.27765 -10.26798
 Alpha  occ. eigenvalues --  -10.24768 -10.24745 -10.24227 -10.23697 -10.23459
 Alpha  occ. eigenvalues --  -10.23355 -10.23177 -10.22510 -10.22389 -10.22258
 Alpha  occ. eigenvalues --  -10.21594 -10.21370 -10.21314 -10.20957 -10.20837
 Alpha  occ. eigenvalues --  -10.20463 -10.20303 -10.20030 -10.19819 -10.19055
 Alpha  occ. eigenvalues --  -10.19050 -10.18452 -10.18335 -10.18131 -10.17570
 Alpha  occ. eigenvalues --  -10.17488 -10.16770 -10.16517  -1.13595  -1.06407
 Alpha  occ. eigenvalues --   -1.04691  -1.01653  -1.00800  -0.99194  -0.98739
 Alpha  occ. eigenvalues --   -0.97508  -0.91992  -0.89460  -0.84143  -0.82340
 Alpha  occ. eigenvalues --   -0.80940  -0.80416  -0.79884  -0.79331  -0.78821
 Alpha  occ. eigenvalues --   -0.77336  -0.76174  -0.75745  -0.74325  -0.73070
 Alpha  occ. eigenvalues --   -0.70783  -0.70057  -0.69813  -0.69584  -0.68080
 Alpha  occ. eigenvalues --   -0.66303  -0.65332  -0.63170  -0.62507  -0.61406
 Alpha  occ. eigenvalues --   -0.59132  -0.58656  -0.58340  -0.58085  -0.57144
 Alpha  occ. eigenvalues --   -0.55856  -0.55110  -0.54620  -0.53425  -0.53304
 Alpha  occ. eigenvalues --   -0.52908  -0.52386  -0.51304  -0.50918  -0.50184
 Alpha  occ. eigenvalues --   -0.49550  -0.48699  -0.48312  -0.48169  -0.47790
 Alpha  occ. eigenvalues --   -0.47357  -0.46845  -0.46618  -0.46364  -0.46056
 Alpha  occ. eigenvalues --   -0.45917  -0.45093  -0.44665  -0.44183  -0.43911
 Alpha  occ. eigenvalues --   -0.43752  -0.43306  -0.43157  -0.42559  -0.42396
 Alpha  occ. eigenvalues --   -0.42345  -0.42128  -0.41533  -0.41444  -0.41112
 Alpha  occ. eigenvalues --   -0.40877  -0.40372  -0.40174  -0.40056  -0.39435
 Alpha  occ. eigenvalues --   -0.39347  -0.39133  -0.38664  -0.38472  -0.37885
 Alpha  occ. eigenvalues --   -0.37761  -0.37282  -0.37024  -0.36218  -0.36171
 Alpha  occ. eigenvalues --   -0.35930  -0.35485  -0.35263  -0.34883  -0.34677
 Alpha  occ. eigenvalues --   -0.34363  -0.33951  -0.32476  -0.31533  -0.31150
 Alpha  occ. eigenvalues --   -0.30593  -0.28842  -0.28803  -0.28597  -0.28389
 Alpha  occ. eigenvalues --   -0.27616  -0.26985  -0.25954  -0.23231  -0.22967
 Alpha  occ. eigenvalues --   -0.22610  -0.22095  -0.21880  -0.21448  -0.18815
 Alpha virt. eigenvalues --   -0.13207  -0.08716  -0.03207  -0.02703  -0.00196
 Alpha virt. eigenvalues --    0.00213   0.02020   0.02271   0.02517   0.02878
 Alpha virt. eigenvalues --    0.03146   0.03651   0.03945   0.04607   0.04718

 Mulliken charges:
               1
     1  O   -0.257512
     2  O   -0.251316
     3  O   -0.228937
     4  O   -0.117490
     5  O   -0.181798
     6  O   -0.246323
     7  N   -0.022858
     8  N   -0.253876
     9  N    0.012897
    10  N   -0.375323
    11  C    0.070898
    12  C    0.339508
    13  C   -0.140524
    14  C    0.002402
    15  C   -0.020869
    16  C   -0.115079
    17  C   -0.125214
    18  C   -0.014957
    19  C   -0.043040
    20  C   -0.113096
    21  C    0.070348
    22  C    0.130218
    23  C   -0.112264
    24  C   -0.037287
    25  C    0.077846
    26  C   -0.083442
    27  C    0.059208
    28  C    0.080470
    29  C    0.152844
    30  C    0.037539
    31  C    0.063038
    32  C    0.001499
    33  C   -0.129861
    34  C    0.142041
    35  C    0.198388
    36  C   -0.048250
    37  C    0.076281
    38  C    0.017331
    39  C   -0.173171
    40  C    0.208106
    41  C   -0.033308
    42  C    0.109436
    43  C   -0.100319
    44  H   -0.043311
    45  H   -0.059667
    46  H   -0.044634
    47  H    0.138382
    48  H    0.182383
    49  H    0.021937
    50  H    0.008707
    51  H    0.058292
    52  H    0.007871
    53  H   -0.006148
    54  H    0.052502
    55  H    0.030276
    56  H    0.029498
    57  H    0.054139
    58  H   -0.002520
    59  H    0.062577
    60  H    0.157241
    61  H   -0.023029
    62  H    0.010397
    63  H   -0.040989
    64  H    0.018539
    65  H    0.031200
    66  H    0.011094
    67  H    0.054776
    68  H    0.067490
    69  H    0.011578
    70  H    0.000863
    71  H    0.017076
    72  H    0.181971
    73  H    0.017597
    74  H    0.034666
    75  H    0.037003
    76  H    0.029580
    77  H    0.158995
    78  H    0.059357
    79  H    0.050130
 Sum of Mulliken charges =  -0.00000

 Dipole moment (field-independent basis, Debye):
    X=              4.5280    Y=              2.6963    Z=              0.0694  Tot=              5.2704
 Quadrupole moment (field-independent basis, Debye-Ang):
   XX=           -231.8627   YY=           -226.1357   ZZ=           -274.1825
   XY=              0.7085   XZ=            -22.7983   YZ=             -4.9846

 Normal termination of Gaussian 16 at Tue Jul 30 20:02:48 2019.
