 Gaussian 16, Revision A.03,
 Gaussian 16:  ES64L-G16RevA.03 25-Dec-2016

 --------------------------
 # td=(NStates=1) B3LYP/SVP
 --------------------------

 --
 TD
 --
 Symbolic Z-matrix:
 Charge =  0 Multiplicity = 1

                         Standard orientation:
 ---------------------------------------------------------------------
 Center     Atomic      Atomic             Coordinates (Angstroms)
 Number     Number       Type             X           Y           Z
 ---------------------------------------------------------------------
      1          8           0       -3.214356   -1.759376   -2.656648
      2          8           0        3.162749    3.400669    2.607839
      3          8           0        3.662208    1.954993    4.283332
      4          8           0        7.800293   -1.498454   -0.749879
      5          8           0        6.606392   -3.324400   -1.569453
      6          8           0       -2.715459    1.837164    1.313351
      7          7           0       -0.333586   -2.179972    1.146264
      8          7           0       -2.663089   -1.181058   -0.538631
      9          7           0        1.102112   -0.006668   -0.717854
     10          7           0       -1.044809    1.420854   -0.395960
     11          6           0       -3.388563   -1.231071    0.739024
     12          6           0       -2.732571   -2.023277    1.985190
     13          6           0       -1.288624   -1.704415    2.022579
     14          6           0       -0.632459   -0.788307    2.973278
     15          6           0        0.801803   -0.819268    2.640534
     16          6           0        0.886757   -1.626366    1.458366
     17          6           0       -4.784608   -1.775958    0.494719
     18          6           0        1.905004   -0.071837    3.282905
     19          6           0       -4.733997   -2.226208   -0.905516
     20          6           0        2.060841   -1.868160    0.478412
     21          6           0        2.080089   -1.004877   -0.555583
     22          6           0       -3.550189   -1.774074   -1.544426
     23          6           0        3.018254   -0.876251   -1.682617
     24          6           0       -1.181052   -0.050632    4.079436
     25          6           0       -5.912124   -1.995202    1.452548
     26          6           0        2.572061    0.141463   -2.487738
     27          6           0        2.157410    1.289032    2.499519
     28          6           0        1.332023    0.659586   -1.843212
     29          6           0        4.187390   -1.869710   -1.943202
     30          6           0       -5.754314   -2.762731   -1.774567
     31          6           0        5.434977   -1.307943   -1.067910
     32          6           0        3.170237    0.605638   -3.771057
     33          6           0        0.520835    1.732968   -2.261437
     34          6           0        3.042542    2.197232    3.258309
     35          6           0       -0.683279    2.147621   -1.490926
     36          6           0       -6.812140   -3.537954   -1.451327
     37          6           0        6.638921   -2.115913   -1.123783
     38          6           0       -1.418616    3.422846   -1.631195
     39          6           0       -2.315744    3.364982   -0.542189
     40          6           0       -1.999758    2.173987    0.326922
     41          6           0       -1.270900    4.354130   -2.639629
     42          6           0       -3.342297    4.359038   -0.107810
     43          6           0       -2.066069    5.436404   -2.993638
     44          1           0       -3.565191   -0.091712    1.050395
     45          1           0       -2.758545   -3.094768    1.897781
     46          1           0       -3.429631   -1.794947    2.679086
     47          1           0       -0.734798   -2.551888    0.153336
     48          1           0       -1.982174   -0.473690   -0.704374
     49          1           0        1.676272    0.179907    4.309237
     50          1           0        2.922806   -0.624597    3.436989
     51          1           0        2.703386   -2.821364    0.633022
     52          1           0       -2.219441   -0.432269    4.577979
     53          1           0       -0.385737    0.393590    4.924411
     54          1           0       -1.707216    0.892055    3.923022
     55          1           0       -5.920570   -1.051735    2.146845
     56          1           0       -5.500761   -2.835779    2.295889
     57          1           0       -7.090732   -2.248011    1.021725
     58          1           0        2.361933    1.067343    1.507890
     59          1           0        1.210686    1.872834    2.174533
     60          1           0        0.169319    0.165667   -0.295236
     61          1           0        4.556239   -1.827911   -2.901725
     62          1           0        3.960302   -2.885805   -1.598587
     63          1           0       -5.541156   -2.290704   -2.861290
     64          1           0        5.048565   -1.134450    0.049560
     65          1           0        5.515565   -0.423827   -1.404637
     66          1           0        4.045698   -0.078912   -3.946533
     67          1           0        3.318941    1.653420   -3.667727
     68          1           0        2.376004    0.543900   -4.508023
     69          1           0        0.667766    2.326969   -3.309001
     70          1           0       -6.770401   -3.991006   -0.396031
     71          1           0       -7.313404   -4.183986   -2.196425
     72          1           0        3.617818    4.019729    3.317659
     73          1           0       -0.458312    4.108946   -3.414381
     74          1           0       -4.084265    4.666250   -0.917295
     75          1           0       -3.863979    3.989837    0.935573
     76          1           0       -2.685476    5.267867    0.076373
     77          1           0        8.532609   -2.099015   -0.644795
     78          1           0       -1.443649    6.058530   -3.667123
     79          1           0       -2.718526    5.744034   -2.207068
 ---------------------------------------------------------------------

 SCF Done:  E(RB3LYP) =  -1947.80717316     A.U. after   17 cycles

 Excitation energies and oscillator strengths:

 Excited State   1:      Singlet-A      0.8828 eV 1404.47 nm  f=0.0008  <S**2>=0.000
     155 ->156         0.70408
 This state for optimization and/or second-order correction.
 Total Energy, E(TD-HF/TD-DFT) =  -1947.77473150
 Copying the excited state density for this state as the 1-particle RhoCI density.

 The electronic state is 1-A.
 Alpha  occ. eigenvalues --  -19.19907 -19.17812 -19.13390 -19.13303 -19.12543
 Alpha  occ. eigenvalues --  -19.08950 -14.37764 -14.37737 -14.31995 -14.31894
 Alpha  occ. eigenvalues --  -10.34035 -10.31668 -10.29458 -10.27093 -10.26593
 Alpha  occ. eigenvalues --  -10.26474 -10.25875 -10.23966 -10.23315 -10.23228
 Alpha  occ. eigenvalues --  -10.23118 -10.22959 -10.22873 -10.22716 -10.22392
 Alpha  occ. eigenvalues --  -10.22358 -10.21954 -10.21755 -10.21688 -10.21630
 Alpha  occ. eigenvalues --  -10.21619 -10.21547 -10.20841 -10.20392 -10.19837
 Alpha  occ. eigenvalues --  -10.19807 -10.19540 -10.19295 -10.19033 -10.18983
 Alpha  occ. eigenvalues --  -10.18603 -10.18048 -10.17792  -1.09399  -1.07842
 Alpha  occ. eigenvalues --   -1.04076  -1.01721  -1.00594  -0.99068  -0.98754
 Alpha  occ. eigenvalues --   -0.95580  -0.93508  -0.90275  -0.84291  -0.82325
 Alpha  occ. eigenvalues --   -0.82030  -0.80048  -0.79918  -0.79656  -0.77915
 Alpha  occ. eigenvalues --   -0.76803  -0.75545  -0.75217  -0.74176  -0.73499
 Alpha  occ. eigenvalues --   -0.71138  -0.70498  -0.70213  -0.69751  -0.66858
 Alpha  occ. eigenvalues --   -0.65627  -0.65392  -0.63064  -0.62506  -0.61352
 Alpha  occ. eigenvalues --   -0.59479  -0.58890  -0.58457  -0.57820  -0.57025
 Alpha  occ. eigenvalues --   -0.55528  -0.55046  -0.54490  -0.53769  -0.53478
 Alpha  occ. eigenvalues --   -0.52759  -0.51754  -0.50753  -0.49841  -0.49632
 Alpha  occ. eigenvalues --   -0.49172  -0.48665  -0.48393  -0.47864  -0.47674
 Alpha  occ. eigenvalues --   -0.47374  -0.46871  -0.46345  -0.46132  -0.45759
 Alpha  occ. eigenvalues --   -0.44973  -0.44597  -0.44186  -0.44066  -0.43739
 Alpha  occ. eigenvalues --   -0.43527  -0.43091  -0.42693  -0.42331  -0.42291
 Alpha  occ. eigenvalues --   -0.41459  -0.41305  -0.41276  -0.40859  -0.40708
 Alpha  occ. eigenvalues --   -0.40518  -0.40202  -0.40048  -0.39670  -0.39661
 Alpha  occ. eigenvalues --   -0.39526  -0.39424  -0.39046  -0.38799  -0.38720
 Alpha  occ. eigenvalues --   -0.38164  -0.37885  -0.37855  -0.37433  -0.36539
 Alpha  occ. eigenvalues --   -0.36412  -0.35806  -0.35546  -0.35415  -0.34401
 Alpha  occ. eigenvalues --   -0.33404  -0.32543  -0.32384  -0.31983  -0.31689
 Alpha  occ. eigenvalues --   -0.31108  -0.30353  -0.29695  -0.29215  -0.28503
 Alpha  occ. eigenvalues --   -0.28185  -0.27722  -0.26388  -0.24768  -0.24144
 Alpha  occ. eigenvalues --   -0.23359  -0.22742  -0.22291  -0.21947  -0.18615
 Alpha virt. eigenvalues --   -0.13059  -0.08086  -0.05943  -0.03346  -0.03284
 Alpha virt. eigenvalues --   -0.00319   0.01123   0.01791   0.02537   0.03291
 Alpha virt. eigenvalues --    0.03476   0.03623   0.03903   0.04586   0.04802

 Mulliken charges:
               1
     1  O   -0.162590
     2  O   -0.242055
     3  O   -0.237310
     4  O   -0.179847
     5  O   -0.293868
     6  O   -0.245271
     7  N   -0.112819
     8  N   -0.272785
     9  N   -0.056235
    10  N   -0.362864
    11  C    0.023630
    12  C    0.277792
    13  C   -0.101710
    14  C   -0.022664
    15  C   -0.084778
    16  C   -0.064388
    17  C   -0.106992
    18  C    0.108998
    19  C   -0.114721
    20  C   -0.154060
    21  C    0.178948
    22  C    0.136828
    23  C   -0.118588
    24  C   -0.017925
    25  C   -0.056795
    26  C   -0.171174
    27  C   -0.015947
    28  C    0.098040
    29  C    0.178877
    30  C   -0.037128
    31  C    0.024280
    32  C    0.167790
    33  C   -0.140488
    34  C    0.176122
    35  C    0.083094
    36  C   -0.071258
    37  C    0.193838
    38  C    0.115934
    39  C   -0.202517
    40  C    0.238474
    41  C   -0.139216
    42  C   -0.001502
    43  C    0.014997
    44  H    0.077898
    45  H   -0.020258
    46  H   -0.056376
    47  H    0.176315
    48  H    0.127114
    49  H   -0.005470
    50  H    0.022489
    51  H    0.054553
    52  H    0.000774
    53  H    0.026174
    54  H    0.007558
    55  H    0.045753
    56  H    0.064504
    57  H    0.094694
    58  H    0.001634
    59  H    0.045562
    60  H    0.187228
    61  H   -0.011582
    62  H    0.036797
    63  H    0.046864
    64  H    0.074361
    65  H   -0.037201
    66  H    0.035250
    67  H    0.020086
    68  H    0.028355
    69  H    0.034049
    70  H    0.027983
    71  H    0.034417
    72  H    0.207335
    73  H    0.004469
    74  H    0.060106
    75  H    0.071989
    76  H    0.051204
    77  H    0.187852
    78  H    0.042057
    79  H    0.005316
 Sum of Mulliken charges =  -0.00000

 Dipole moment (field-independent basis, Debye):
    X=              2.8898    Y=              3.1167    Z=             -1.3925  Tot=              4.4725
 Quadrupole moment (field-independent basis, Debye-Ang):
   XX=           -236.6451   YY=           -245.3733   ZZ=           -267.7615
   XY=              4.1226   XZ=            -23.3381   YZ=            -13.4093

 Normal termination of Gaussian 16 at Mon Jul 29 23:45:24 2019.
