 Gaussian 16, Revision A.03,
 Gaussian 16:  ES64L-G16RevA.03 25-Dec-2016

 --------------------------
 # td=(NStates=1) B3LYP/SVP
 --------------------------

 --
 TD
 --
 Symbolic Z-matrix:
 Charge =  0 Multiplicity = 1

                         Standard orientation:
 ---------------------------------------------------------------------
 Center     Atomic      Atomic             Coordinates (Angstroms)
 Number     Number       Type             X           Y           Z
 ---------------------------------------------------------------------
      1          8           0        5.155041   -0.403453   -3.269325
      2          8           0       -3.136979   -2.756591    3.039276
      3          8           0       -3.452872   -0.522133    3.058074
      4          8           0       -2.060274    7.251553    1.054980
      5          8           0       -0.625177    6.931237   -0.705085
      6          8           0       -1.458121   -3.900520    0.250183
      7          7           0        2.324704    1.109548    0.617144
      8          7           0        4.326038   -0.688167   -1.055534
      9          7           0       -1.907638    0.614110   -0.297233
     10          7           0       -2.448875   -1.916899   -0.457119
     11          6           0        4.815927   -1.138958    0.269254
     12          6           0        4.357076   -0.086499    1.307907
     13          6           0        2.873640    0.070039    1.366243
     14          6           0        1.967643   -0.458513    2.195192
     15          6           0        0.695622    0.169641    1.910571
     16          6           0        0.865962    1.104197    0.878330
     17          6           0        6.333051   -1.213137   -0.051795
     18          6           0       -0.682358   -0.010064    2.508779
     19          6           0        6.690467   -0.807429   -1.348097
     20          6           0        0.044049    2.027826    0.173992
     21          6           0       -1.233671    1.807594   -0.309082
     22          6           0        5.333194   -0.660000   -2.044419
     23          6           0       -2.086689    2.799840   -0.828193
     24          6           0        2.311801   -1.499658    3.206364
     25          6           0        7.161371   -1.439975    1.083835
     26          6           0       -3.211368    2.177356   -1.344201
     27          6           0       -1.264388   -1.393647    2.628651
     28          6           0       -3.034941    0.803642   -1.011691
     29          6           0       -1.718665    4.194427   -1.069353
     30          6           0        7.875904   -0.819113   -2.090436
     31          6           0       -1.881721    5.041777    0.254641
     32          6           0       -4.449060    2.734499   -1.987305
     33          6           0       -3.864227   -0.242965   -1.422111
     34          6           0       -2.715203   -1.454869    2.917109
     35          6           0       -3.506793   -1.627338   -1.179341
     36          6           0        9.180460   -0.579937   -1.772085
     37          6           0       -1.448624    6.429214    0.100738
     38          6           0       -4.326387   -2.847629   -1.465839
     39          6           0       -3.642962   -3.895342   -0.864416
     40          6           0       -2.414274   -3.340436   -0.357801
     41          6           0       -5.697115   -2.807647   -2.113380
     42          6           0       -3.732754   -5.485357   -0.970994
     43          6           0       -6.423389   -3.833672   -2.527755
     44          1           0        4.538714   -2.120489    0.386563
     45          1           0        4.619912    0.801510    0.920178
     46          1           0        4.725121   -0.569692    2.295186
     47          1           0        2.781236    1.564091   -0.154006
     48          1           0        3.345106   -0.865234   -1.258197
     49          1           0       -0.449246    0.409793    3.606011
     50          1           0       -1.455937    0.511469    2.135204
     51          1           0        0.417045    3.079838   -0.123089
     52          1           0        3.358848   -1.843227    3.432246
     53          1           0        1.876768   -1.106695    4.109598
     54          1           0        1.867725   -2.559290    2.987878
     55          1           0        6.776683   -2.024127    2.054669
     56          1           0        7.678855   -0.615524    1.583244
     57          1           0        7.983139   -1.887780    0.914797
     58          1           0       -1.363558   -2.109697    1.617032
     59          1           0       -0.601548   -1.911578    3.383266
     60          1           0       -1.458962   -0.321127   -0.129859
     61          1           0       -2.547518    4.682047   -1.694874
     62          1           0       -0.668895    4.368475   -1.616491
     63          1           0        7.613807   -0.851571   -3.154438
     64          1           0       -1.247156    4.633189    1.103268
     65          1           0       -3.018954    4.976719    0.560194
     66          1           0       -4.100852    3.761432   -2.437164
     67          1           0       -5.299239    2.747713   -1.487686
     68          1           0       -4.620083    1.978471   -2.910547
     69          1           0       -4.620828    0.151505   -2.072844
     70          1           0        9.650934   -0.466655   -0.716412
     71          1           0       10.025383   -0.713709   -2.589267
     72          1           0       -4.049119   -2.812779    3.469708
     73          1           0       -6.066156   -1.919995   -2.465382
     74          1           0       -4.732512   -5.579301   -0.371312
     75          1           0       -3.833820   -5.757088   -2.095758
     76          1           0       -2.837539   -5.929679   -0.378708
     77          1           0       -1.461985    8.045583    1.161602
     78          1           0       -7.313354   -3.801521   -3.087531
     79          1           0       -5.974041   -4.883171   -2.312571
 ---------------------------------------------------------------------

 SCF Done:  E(RB3LYP) =  -1947.86163861     A.U. after   17 cycles

 Excitation energies and oscillator strengths:

 Excited State   1:      Singlet-A      1.9962 eV  621.10 nm  f=0.3935  <S**2>=0.000
     155 ->156         0.69718
     155 <-156        -0.11725
 This state for optimization and/or second-order correction.
 Total Energy, E(TD-HF/TD-DFT) =  -1947.78827967
 Copying the excited state density for this state as the 1-particle RhoCI density.

 The electronic state is 1-A.
 Alpha  occ. eigenvalues --  -19.18150 -19.15957 -19.13642 -19.11036 -19.10750
 Alpha  occ. eigenvalues --  -19.09940 -14.37297 -14.36234 -14.35234 -14.29015
 Alpha  occ. eigenvalues --  -10.33152 -10.30172 -10.29084 -10.26468 -10.24344
 Alpha  occ. eigenvalues --  -10.23882 -10.23646 -10.23516 -10.23333 -10.23123
 Alpha  occ. eigenvalues --  -10.22830 -10.22589 -10.22585 -10.22326 -10.21620
 Alpha  occ. eigenvalues --  -10.21593 -10.21567 -10.21502 -10.21240 -10.21203
 Alpha  occ. eigenvalues --  -10.20984 -10.20873 -10.20495 -10.20387 -10.20348
 Alpha  occ. eigenvalues --  -10.20235 -10.20094 -10.19809 -10.19803 -10.19216
 Alpha  occ. eigenvalues --  -10.19079 -10.19057 -10.18980  -1.07607  -1.06984
 Alpha  occ. eigenvalues --   -0.99901  -0.99826  -0.99436  -0.98802  -0.98618
 Alpha  occ. eigenvalues --   -0.96371  -0.92755  -0.92131  -0.83695  -0.82546
 Alpha  occ. eigenvalues --   -0.82233  -0.81233  -0.80202  -0.79944  -0.78441
 Alpha  occ. eigenvalues --   -0.77891  -0.76759  -0.76118  -0.74834  -0.72871
 Alpha  occ. eigenvalues --   -0.71748  -0.71701  -0.69457  -0.69067  -0.68718
 Alpha  occ. eigenvalues --   -0.67327  -0.66163  -0.64075  -0.61792  -0.60721
 Alpha  occ. eigenvalues --   -0.59278  -0.58555  -0.58233  -0.57768  -0.57090
 Alpha  occ. eigenvalues --   -0.56084  -0.55589  -0.55469  -0.54326  -0.53642
 Alpha  occ. eigenvalues --   -0.51818  -0.51632  -0.51134  -0.50635  -0.50113
 Alpha  occ. eigenvalues --   -0.49318  -0.48297  -0.47920  -0.47687  -0.47500
 Alpha  occ. eigenvalues --   -0.47135  -0.46869  -0.46452  -0.45659  -0.45610
 Alpha  occ. eigenvalues --   -0.45237  -0.44913  -0.44586  -0.44455  -0.44137
 Alpha  occ. eigenvalues --   -0.43685  -0.43398  -0.42896  -0.42686  -0.42352
 Alpha  occ. eigenvalues --   -0.41970  -0.41461  -0.41292  -0.41248  -0.40657
 Alpha  occ. eigenvalues --   -0.40328  -0.40153  -0.39938  -0.39899  -0.39485
 Alpha  occ. eigenvalues --   -0.39394  -0.39044  -0.38852  -0.38591  -0.38374
 Alpha  occ. eigenvalues --   -0.37987  -0.37893  -0.37298  -0.37098  -0.36641
 Alpha  occ. eigenvalues --   -0.36409  -0.35564  -0.35195  -0.34784  -0.34433
 Alpha  occ. eigenvalues --   -0.33996  -0.33604  -0.32203  -0.31733  -0.31545
 Alpha  occ. eigenvalues --   -0.31303  -0.30694  -0.29037  -0.28686  -0.27473
 Alpha  occ. eigenvalues --   -0.26467  -0.26360  -0.26344  -0.25118  -0.24675
 Alpha  occ. eigenvalues --   -0.24338  -0.24167  -0.23714  -0.22883  -0.19131
 Alpha virt. eigenvalues --   -0.11294  -0.07162  -0.06875  -0.02434  -0.00437
 Alpha virt. eigenvalues --    0.00216   0.00692   0.02187   0.02671   0.02701
 Alpha virt. eigenvalues --    0.04113   0.04605   0.05173   0.05286   0.05626

 Mulliken charges:
               1
     1  O   -0.269791
     2  O   -0.237667
     3  O   -0.216402
     4  O   -0.237553
     5  O   -0.258160
     6  O   -0.246520
     7  N   -0.155300
     8  N   -0.248773
     9  N   -0.043005
    10  N   -0.296550
    11  C    0.115367
    12  C    0.345740
    13  C   -0.107152
    14  C   -0.092598
    15  C   -0.069441
    16  C    0.112665
    17  C   -0.157725
    18  C    0.112654
    19  C   -0.014072
    20  C   -0.114775
    21  C    0.040270
    22  C    0.185788
    23  C   -0.044121
    24  C    0.038103
    25  C    0.118173
    26  C   -0.113434
    27  C   -0.106138
    28  C    0.059045
    29  C   -0.002919
    30  C   -0.007473
    31  C   -0.038747
    32  C    0.098032
    33  C   -0.085093
    34  C    0.141899
    35  C    0.112344
    36  C   -0.093498
    37  C    0.164049
    38  C    0.033316
    39  C   -0.206929
    40  C    0.187339
    41  C    0.030442
    42  C    0.009015
    43  C   -0.023303
    44  H   -0.003477
    45  H   -0.062502
    46  H    0.022175
    47  H    0.116127
    48  H    0.133210
    49  H    0.020277
    50  H   -0.024031
    51  H    0.016671
    52  H    0.008899
    53  H    0.019685
    54  H    0.050908
    55  H    0.019690
    56  H    0.023575
    57  H   -0.053141
    58  H    0.127409
    59  H    0.035407
    60  H    0.172903
    61  H    0.017764
    62  H    0.074527
    63  H    0.025129
    64  H    0.071325
    65  H    0.069877
    66  H    0.036153
    67  H    0.013988
    68  H    0.041984
    69  H   -0.054375
    70  H    0.035136
    71  H    0.051102
    72  H    0.196122
    73  H   -0.043153
    74  H    0.050810
    75  H    0.067557
    76  H    0.066869
    77  H    0.198631
    78  H    0.015614
    79  H    0.024055
 Sum of Mulliken charges =  -0.00000

 Dipole moment (field-independent basis, Debye):
    X=              0.1033    Y=              1.0311    Z=              3.2682  Tot=              3.4285
 Quadrupole moment (field-independent basis, Debye-Ang):
   XX=           -215.1797   YY=           -253.0976   ZZ=           -259.8215
   XY=             -4.5815   XZ=             38.4421   YZ=              3.8792

 Normal termination of Gaussian 16 at Fri Sep 20 02:19:56 2019.
