 Gaussian 16, Revision A.03,
 Gaussian 16:  ES64L-G16RevA.03 25-Dec-2016

 --------------------------
 # td=(NStates=1) B3LYP/SVP
 --------------------------

 --
 TD
 --
 Symbolic Z-matrix:
 Charge =  0 Multiplicity = 1

                         Standard orientation:
 ---------------------------------------------------------------------
 Center     Atomic      Atomic             Coordinates (Angstroms)
 Number     Number       Type             X           Y           Z
 ---------------------------------------------------------------------
      1          8           0       -3.274197   -1.121749   -2.902857
      2          8           0        3.213047    2.818111    3.259871
      3          8           0        3.782817    1.014054    4.608482
      4          8           0        7.662939   -1.547460   -0.733508
      5          8           0        6.610316   -2.759320   -2.369160
      6          8           0       -2.569087    1.398622    1.579647
      7          7           0       -0.249793   -2.578514    0.782136
      8          7           0       -2.717377   -1.069358   -0.677193
      9          7           0        1.128633    0.223173   -0.769014
     10          7           0       -1.007968    1.527630   -0.030049
     11          6           0       -3.390983   -1.308371    0.547524
     12          6           0       -2.613951   -2.456992    1.401123
     13          6           0       -1.202137   -2.159686    1.687876
     14          6           0       -0.535824   -1.388827    2.713520
     15          6           0        0.772202   -1.353377    2.318331
     16          6           0        0.938633   -2.027337    1.023805
     17          6           0       -4.762222   -1.825311    0.129872
     18          6           0        1.837776   -0.666715    3.166933
     19          6           0       -4.844418   -1.825151   -1.199297
     20          6           0        2.042537   -1.844020    0.038682
     21          6           0        2.092315   -0.786584   -0.737228
     22          6           0       -3.537499   -1.381923   -1.757846
     23          6           0        2.951918   -0.564059   -1.755214
     24          6           0       -1.149413   -0.863714    3.846211
     25          6           0       -5.800722   -2.319293    1.140599
     26          6           0        2.505837    0.649146   -2.454341
     27          6           0        2.143162    0.710994    2.791096
     28          6           0        1.434963    1.134680   -1.786414
     29          6           0        4.212620   -1.325825   -2.249215
     30          6           0       -5.845077   -2.319011   -2.067089
     31          6           0        5.397040   -0.952803   -1.396586
     32          6           0        3.030205    1.387861   -3.647892
     33          6           0        0.498106    2.211696   -1.784060
     34          6           0        3.210736    1.487334    3.661556
     35          6           0       -0.607090    2.361843   -0.975971
     36          6           0       -7.003226   -2.987570   -1.886817
     37          6           0        6.651392   -1.773068   -1.663755
     38          6           0       -1.422144    3.595316   -0.912037
     39          6           0       -2.370233    3.352086    0.138872
     40          6           0       -2.043241    2.016570    0.694311
     41          6           0       -1.342126    4.761232   -1.787026
     42          6           0       -3.407901    4.186832    0.753245
     43          6           0       -2.091000    5.863856   -2.013129
     44          1           0       -3.225251   -0.308543    1.033366
     45          1           0       -2.697444   -3.273648    0.656160
     46          1           0       -3.100137   -2.893259    2.210872
     47          1           0       -0.381767   -2.886555   -0.257784
     48          1           0       -1.981043   -0.272777   -0.850611
     49          1           0        1.566836   -0.740017    4.096878
     50          1           0        2.836401   -1.336028    3.057784
     51          1           0        2.796794   -2.746986    0.294682
     52          1           0       -2.046985   -1.611680    4.100872
     53          1           0       -0.564770   -0.628519    4.700927
     54          1           0       -1.649277    0.019919    3.395534
     55          1           0       -5.834531   -1.635998    1.906455
     56          1           0       -5.852125   -3.414657    1.149916
     57          1           0       -6.833879   -2.052647    0.820777
     58          1           0        2.371642    0.836698    1.673001
     59          1           0        1.314480    1.374290    3.175317
     60          1           0        0.416027    0.618071   -0.024492
     61          1           0        4.609370   -0.995937   -3.264817
     62          1           0        4.111049   -2.276900   -2.026794
     63          1           0       -5.516140   -2.031075   -3.056558
     64          1           0        5.083123   -1.053791   -0.332323
     65          1           0        5.814757    0.168715   -1.611642
     66          1           0        3.886669    0.744498   -4.301668
     67          1           0        3.307246    2.538239   -3.635449
     68          1           0        2.381400    1.494975   -4.353195
     69          1           0        0.699369    2.945974   -2.658875
     70          1           0       -7.471857   -3.258985   -0.818416
     71          1           0       -7.547301   -3.287451   -2.696642
     72          1           0        3.743757    3.173929    3.837457
     73          1           0       -0.164946    4.685936   -2.247193
     74          1           0       -4.595883    3.908409    0.211538
     75          1           0       -3.608011    3.810484    1.915084
     76          1           0       -3.219961    5.249799    0.862202
     77          1           0        8.351086   -2.228122   -1.074605
     78          1           0       -1.892851    6.591067   -2.857128
     79          1           0       -3.088414    6.095126   -1.589439
 ---------------------------------------------------------------------

 SCF Done:  E(RB3LYP) =  -1947.75180658     A.U. after   21 cycles

 Excitation energies and oscillator strengths:

 Excited State   1:      Singlet-A      0.4105 eV 3020.51 nm  f=0.0017  <S**2>=0.000
     155 ->156         0.70400
 This state for optimization and/or second-order correction.
 Total Energy, E(TD-HF/TD-DFT) =  -1947.73672194
 Copying the excited state density for this state as the 1-particle RhoCI density.

 The electronic state is 1-A.
 Alpha  occ. eigenvalues --  -19.19996 -19.17717 -19.14946 -19.13686 -19.12257
 Alpha  occ. eigenvalues --  -19.07891 -14.37676 -14.36146 -14.32243 -14.30246
 Alpha  occ. eigenvalues --  -10.33842 -10.32404 -10.27774 -10.26061 -10.25684
 Alpha  occ. eigenvalues --  -10.25506 -10.25101 -10.24877 -10.24295 -10.23471
 Alpha  occ. eigenvalues --  -10.23288 -10.22706 -10.22342 -10.22249 -10.22068
 Alpha  occ. eigenvalues --  -10.22040 -10.21684 -10.21323 -10.21314 -10.21132
 Alpha  occ. eigenvalues --  -10.20656 -10.20500 -10.19827 -10.19684 -10.18725
 Alpha  occ. eigenvalues --  -10.18362 -10.18314 -10.18104 -10.17878 -10.17462
 Alpha  occ. eigenvalues --  -10.17271 -10.16890 -10.16467  -1.10621  -1.10020
 Alpha  occ. eigenvalues --   -1.04741  -1.02417  -1.01721  -1.01057  -0.99759
 Alpha  occ. eigenvalues --   -0.97105  -0.94778  -0.91686  -0.84821  -0.83301
 Alpha  occ. eigenvalues --   -0.81304  -0.80595  -0.80430  -0.79812  -0.78635
 Alpha  occ. eigenvalues --   -0.77360  -0.75977  -0.75150  -0.74336  -0.73415
 Alpha  occ. eigenvalues --   -0.70620  -0.70136  -0.70103  -0.69536  -0.68013
 Alpha  occ. eigenvalues --   -0.67155  -0.66073  -0.63695  -0.61478  -0.60404
 Alpha  occ. eigenvalues --   -0.59926  -0.59386  -0.59022  -0.57708  -0.56661
 Alpha  occ. eigenvalues --   -0.55689  -0.55185  -0.54368  -0.53615  -0.53005
 Alpha  occ. eigenvalues --   -0.52359  -0.51900  -0.50807  -0.50443  -0.49935
 Alpha  occ. eigenvalues --   -0.49729  -0.48971  -0.48904  -0.48435  -0.48041
 Alpha  occ. eigenvalues --   -0.47567  -0.47055  -0.46591  -0.46253  -0.45902
 Alpha  occ. eigenvalues --   -0.45679  -0.45418  -0.44985  -0.44748  -0.44321
 Alpha  occ. eigenvalues --   -0.44165  -0.43657  -0.43364  -0.42925  -0.42179
 Alpha  occ. eigenvalues --   -0.41775  -0.41661  -0.41571  -0.41295  -0.41188
 Alpha  occ. eigenvalues --   -0.40899  -0.40618  -0.40482  -0.39765  -0.39541
 Alpha  occ. eigenvalues --   -0.39299  -0.39108  -0.38603  -0.38351  -0.37957
 Alpha  occ. eigenvalues --   -0.37639  -0.37191  -0.37122  -0.36998  -0.36611
 Alpha  occ. eigenvalues --   -0.36354  -0.36142  -0.35531  -0.34877  -0.34048
 Alpha  occ. eigenvalues --   -0.33972  -0.33621  -0.33376  -0.32373  -0.31942
 Alpha  occ. eigenvalues --   -0.31519  -0.30634  -0.30061  -0.29856  -0.28728
 Alpha  occ. eigenvalues --   -0.27784  -0.26669  -0.26021  -0.23906  -0.23598
 Alpha  occ. eigenvalues --   -0.23331  -0.22880  -0.22621  -0.22275  -0.17992
 Alpha virt. eigenvalues --   -0.13789  -0.08934  -0.03956  -0.03029  -0.01956
 Alpha virt. eigenvalues --    0.00302   0.01356   0.01827   0.02919   0.03255
 Alpha virt. eigenvalues --    0.03426   0.03596   0.04343   0.04410   0.04852

 Mulliken charges:
               1
     1  O   -0.227590
     2  O   -0.135987
     3  O   -0.201376
     4  O   -0.228367
     5  O   -0.224363
     6  O   -0.185113
     7  N   -0.036875
     8  N   -0.259996
     9  N   -0.192797
    10  N   -0.283276
    11  C    0.069430
    12  C    0.191849
    13  C   -0.110924
    14  C   -0.066867
    15  C   -0.165712
    16  C   -0.109095
    17  C   -0.215070
    18  C    0.194555
    19  C   -0.023474
    20  C   -0.224057
    21  C    0.284386
    22  C    0.126113
    23  C   -0.110512
    24  C    0.094836
    25  C    0.161472
    26  C   -0.087658
    27  C   -0.037221
    28  C    0.111512
    29  C    0.294835
    30  C    0.003255
    31  C   -0.113442
    32  C    0.066222
    33  C   -0.149574
    34  C    0.125117
    35  C    0.166519
    36  C   -0.032058
    37  C    0.168969
    38  C    0.016511
    39  C   -0.159202
    40  C    0.150749
    41  C   -0.014213
    42  C   -0.044546
    43  C   -0.077213
    44  H    0.059005
    45  H   -0.039292
    46  H   -0.020393
    47  H    0.152797
    48  H    0.171201
    49  H   -0.068524
    50  H    0.000444
    51  H    0.077788
    52  H    0.016012
    53  H    0.000520
    54  H    0.042426
    55  H   -0.006530
    56  H    0.045080
    57  H    0.003088
    58  H    0.048901
    59  H    0.039202
    60  H    0.218384
    61  H    0.033942
    62  H   -0.046543
    63  H   -0.006882
    64  H    0.054960
    65  H    0.056305
    66  H    0.031691
    67  H    0.048067
    68  H   -0.024034
    69  H    0.008581
    70  H    0.024510
    71  H   -0.003094
    72  H    0.107094
    73  H    0.028362
    74  H    0.064215
    75  H    0.053473
    76  H    0.039840
    77  H    0.204145
    78  H    0.042779
    79  H    0.032732
 Sum of Mulliken charges =  -0.00000

 Dipole moment (field-independent basis, Debye):
    X=              3.8671    Y=              2.6482    Z=             -0.9130  Tot=              4.7750
 Quadrupole moment (field-independent basis, Debye-Ang):
   XX=           -234.9394   YY=           -236.5641   ZZ=           -268.7748
   XY=              1.7319   XZ=            -25.2922   YZ=             -9.4311

 Normal termination of Gaussian 16 at Mon Jul 29 05:02:51 2019.
