 Gaussian 16, Revision A.03,
 Gaussian 16:  ES64L-G16RevA.03 25-Dec-2016

 --------------------------
 # td=(NStates=1) B3LYP/SVP
 --------------------------

 --
 TD
 --
 Symbolic Z-matrix:
 Charge =  0 Multiplicity = 1

                         Standard orientation:
 ---------------------------------------------------------------------
 Center     Atomic      Atomic             Coordinates (Angstroms)
 Number     Number       Type             X           Y           Z
 ---------------------------------------------------------------------
      1          8           0        5.366506   -0.080470   -3.222807
      2          8           0       -3.010507   -2.770934    3.145218
      3          8           0       -3.330650   -0.560969    2.734324
      4          8           0       -1.727871    7.144275    1.249134
      5          8           0       -0.775589    6.807449   -0.637790
      6          8           0       -1.526558   -3.897456    0.147350
      7          7           0        2.297252    1.053939    0.524471
      8          7           0        4.392183   -0.793137   -1.219065
      9          7           0       -1.820331    0.693717   -0.414200
     10          7           0       -2.508214   -1.905484   -0.404248
     11          6           0        4.781378   -1.188736    0.047007
     12          6           0        4.363433   -0.170255    1.154680
     13          6           0        2.958402    0.114877    1.404903
     14          6           0        1.920703   -0.369869    2.210066
     15          6           0        0.691691    0.126364    1.810173
     16          6           0        0.936351    1.126831    0.742234
     17          6           0        6.286150   -1.245821   -0.105990
     18          6           0       -0.548125    0.016961    2.610930
     19          6           0        6.631773   -0.958588   -1.295348
     20          6           0        0.094849    2.105177    0.118467
     21          6           0       -1.132767    1.854425   -0.269902
     22          6           0        5.418421   -0.574980   -2.080816
     23          6           0       -2.042969    2.821546   -1.022341
     24          6           0        2.115054   -1.401385    3.306213
     25          6           0        7.049881   -1.743473    0.960142
     26          6           0       -3.180465    2.287779   -1.360769
     27          6           0       -1.065179   -1.417270    2.630677
     28          6           0       -2.993323    0.922093   -0.921597
     29          6           0       -1.811324    4.399161   -1.155889
     30          6           0        7.939740   -0.677668   -2.016417
     31          6           0       -2.024957    5.020705    0.311769
     32          6           0       -4.536188    2.779910   -1.827591
     33          6           0       -3.930932   -0.270744   -1.215535
     34          6           0       -2.567378   -1.462005    2.797154
     35          6           0       -3.659895   -1.586327   -1.010762
     36          6           0        9.112496   -0.826102   -1.505512
     37          6           0       -1.444239    6.381655    0.203581
     38          6           0       -4.543507   -2.887340   -1.301819
     39          6           0       -3.704272   -3.942932   -0.879176
     40          6           0       -2.470541   -3.346647   -0.322016
     41          6           0       -5.649642   -2.816793   -2.039370
     42          6           0       -3.956948   -5.454251   -0.990948
     43          6           0       -6.487604   -3.794083   -2.489231
     44          1           0        4.430221   -2.297794    0.293301
     45          1           0        5.125597    0.691476    0.928044
     46          1           0        4.764926   -0.456443    2.090384
     47          1           0        2.837601    1.418990   -0.339670
     48          1           0        3.544473   -1.010639   -1.653565
     49          1           0       -0.178818    0.347405    3.569033
     50          1           0       -1.421795    0.666005    2.184920
     51          1           0        0.465184    2.953436   -0.180249
     52          1           0        3.420597   -1.270525    3.699100
     53          1           0        1.491872   -1.195910    4.145977
     54          1           0        2.055111   -2.550807    2.944010
     55          1           0        6.495368   -2.232552    1.976479
     56          1           0        7.495555   -0.681404    1.333573
     57          1           0        7.872423   -2.191144    0.595035
     58          1           0       -0.750713   -2.210668    1.761796
     59          1           0       -0.727953   -2.104942    3.555081
     60          1           0       -1.660534   -0.212822   -0.246836
     61          1           0       -2.338338    4.926599   -2.016919
     62          1           0       -0.494291    4.467552   -1.165282
     63          1           0        7.641071   -0.375841   -2.911772
     64          1           0       -1.524058    4.244934    0.954099
     65          1           0       -3.149167    5.083210    0.522704
     66          1           0       -4.383576    3.821288   -1.823353
     67          1           0       -5.529034    2.305739   -1.397647
     68          1           0       -4.539804    2.469802   -2.976310
     69          1           0       -4.838622    0.266128   -1.687472
     70          1           0        9.232145   -1.107465   -0.454819
     71          1           0        9.990236   -0.638080   -2.137535
     72          1           0       -4.006843   -2.769925    2.642819
     73          1           0       -6.133954   -1.782288   -2.331112
     74          1           0       -4.976700   -5.632119   -0.443017
     75          1           0       -4.222460   -5.908950   -1.990867
     76          1           0       -2.981255   -5.995892   -0.651279
     77          1           0       -1.171115    7.892548    0.897884
     78          1           0       -7.382104   -3.515028   -3.211542
     79          1           0       -6.240540   -4.825583   -2.188917
 ---------------------------------------------------------------------

 SCF Done:  E(RB3LYP) =  -1947.74177383     A.U. after   16 cycles

 Excitation energies and oscillator strengths:

 Excited State   1:      Singlet-A      2.0105 eV  616.69 nm  f=0.3802  <S**2>=0.000
     155 ->156         0.69690
 This state for optimization and/or second-order correction.
 Total Energy, E(TD-HF/TD-DFT) =  -1947.66788960
 Copying the excited state density for this state as the 1-particle RhoCI density.

 The electronic state is 1-A.
 Alpha  occ. eigenvalues --  -19.18576 -19.15400 -19.13959 -19.11921 -19.10482
 Alpha  occ. eigenvalues --  -19.09766 -14.38711 -14.37136 -14.35411 -14.28138
 Alpha  occ. eigenvalues --  -10.32319 -10.30099 -10.28442 -10.25932 -10.25447
 Alpha  occ. eigenvalues --  -10.25235 -10.24974 -10.24145 -10.23738 -10.23413
 Alpha  occ. eigenvalues --  -10.22751 -10.22736 -10.22551 -10.22529 -10.22248
 Alpha  occ. eigenvalues --  -10.22070 -10.22039 -10.21095 -10.20878 -10.20854
 Alpha  occ. eigenvalues --  -10.20777 -10.20597 -10.20581 -10.20543 -10.20424
 Alpha  occ. eigenvalues --  -10.20024 -10.19700 -10.19616 -10.19575 -10.19553
 Alpha  occ. eigenvalues --  -10.19035 -10.18753 -10.18638  -1.14128  -1.06481
 Alpha  occ. eigenvalues --   -1.03115  -1.02561  -1.02440  -1.02219  -0.96788
 Alpha  occ. eigenvalues --   -0.96757  -0.96041  -0.90266  -0.84626  -0.84143
 Alpha  occ. eigenvalues --   -0.83219  -0.81645  -0.80952  -0.80081  -0.78824
 Alpha  occ. eigenvalues --   -0.77792  -0.76028  -0.75748  -0.73973  -0.73194
 Alpha  occ. eigenvalues --   -0.72110  -0.71193  -0.68924  -0.68511  -0.68250
 Alpha  occ. eigenvalues --   -0.66874  -0.66191  -0.64123  -0.61985  -0.61771
 Alpha  occ. eigenvalues --   -0.60399  -0.59338  -0.58041  -0.57531  -0.56920
 Alpha  occ. eigenvalues --   -0.55706  -0.55232  -0.54371  -0.53717  -0.52805
 Alpha  occ. eigenvalues --   -0.52158  -0.51771  -0.51105  -0.50844  -0.50670
 Alpha  occ. eigenvalues --   -0.50050  -0.49593  -0.49260  -0.48350  -0.48340
 Alpha  occ. eigenvalues --   -0.47768  -0.47101  -0.46785  -0.46341  -0.46065
 Alpha  occ. eigenvalues --   -0.45960  -0.44998  -0.44725  -0.44499  -0.44249
 Alpha  occ. eigenvalues --   -0.43841  -0.43043  -0.42903  -0.42811  -0.42632
 Alpha  occ. eigenvalues --   -0.42433  -0.41996  -0.41613  -0.41540  -0.41288
 Alpha  occ. eigenvalues --   -0.41140  -0.40698  -0.40649  -0.39903  -0.39749
 Alpha  occ. eigenvalues --   -0.39526  -0.39269  -0.38912  -0.38627  -0.38217
 Alpha  occ. eigenvalues --   -0.37903  -0.37492  -0.37039  -0.36832  -0.36509
 Alpha  occ. eigenvalues --   -0.35862  -0.35657  -0.35120  -0.34481  -0.34099
 Alpha  occ. eigenvalues --   -0.33919  -0.33696  -0.33319  -0.32133  -0.31929
 Alpha  occ. eigenvalues --   -0.31722  -0.30437  -0.30011  -0.29593  -0.27463
 Alpha  occ. eigenvalues --   -0.27135  -0.26984  -0.26925  -0.26033  -0.25068
 Alpha  occ. eigenvalues --   -0.25022  -0.23937  -0.22951  -0.21641  -0.18924
 Alpha virt. eigenvalues --   -0.10568  -0.07087  -0.04687  -0.00927   0.00039
 Alpha virt. eigenvalues --    0.00664   0.01097   0.01258   0.01811   0.02108
 Alpha virt. eigenvalues --    0.02992   0.03757   0.04113   0.04470   0.04522

 Mulliken charges:
               1
     1  O   -0.253681
     2  O   -0.316889
     3  O   -0.190653
     4  O   -0.164735
     5  O   -0.190769
     6  O   -0.176168
     7  N   -0.156990
     8  N   -0.105166
     9  N    0.124706
    10  N   -0.327094
    11  C    0.063427
    12  C    0.145776
    13  C    0.000748
    14  C   -0.109650
    15  C   -0.096681
    16  C    0.057235
    17  C   -0.231060
    18  C    0.098949
    19  C   -0.070734
    20  C   -0.002375
    21  C    0.137972
    22  C    0.117041
    23  C   -0.120639
    24  C    0.001956
    25  C    0.061262
    26  C   -0.075069
    27  C   -0.118867
    28  C   -0.096937
    29  C   -0.076623
    30  C    0.120155
    31  C   -0.021279
    32  C    0.091855
    33  C   -0.089929
    34  C    0.161619
    35  C    0.128618
    36  C   -0.002601
    37  C    0.125426
    38  C    0.162642
    39  C   -0.190819
    40  C    0.137388
    41  C   -0.136296
    42  C    0.012148
    43  C   -0.058089
    44  H    0.036414
    45  H    0.009776
    46  H   -0.029052
    47  H    0.150157
    48  H    0.111775
    49  H    0.019037
    50  H    0.049375
    51  H   -0.097248
    52  H    0.013806
    53  H    0.024607
    54  H    0.070072
    55  H    0.066045
    56  H    0.044669
    57  H    0.010737
    58  H    0.113349
    59  H    0.044875
    60  H    0.063994
    61  H    0.058121
    62  H    0.056648
    63  H   -0.059645
    64  H    0.070285
    65  H    0.055915
    66  H   -0.001934
    67  H    0.082923
    68  H    0.044091
    69  H   -0.025649
    70  H    0.005683
    71  H    0.027315
    72  H    0.231041
    73  H    0.015633
    74  H    0.045821
    75  H    0.038709
    76  H    0.056959
    77  H    0.167778
    78  H    0.051328
    79  H    0.007459
 Sum of Mulliken charges =  -0.00000

 Dipole moment (field-independent basis, Debye):
    X=              0.3502    Y=              2.6172    Z=              1.2852  Tot=              2.9367
 Quadrupole moment (field-independent basis, Debye-Ang):
   XX=           -223.9326   YY=           -248.2781   ZZ=           -270.1172
   XY=            -11.7239   XZ=             38.4169   YZ=              3.9446

 Normal termination of Gaussian 16 at Mon Oct  7 22:27:34 2019.
