 Gaussian 16, Revision A.03,
 Gaussian 16:  ES64L-G16RevA.03 25-Dec-2016

 --------------------------
 # td=(NStates=1) B3LYP/SVP
 --------------------------

 --
 TD
 --
 Symbolic Z-matrix:
 Charge =  0 Multiplicity = 1

                         Standard orientation:
 ---------------------------------------------------------------------
 Center     Atomic      Atomic             Coordinates (Angstroms)
 Number     Number       Type             X           Y           Z
 ---------------------------------------------------------------------
      1          8           0        5.310670   -0.213967   -3.301497
      2          8           0       -3.264532   -2.735789    3.298035
      3          8           0       -3.394656   -0.456671    3.131011
      4          8           0       -1.342455    7.112747    1.477376
      5          8           0       -0.653012    7.049653   -0.631949
      6          8           0       -1.844740   -3.964093    0.203558
      7          7           0        2.466693    0.883462    0.525366
      8          7           0        4.388657   -0.723096   -1.287108
      9          7           0       -1.868280    0.766627   -0.376781
     10          7           0       -2.648004   -1.883948   -0.395449
     11          6           0        4.862038   -1.242220    0.023737
     12          6           0        4.496271   -0.271035    1.245144
     13          6           0        2.982350   -0.048685    1.401190
     14          6           0        1.974755   -0.686664    2.125126
     15          6           0        0.691960    0.004530    1.845251
     16          6           0        1.067544    0.973286    0.809711
     17          6           0        6.204982   -1.269416   -0.091701
     18          6           0       -0.569977   -0.134690    2.481301
     19          6           0        6.617420   -0.951476   -1.352967
     20          6           0        0.254941    1.931540    0.130776
     21          6           0       -1.090873    1.855750   -0.365511
     22          6           0        5.414965   -0.584681   -2.103490
     23          6           0       -1.974400    2.894442   -0.951956
     24          6           0        2.256531   -1.876783    3.120958
     25          6           0        7.087309   -1.874287    1.001140
     26          6           0       -3.267063    2.321888   -1.346498
     27          6           0       -1.197239   -1.532652    2.651055
     28          6           0       -3.047617    0.955130   -1.168810
     29          6           0       -1.637603    4.222106   -0.985230
     30          6           0        7.917690   -0.770548   -2.120776
     31          6           0       -1.709683    4.999204    0.387639
     32          6           0       -4.366081    2.839725   -1.977360
     33          6           0       -3.930682   -0.078927   -1.359811
     34          6           0       -2.727537   -1.436527    3.142357
     35          6           0       -3.776245   -1.474484   -1.052336
     36          6           0        9.149995   -0.730444   -1.507195
     37          6           0       -1.168873    6.460071    0.305665
     38          6           0       -4.648825   -2.534896   -1.310042
     39          6           0       -3.879980   -3.777755   -0.979648
     40          6           0       -2.732090   -3.314790   -0.345414
     41          6           0       -5.903335   -2.411833   -2.044219
     42          6           0       -4.143550   -5.255854   -1.274011
     43          6           0       -6.553984   -3.452532   -2.740514
     44          1           0        4.504735   -2.286006    0.244303
     45          1           0        4.981551    0.830544    0.980920
     46          1           0        4.730151   -0.725787    2.221463
     47          1           0        2.933847    1.616428    0.034379
     48          1           0        3.371220   -0.884968   -1.537267
     49          1           0       -0.362828    0.400033    3.579392
     50          1           0       -1.213252    0.426423    1.981884
     51          1           0        0.635494    2.871697   -0.235238
     52          1           0        3.389817   -2.336211    3.030055
     53          1           0        1.957912   -1.530105    4.175296
     54          1           0        1.672496   -2.667375    2.792828
     55          1           0        6.425090   -2.378650    1.776445
     56          1           0        7.488744   -1.155310    1.627652
     57          1           0        7.977715   -2.437505    0.653738
     58          1           0       -1.359928   -2.211573    1.643609
     59          1           0       -0.579903   -2.105122    3.429135
     60          1           0       -1.393019   -0.226715   -0.153171
     61          1           0       -2.196453    4.632982   -1.765697
     62          1           0       -0.499209    4.267907   -1.032877
     63          1           0        7.989907   -0.737199   -3.128376
     64          1           0       -1.251078    4.340055    1.164241
     65          1           0       -2.859642    5.143838    0.660682
     66          1           0       -4.113563    3.870909   -2.627914
     67          1           0       -5.299134    3.021836   -1.154310
     68          1           0       -4.756278    2.245886   -2.689239
     69          1           0       -4.840614    0.185699   -2.054739
     70          1           0        9.187016   -0.717914   -0.471474
     71          1           0       10.171960   -0.813109   -2.036823
     72          1           0       -4.275605   -2.767532    3.342551
     73          1           0       -6.317189   -1.303947   -1.960946
     74          1           0       -5.172702   -5.549505   -0.870116
     75          1           0       -3.869984   -5.674481   -2.360382
     76          1           0       -3.349129   -5.746611   -0.715586
     77          1           0       -0.782944    7.995274    1.296844
     78          1           0       -7.577235   -3.195424   -3.203411
     79          1           0       -6.130299   -4.513801   -2.873679
 ---------------------------------------------------------------------

 SCF Done:  E(RB3LYP) =  -1947.79874760     A.U. after   21 cycles

 Excitation energies and oscillator strengths:

 Excited State   1:      Singlet-A      1.5360 eV  807.19 nm  f=0.2124  <S**2>=0.000
     154 ->156         0.33834
     155 ->156         0.62243
     155 <-156        -0.13653
 This state for optimization and/or second-order correction.
 Total Energy, E(TD-HF/TD-DFT) =  -1947.74230100
 Copying the excited state density for this state as the 1-particle RhoCI density.

 The electronic state is 1-A.
 Alpha  occ. eigenvalues --  -19.19208 -19.15623 -19.13750 -19.12113 -19.10294
 Alpha  occ. eigenvalues --  -19.08201 -14.38716 -14.36394 -14.35974 -14.28031
 Alpha  occ. eigenvalues --  -10.33307 -10.31016 -10.27224 -10.25254 -10.25225
 Alpha  occ. eigenvalues --  -10.24547 -10.24519 -10.24275 -10.24260 -10.24079
 Alpha  occ. eigenvalues --  -10.23518 -10.22686 -10.22459 -10.22057 -10.21806
 Alpha  occ. eigenvalues --  -10.21776 -10.21698 -10.21691 -10.21617 -10.21419
 Alpha  occ. eigenvalues --  -10.21115 -10.20970 -10.20822 -10.20807 -10.20793
 Alpha  occ. eigenvalues --  -10.20698 -10.20380 -10.20295 -10.20289 -10.20229
 Alpha  occ. eigenvalues --  -10.20175 -10.19745 -10.19586  -1.09876  -1.06500
 Alpha  occ. eigenvalues --   -1.01226  -1.00869  -1.00034  -0.98349  -0.97955
 Alpha  occ. eigenvalues --   -0.97459  -0.94101  -0.90852  -0.84124  -0.83000
 Alpha  occ. eigenvalues --   -0.82731  -0.81821  -0.79983  -0.78537  -0.77847
 Alpha  occ. eigenvalues --   -0.76996  -0.75834  -0.74963  -0.73946  -0.72701
 Alpha  occ. eigenvalues --   -0.72200  -0.71113  -0.69850  -0.69127  -0.68314
 Alpha  occ. eigenvalues --   -0.67051  -0.66005  -0.64258  -0.60943  -0.60707
 Alpha  occ. eigenvalues --   -0.59239  -0.58517  -0.58285  -0.57676  -0.57202
 Alpha  occ. eigenvalues --   -0.56249  -0.55226  -0.55107  -0.54419  -0.53091
 Alpha  occ. eigenvalues --   -0.52136  -0.51958  -0.50968  -0.50661  -0.49371
 Alpha  occ. eigenvalues --   -0.49197  -0.48909  -0.48389  -0.47856  -0.47626
 Alpha  occ. eigenvalues --   -0.46881  -0.46668  -0.46300  -0.45963  -0.45539
 Alpha  occ. eigenvalues --   -0.45091  -0.44612  -0.44245  -0.43568  -0.43447
 Alpha  occ. eigenvalues --   -0.43399  -0.42982  -0.42424  -0.42287  -0.42152
 Alpha  occ. eigenvalues --   -0.41841  -0.41811  -0.41429  -0.41037  -0.41012
 Alpha  occ. eigenvalues --   -0.40692  -0.40598  -0.39945  -0.39909  -0.39826
 Alpha  occ. eigenvalues --   -0.39628  -0.39502  -0.39005  -0.38743  -0.38384
 Alpha  occ. eigenvalues --   -0.38139  -0.37924  -0.37706  -0.37438  -0.37365
 Alpha  occ. eigenvalues --   -0.36796  -0.36647  -0.36298  -0.35036  -0.34598
 Alpha  occ. eigenvalues --   -0.34140  -0.33804  -0.33290  -0.32779  -0.30848
 Alpha  occ. eigenvalues --   -0.30803  -0.30634  -0.29121  -0.28085  -0.26807
 Alpha  occ. eigenvalues --   -0.26668  -0.26214  -0.25142  -0.24925  -0.24296
 Alpha  occ. eigenvalues --   -0.24025  -0.23767  -0.23398  -0.20997  -0.18610
 Alpha virt. eigenvalues --   -0.12398  -0.08266  -0.06084  -0.01631  -0.01241
 Alpha virt. eigenvalues --   -0.00337   0.00566   0.01204   0.01782   0.02533
 Alpha virt. eigenvalues --    0.03164   0.03460   0.03969   0.04194   0.04599

 Mulliken charges:
               1
     1  O   -0.277099
     2  O   -0.269718
     3  O   -0.190611
     4  O   -0.223325
     5  O   -0.238657
     6  O   -0.216414
     7  N   -0.089308
     8  N   -0.155919
     9  N   -0.144389
    10  N   -0.319122
    11  C    0.093612
    12  C    0.111427
    13  C   -0.063041
    14  C   -0.149930
    15  C   -0.088383
    16  C    0.088135
    17  C   -0.179059
    18  C    0.149268
    19  C   -0.025958
    20  C   -0.046206
    21  C    0.019143
    22  C    0.111224
    23  C   -0.085759
    24  C    0.058314
    25  C    0.133135
    26  C   -0.043950
    27  C   -0.117353
    28  C    0.143368
    29  C    0.097025
    30  C    0.044980
    31  C   -0.065732
    32  C    0.024225
    33  C   -0.124492
    34  C    0.171068
    35  C    0.089824
    36  C   -0.037953
    37  C    0.165293
    38  C    0.006413
    39  C   -0.165917
    40  C    0.156140
    41  C   -0.066708
    42  C    0.043484
    43  C   -0.062087
    44  H    0.037476
    45  H    0.032994
    46  H    0.016823
    47  H    0.120426
    48  H    0.154155
    49  H    0.040630
    50  H   -0.049697
    51  H   -0.040359
    52  H    0.021560
    53  H    0.049439
    54  H    0.033973
    55  H    0.007011
    56  H   -0.000178
    57  H    0.045345
    58  H    0.135211
    59  H    0.033723
    60  H    0.196057
    61  H   -0.006484
    62  H    0.020689
    63  H   -0.025599
    64  H    0.060182
    65  H    0.059386
    66  H    0.041699
    67  H    0.057519
    68  H   -0.001934
    69  H   -0.001549
    70  H   -0.012184
    71  H    0.046251
    72  H    0.198277
    73  H    0.032723
    74  H    0.045890
    75  H    0.053214
    76  H    0.017659
    77  H    0.217576
    78  H    0.044870
    79  H    0.058239
 Sum of Mulliken charges =  -0.00000

 Dipole moment (field-independent basis, Debye):
    X=              0.5264    Y=              1.5249    Z=              3.2962  Tot=              3.6698
 Quadrupole moment (field-independent basis, Debye-Ang):
   XX=           -220.0664   YY=           -250.2620   ZZ=           -266.8573
   XY=             -6.5106   XZ=             39.8484   YZ=              6.7992

 Normal termination of Gaussian 16 at Thu Oct  3 09:36:10 2019.
