 Gaussian 16, Revision A.03,
 Gaussian 16:  ES64L-G16RevA.03 25-Dec-2016

 --------------------------
 # td=(NStates=1) B3LYP/SVP
 --------------------------

 --
 TD
 --
 Symbolic Z-matrix:
 Charge =  0 Multiplicity = 1

                         Standard orientation:
 ---------------------------------------------------------------------
 Center     Atomic      Atomic             Coordinates (Angstroms)
 Number     Number       Type             X           Y           Z
 ---------------------------------------------------------------------
      1          8           0       -3.154421   -1.550122   -2.841064
      2          8           0        3.387897    2.975345    3.110602
      3          8           0        3.506058    1.312123    4.672095
      4          8           0        7.686500   -1.737195   -0.563132
      5          8           0        6.753670   -2.647301   -2.454728
      6          8           0       -2.567962    1.722302    1.648520
      7          7           0       -0.348736   -2.351983    1.006318
      8          7           0       -2.643688   -1.181980   -0.499466
      9          7           0        1.139957    0.093119   -0.816941
     10          7           0       -1.113724    1.421451   -0.142990
     11          6           0       -3.350096   -1.265489    0.658089
     12          6           0       -2.675277   -2.272789    1.683638
     13          6           0       -1.282950   -1.968693    1.920082
     14          6           0       -0.494507   -1.154141    2.820386
     15          6           0        0.831000   -1.183955    2.425400
     16          6           0        0.907760   -1.843346    1.176024
     17          6           0       -4.642582   -1.949624    0.202094
     18          6           0        1.942894   -0.445363    3.098192
     19          6           0       -4.647605   -2.204555   -1.037758
     20          6           0        2.051507   -1.954219    0.093444
     21          6           0        2.058813   -0.848714   -0.703036
     22          6           0       -3.381802   -1.587932   -1.667224
     23          6           0        3.025639   -0.691169   -1.765443
     24          6           0       -1.102842   -0.425513    3.960695
     25          6           0       -5.859225   -2.011780    1.184771
     26          6           0        2.584769    0.496763   -2.418220
     27          6           0        2.022855    0.944901    2.721824
     28          6           0        1.346505    1.012927   -1.870066
     29          6           0        4.184476   -1.375174   -2.107377
     30          6           0       -5.697941   -2.706542   -2.034549
     31          6           0        5.421119   -1.006927   -1.241557
     32          6           0        3.259753    1.361738   -3.581254
     33          6           0        0.405894    2.052212   -2.018152
     34          6           0        3.054670    1.782327    3.605920
     35          6           0       -0.770306    2.167248   -1.198787
     36          6           0       -6.869663   -3.442395   -1.768364
     37          6           0        6.623879   -1.914476   -1.507026
     38          6           0       -1.582091    3.471940   -1.189600
     39          6           0       -2.392342    3.430897   -0.141150
     40          6           0       -2.058137    2.123539    0.511751
     41          6           0       -1.467953    4.628170   -2.169571
     42          6           0       -3.501751    4.291267    0.283604
     43          6           0       -2.173390    5.722792   -2.500716
     44          1           0       -3.628588   -0.256267    1.199153
     45          1           0       -2.992770   -3.334961    1.456578
     46          1           0       -3.180916   -2.125040    2.643780
     47          1           0       -0.507282   -2.621572    0.058884
     48          1           0       -1.957576   -0.427601   -0.599249
     49          1           0        1.780700   -0.711310    4.230312
     50          1           0        2.739009   -0.911748    2.854813
     51          1           0        2.659450   -2.773863    0.391330
     52          1           0       -2.279612   -0.991901    4.168134
     53          1           0       -0.332462   -0.502508    4.878638
     54          1           0       -1.296838    0.514458    3.570076
     55          1           0       -5.725265   -1.196223    1.956001
     56          1           0       -5.890549   -3.087075    1.744111
     57          1           0       -6.737125   -1.840983    0.679289
     58          1           0        2.302800    0.933000    1.594698
     59          1           0        0.966121    1.300678    2.831658
     60          1           0        0.363081    0.266278   -0.117904
     61          1           0        4.340290   -1.308564   -3.201502
     62          1           0        4.318847   -2.651003   -2.152541
     63          1           0       -5.327613   -2.219865   -2.992655
     64          1           0        5.106392   -1.385077   -0.129721
     65          1           0        5.581571   -0.030388   -1.354315
     66          1           0        3.865170    0.618306   -3.982323
     67          1           0        3.572090    2.315210   -3.107194
     68          1           0        2.445743    1.684744   -4.421131
     69          1           0        0.625246    2.699684   -2.785984
     70          1           0       -7.171953   -3.920372   -0.683337
     71          1           0       -7.703096   -3.423721   -2.597850
     72          1           0        3.966165    3.432499    3.585071
     73          1           0       -0.605043    4.410674   -2.905633
     74          1           0       -4.217895    4.646675   -0.423850
     75          1           0       -4.095948    3.744747    0.982753
     76          1           0       -3.126958    5.253399    0.662399
     77          1           0        8.500136   -2.267870   -0.799317
     78          1           0       -1.913490    6.299541   -3.266795
     79          1           0       -3.198857    5.999000   -1.929546
 ---------------------------------------------------------------------

 SCF Done:  E(RB3LYP) =  -1947.77168114     A.U. after   22 cycles

 Excitation energies and oscillator strengths:

 Excited State   1:      Singlet-A      0.6022 eV 2058.79 nm  f=0.0006  <S**2>=0.000
     155 ->156         0.70536
 This state for optimization and/or second-order correction.
 Total Energy, E(TD-HF/TD-DFT) =  -1947.74954996
 Copying the excited state density for this state as the 1-particle RhoCI density.

 The electronic state is 1-A.
 Alpha  occ. eigenvalues --  -19.18645 -19.18553 -19.15385 -19.12129 -19.12099
 Alpha  occ. eigenvalues --  -19.10616 -14.38033 -14.35490 -14.32968 -14.32853
 Alpha  occ. eigenvalues --  -10.34537 -10.32637 -10.28868 -10.27829 -10.27825
 Alpha  occ. eigenvalues --  -10.27392 -10.26290 -10.24018 -10.23887 -10.23678
 Alpha  occ. eigenvalues --  -10.23676 -10.23400 -10.22909 -10.22513 -10.22250
 Alpha  occ. eigenvalues --  -10.22232 -10.21908 -10.21144 -10.21125 -10.20905
 Alpha  occ. eigenvalues --  -10.20485 -10.20323 -10.20281 -10.19604 -10.19279
 Alpha  occ. eigenvalues --  -10.19278 -10.18936 -10.18863 -10.18515 -10.17327
 Alpha  occ. eigenvalues --  -10.16548 -10.16084 -10.16028  -1.10856  -1.09093
 Alpha  occ. eigenvalues --   -1.02902  -1.01244  -1.00996  -1.00495  -0.99372
 Alpha  occ. eigenvalues --   -0.96554  -0.94222  -0.93883  -0.85427  -0.83135
 Alpha  occ. eigenvalues --   -0.82362  -0.81142  -0.79902  -0.79214  -0.78301
 Alpha  occ. eigenvalues --   -0.77065  -0.76182  -0.75458  -0.73521  -0.72411
 Alpha  occ. eigenvalues --   -0.71897  -0.70233  -0.70031  -0.68929  -0.68296
 Alpha  occ. eigenvalues --   -0.67325  -0.66138  -0.63723  -0.61992  -0.61436
 Alpha  occ. eigenvalues --   -0.61003  -0.60655  -0.58814  -0.57882  -0.57303
 Alpha  occ. eigenvalues --   -0.56091  -0.55923  -0.54624  -0.54129  -0.52995
 Alpha  occ. eigenvalues --   -0.52491  -0.52182  -0.51142  -0.50897  -0.49690
 Alpha  occ. eigenvalues --   -0.49593  -0.49065  -0.48611  -0.48370  -0.48068
 Alpha  occ. eigenvalues --   -0.47538  -0.47270  -0.47071  -0.46582  -0.46052
 Alpha  occ. eigenvalues --   -0.45674  -0.45249  -0.45158  -0.44698  -0.44495
 Alpha  occ. eigenvalues --   -0.44287  -0.43403  -0.42742  -0.42338  -0.42172
 Alpha  occ. eigenvalues --   -0.42000  -0.41631  -0.41490  -0.41345  -0.41086
 Alpha  occ. eigenvalues --   -0.40615  -0.39956  -0.39837  -0.39612  -0.39395
 Alpha  occ. eigenvalues --   -0.39248  -0.39060  -0.39038  -0.38935  -0.38192
 Alpha  occ. eigenvalues --   -0.37567  -0.37458  -0.36746  -0.35850  -0.35790
 Alpha  occ. eigenvalues --   -0.35524  -0.35320  -0.34857  -0.34354  -0.34047
 Alpha  occ. eigenvalues --   -0.33358  -0.32884  -0.32484  -0.32076  -0.31840
 Alpha  occ. eigenvalues --   -0.31599  -0.30339  -0.30251  -0.29793  -0.29547
 Alpha  occ. eigenvalues --   -0.27523  -0.27219  -0.26168  -0.25713  -0.25289
 Alpha  occ. eigenvalues --   -0.24774  -0.23304  -0.22893  -0.22379  -0.18543
 Alpha virt. eigenvalues --   -0.13780  -0.08380  -0.03291  -0.02627  -0.02362
 Alpha virt. eigenvalues --   -0.00297   0.01401   0.01567   0.02713   0.03044
 Alpha virt. eigenvalues --    0.03201   0.03861   0.04290   0.04644   0.05208

 Mulliken charges:
               1
     1  O   -0.198724
     2  O   -0.101878
     3  O   -0.255545
     4  O   -0.268093
     5  O   -0.198715
     6  O   -0.282487
     7  N   -0.015268
     8  N   -0.213590
     9  N   -0.111819
    10  N   -0.246773
    11  C    0.036751
    12  C    0.188920
    13  C   -0.072298
    14  C   -0.134736
    15  C   -0.162333
    16  C   -0.177959
    17  C   -0.230147
    18  C    0.212405
    19  C   -0.079319
    20  C   -0.079034
    21  C    0.160015
    22  C    0.157172
    23  C    0.044862
    24  C    0.047621
    25  C    0.077922
    26  C   -0.176662
    27  C   -0.017929
    28  C    0.141557
    29  C   -0.094342
    30  C    0.012855
    31  C    0.039373
    32  C    0.082284
    33  C   -0.056522
    34  C    0.155482
    35  C    0.159581
    36  C   -0.105063
    37  C    0.171854
    38  C    0.000763
    39  C   -0.165438
    40  C    0.157365
    41  C   -0.018098
    42  C    0.127805
    43  C   -0.008054
    44  H    0.062887
    45  H    0.000108
    46  H   -0.029067
    47  H    0.097546
    48  H    0.139963
    49  H    0.023136
    50  H   -0.094978
    51  H    0.028366
    52  H    0.020568
    53  H    0.035199
    54  H    0.028999
    55  H    0.023238
    56  H    0.042978
    57  H    0.008369
    58  H    0.032772
    59  H    0.051072
    60  H    0.204766
    61  H    0.037146
    62  H    0.055267
    63  H    0.036432
    64  H    0.074560
    65  H    0.014630
    66  H    0.010410
    67  H    0.056539
    68  H    0.049512
    69  H   -0.057894
    70  H    0.059720
    71  H    0.048657
    72  H    0.132066
    73  H    0.005660
    74  H    0.014874
    75  H    0.019745
    76  H    0.026233
    77  H    0.204451
    78  H   -0.008356
    79  H    0.040663
 Sum of Mulliken charges =  -0.00000

 Dipole moment (field-independent basis, Debye):
    X=              4.1395    Y=              4.1416    Z=             -3.0422  Tot=              6.5988
 Quadrupole moment (field-independent basis, Debye-Ang):
   XX=           -229.7425   YY=           -236.0369   ZZ=           -279.6367
   XY=             -3.2203   XZ=            -16.0240   YZ=            -15.8401

 Normal termination of Gaussian 16 at Sun Jul 28 16:15:40 2019.
