 Gaussian 16, Revision A.03,
 Gaussian 16:  ES64L-G16RevA.03 25-Dec-2016

 --------------------------
 # td=(NStates=1) B3LYP/SVP
 --------------------------

 --
 TD
 --
 Symbolic Z-matrix:
 Charge =  0 Multiplicity = 1

                         Standard orientation:
 ---------------------------------------------------------------------
 Center     Atomic      Atomic             Coordinates (Angstroms)
 Number     Number       Type             X           Y           Z
 ---------------------------------------------------------------------
      1          8           0       -3.165899   -1.096253   -2.921577
      2          8           0        3.068797    2.919297    3.379794
      3          8           0        3.663896    1.009121    4.374701
      4          8           0        7.598347   -1.299144   -0.758704
      5          8           0        6.601875   -3.075958   -1.944716
      6          8           0       -2.602394    1.550024    1.554274
      7          7           0       -0.345989   -2.387226    0.730988
      8          7           0       -2.640083   -1.099613   -0.584621
      9          7           0        1.246558    0.124222   -0.747367
     10          7           0       -1.047993    1.517173   -0.227496
     11          6           0       -3.378049   -1.352271    0.576669
     12          6           0       -2.668258   -2.456939    1.470585
     13          6           0       -1.247453   -2.127260    1.673119
     14          6           0       -0.489709   -1.540926    2.778889
     15          6           0        0.917371   -1.396560    2.395919
     16          6           0        1.009056   -1.955484    1.043872
     17          6           0       -4.747206   -1.964591    0.127626
     18          6           0        1.938427   -0.593717    3.033744
     19          6           0       -4.723428   -1.907508   -1.259255
     20          6           0        2.148369   -1.916634    0.024637
     21          6           0        2.208511   -0.845578   -0.752033
     22          6           0       -3.486598   -1.332462   -1.784055
     23          6           0        2.981356   -0.556786   -1.936808
     24          6           0       -1.160005   -0.962689    3.944144
     25          6           0       -5.847582   -2.207105    1.120133
     26          6           0        2.475288    0.633072   -2.511710
     27          6           0        1.761620    0.902013    2.977008
     28          6           0        1.366327    1.116743   -1.776501
     29          6           0        4.230515   -1.339531   -2.341245
     30          6           0       -5.832997   -2.309444   -2.169501
     31          6           0        5.340004   -1.092295   -1.354332
     32          6           0        3.095597    1.391134   -3.607952
     33          6           0        0.470587    2.136153   -1.944851
     34          6           0        2.875347    1.700126    3.659153
     35          6           0       -0.687213    2.387866   -1.167634
     36          6           0       -6.779627   -3.286584   -1.881340
     37          6           0        6.529489   -1.917830   -1.447757
     38          6           0       -1.397567    3.607773   -1.026063
     39          6           0       -2.223194    3.400758    0.119118
     40          6           0       -2.009330    2.118592    0.576708
     41          6           0       -1.176809    4.766551   -1.816119
     42          6           0       -3.296557    4.240839    0.650498
     43          6           0       -1.979933    5.945338   -1.839606
     44          1           0       -3.604582   -0.382131    1.301715
     45          1           0       -2.876822   -3.440956    0.869407
     46          1           0       -3.225202   -2.661096    2.450980
     47          1           0       -0.582733   -2.721120   -0.246299
     48          1           0       -2.047248   -0.219795   -0.601454
     49          1           0        2.073487   -1.227247    4.146703
     50          1           0        2.927483   -0.770649    2.579748
     51          1           0        2.807779   -2.793047    0.024222
     52          1           0       -1.680599   -1.566142    4.486976
     53          1           0       -0.509188   -0.821446    4.782650
     54          1           0       -1.855714   -0.111997    3.481860
     55          1           0       -5.875996   -1.671295    2.124117
     56          1           0       -5.792525   -3.210539    1.555054
     57          1           0       -6.689615   -2.113029    0.729941
     58          1           0        1.454971    1.175971    1.783630
     59          1           0        0.764860    1.037721    3.527183
     60          1           0        0.332223    0.260159   -0.259407
     61          1           0        4.655096   -0.911509   -3.249441
     62          1           0        4.116649   -2.454291   -2.293470
     63          1           0       -5.838236   -1.783549   -3.211189
     64          1           0        4.937786   -1.361253   -0.267352
     65          1           0        5.741173    0.019196   -1.344694
     66          1           0        4.008923    0.880402   -4.279390
     67          1           0        3.433071    2.362198   -3.285634
     68          1           0        2.299818    1.661564   -4.264831
     69          1           0        0.734212    2.955166   -2.815668
     70          1           0       -7.085092   -3.816158   -0.770585
     71          1           0       -7.453958   -3.619996   -2.773172
     72          1           0        3.609740    3.258845    3.972001
     73          1           0       -0.661149    4.814214   -2.840087
     74          1           0       -4.209666    4.250256   -0.056469
     75          1           0       -3.538152    3.711111    1.730801
     76          1           0       -3.198382    5.582568    0.823006
     77          1           0        8.319928   -2.118650   -0.850704
     78          1           0       -1.765749    6.609024   -2.725721
     79          1           0       -2.829119    6.350330   -1.235493
 ---------------------------------------------------------------------

 SCF Done:  E(RB3LYP) =  -1947.74378292     A.U. after   24 cycles

 Excitation energies and oscillator strengths:

 Excited State   1:      Singlet-A      0.3558 eV 3485.01 nm  f=0.0004  <S**2>=0.000
     155 ->156         0.70402
 This state for optimization and/or second-order correction.
 Total Energy, E(TD-HF/TD-DFT) =  -1947.73070881
 Copying the excited state density for this state as the 1-particle RhoCI density.

 The electronic state is 1-A.
 Alpha  occ. eigenvalues --  -19.19736 -19.19618 -19.14302 -19.12744 -19.10512
 Alpha  occ. eigenvalues --  -19.09994 -14.36809 -14.36399 -14.32048 -14.31107
 Alpha  occ. eigenvalues --  -10.33480 -10.31841 -10.28036 -10.27584 -10.26762
 Alpha  occ. eigenvalues --  -10.25408 -10.25199 -10.23276 -10.23250 -10.23214
 Alpha  occ. eigenvalues --  -10.22929 -10.22887 -10.22854 -10.22816 -10.22773
 Alpha  occ. eigenvalues --  -10.22392 -10.22389 -10.22368 -10.21851 -10.21464
 Alpha  occ. eigenvalues --  -10.21250 -10.21063 -10.20927 -10.20923 -10.20702
 Alpha  occ. eigenvalues --  -10.20144 -10.19931 -10.19382 -10.18891 -10.18812
 Alpha  occ. eigenvalues --  -10.17394 -10.16369 -10.15582  -1.14548  -1.07167
 Alpha  occ. eigenvalues --   -1.01858  -1.01712  -0.99026  -0.98969  -0.97808
 Alpha  occ. eigenvalues --   -0.95026  -0.94449  -0.91136  -0.83944  -0.83557
 Alpha  occ. eigenvalues --   -0.81722  -0.79957  -0.79728  -0.79451  -0.78178
 Alpha  occ. eigenvalues --   -0.76454  -0.75490  -0.75002  -0.74030  -0.72976
 Alpha  occ. eigenvalues --   -0.71220  -0.70846  -0.70319  -0.69344  -0.67851
 Alpha  occ. eigenvalues --   -0.67088  -0.65854  -0.63227  -0.61831  -0.61067
 Alpha  occ. eigenvalues --   -0.59619  -0.58852  -0.57734  -0.57074  -0.55999
 Alpha  occ. eigenvalues --   -0.55475  -0.54799  -0.54178  -0.53945  -0.52251
 Alpha  occ. eigenvalues --   -0.51533  -0.51134  -0.50998  -0.49737  -0.49560
 Alpha  occ. eigenvalues --   -0.49258  -0.48749  -0.48586  -0.48449  -0.47719
 Alpha  occ. eigenvalues --   -0.47066  -0.46933  -0.46682  -0.46304  -0.45314
 Alpha  occ. eigenvalues --   -0.45272  -0.44757  -0.44377  -0.43998  -0.43686
 Alpha  occ. eigenvalues --   -0.43369  -0.42948  -0.42912  -0.42506  -0.42021
 Alpha  occ. eigenvalues --   -0.41531  -0.41259  -0.41041  -0.40873  -0.40737
 Alpha  occ. eigenvalues --   -0.40387  -0.39903  -0.39526  -0.39446  -0.39023
 Alpha  occ. eigenvalues --   -0.38932  -0.38655  -0.38500  -0.38483  -0.37928
 Alpha  occ. eigenvalues --   -0.37870  -0.37766  -0.37108  -0.36421  -0.36051
 Alpha  occ. eigenvalues --   -0.35875  -0.35393  -0.34730  -0.34313  -0.33773
 Alpha  occ. eigenvalues --   -0.33036  -0.32693  -0.32482  -0.31625  -0.30758
 Alpha  occ. eigenvalues --   -0.30045  -0.29554  -0.29399  -0.29220  -0.29113
 Alpha  occ. eigenvalues --   -0.26629  -0.26490  -0.26016  -0.25491  -0.23998
 Alpha  occ. eigenvalues --   -0.23610  -0.22575  -0.22538  -0.21287  -0.17987
 Alpha virt. eigenvalues --   -0.14335  -0.08982  -0.05047  -0.03456  -0.02862
 Alpha virt. eigenvalues --   -0.00018   0.00604   0.01731   0.02170   0.02370
 Alpha virt. eigenvalues --    0.02824   0.03550   0.03895   0.04432   0.04836

 Mulliken charges:
               1
     1  O   -0.198316
     2  O   -0.011698
     3  O   -0.296335
     4  O   -0.274909
     5  O   -0.270559
     6  O   -0.250041
     7  N   -0.086523
     8  N   -0.271875
     9  N   -0.140395
    10  N   -0.319735
    11  C   -0.025797
    12  C    0.116538
    13  C   -0.030424
    14  C   -0.185056
    15  C   -0.071919
    16  C   -0.049671
    17  C   -0.125962
    18  C    0.044438
    19  C   -0.076151
    20  C   -0.131861
    21  C    0.203428
    22  C    0.162998
    23  C   -0.082217
    24  C    0.169683
    25  C    0.186305
    26  C   -0.096270
    27  C   -0.061708
    28  C    0.126666
    29  C    0.177543
    30  C   -0.027500
    31  C   -0.097720
    32  C    0.062357
    33  C   -0.116088
    34  C    0.117629
    35  C    0.097455
    36  C   -0.119430
    37  C    0.184125
    38  C    0.104121
    39  C   -0.093987
    40  C    0.182220
    41  C   -0.074440
    42  C   -0.096846
    43  C   -0.075509
    44  H    0.084493
    45  H   -0.002598
    46  H    0.005382
    47  H    0.132269
    48  H    0.175319
    49  H    0.041621
    50  H   -0.016534
    51  H    0.031100
    52  H   -0.069372
    53  H   -0.026034
    54  H    0.066076
    55  H    0.023549
    56  H    0.013753
    57  H   -0.044617
    58  H    0.055998
    59  H    0.053880
    60  H    0.191750
    61  H    0.002329
    62  H    0.038854
    63  H    0.042817
    64  H    0.082743
    65  H    0.058985
    66  H    0.055262
    67  H    0.024533
    68  H    0.014170
    69  H    0.027227
    70  H    0.058050
    71  H    0.042347
    72  H    0.127455
    73  H    0.035250
    74  H    0.061613
    75  H    0.075181
    76  H    0.048967
    77  H    0.231939
    78  H    0.036265
    79  H    0.043414
 Sum of Mulliken charges =  -0.00000

 Dipole moment (field-independent basis, Debye):
    X=              1.1269    Y=              4.7035    Z=             -2.0252  Tot=              5.2435
 Quadrupole moment (field-independent basis, Debye-Ang):
   XX=           -237.3648   YY=           -233.1767   ZZ=           -263.9482
   XY=              8.8831   XZ=            -20.9423   YZ=            -13.1836

 Normal termination of Gaussian 16 at Thu Jul 25 00:21:47 2019.
