 Gaussian 16, Revision A.03,
 Gaussian 16:  ES64L-G16RevA.03 25-Dec-2016

 --------------------------
 # td=(NStates=1) B3LYP/SVP
 --------------------------

 --
 TD
 --
 Symbolic Z-matrix:
 Charge =  0 Multiplicity = 1

                         Standard orientation:
 ---------------------------------------------------------------------
 Center     Atomic      Atomic             Coordinates (Angstroms)
 Number     Number       Type             X           Y           Z
 ---------------------------------------------------------------------
      1          8           0        5.438946    0.080019   -3.227672
      2          8           0       -2.836628   -2.982003    3.328288
      3          8           0       -3.367929   -0.828357    2.877921
      4          8           0       -1.412070    7.103473    1.661145
      5          8           0       -0.629984    7.022740   -0.540785
      6          8           0       -1.947699   -3.912402    0.185971
      7          7           0        2.355426    1.048806    0.627921
      8          7           0        4.308295   -0.520004   -1.271100
      9          7           0       -1.709983    0.747995   -0.562343
     10          7           0       -2.683062   -1.897332   -0.540008
     11          6           0        4.720392   -1.144154   -0.055701
     12          6           0        4.389876   -0.291743    1.261683
     13          6           0        2.940866    0.065672    1.375504
     14          6           0        1.978007   -0.531938    2.146816
     15          6           0        0.727944    0.061829    1.881537
     16          6           0        0.966758    1.006717    0.865092
     17          6           0        6.189833   -1.483164   -0.176363
     18          6           0       -0.562721   -0.221571    2.475883
     19          6           0        6.622613   -0.961782   -1.381705
     20          6           0        0.156333    1.982958    0.102540
     21          6           0       -1.053081    1.932888   -0.434569
     22          6           0        5.432822   -0.362284   -2.066662
     23          6           0       -1.938590    2.844825   -1.043189
     24          6           0        2.246718   -1.666801    3.033847
     25          6           0        6.954488   -2.194289    0.853197
     26          6           0       -3.115043    2.381699   -1.272625
     27          6           0       -1.077593   -1.695801    2.745475
     28          6           0       -3.045893    0.947184   -1.083594
     29          6           0       -1.407817    4.334569   -0.817043
     30          6           0        7.942533   -0.935602   -1.960036
     31          6           0       -1.629236    4.971236    0.438361
     32          6           0       -4.244477    3.091767   -2.007970
     33          6           0       -4.036532   -0.070271   -1.275154
     34          6           0       -2.617569   -1.671342    3.009443
     35          6           0       -3.798155   -1.458013   -1.147064
     36          6           0        9.238929   -1.074213   -1.580015
     37          6           0       -1.122610    6.485929    0.504476
     38          6           0       -4.689111   -2.608970   -1.581169
     39          6           0       -4.002742   -3.642972   -1.117230
     40          6           0       -2.739089   -3.184014   -0.409800
     41          6           0       -6.012151   -2.374600   -2.040279
     42          6           0       -4.173620   -5.162967   -1.223016
     43          6           0       -6.890075   -3.372274   -2.418785
     44          1           0        4.300316   -2.152842    0.258254
     45          1           0        4.929252    0.679752    1.366979
     46          1           0        4.752252   -0.871345    2.047798
     47          1           0        2.784448    1.523149   -0.190812
     48          1           0        3.361202   -0.668247   -1.584256
     49          1           0       -0.665307    0.295582    3.531518
     50          1           0       -1.393577    0.247306    2.077901
     51          1           0        0.717050    2.925823   -0.198528
     52          1           0        3.236544   -2.008775    3.267789
     53          1           0        1.611471   -1.401698    4.066515
     54          1           0        1.637472   -2.623175    2.848076
     55          1           0        6.387452   -3.065788    1.331016
     56          1           0        7.404442   -1.657335    1.661742
     57          1           0        7.837513   -2.793258    0.493736
     58          1           0       -0.937406   -2.164805    1.788723
     59          1           0       -0.853970   -2.265499    3.660263
     60          1           0       -1.680994   -0.420307   -0.402560
     61          1           0       -1.684510    4.977422   -1.678659
     62          1           0       -0.355657    4.542702   -1.142729
     63          1           0        7.784876   -0.696816   -3.178351
     64          1           0       -0.950972    4.486877    1.305133
     65          1           0       -2.824241    5.109748    0.595431
     66          1           0       -3.838617    4.181453   -2.589320
     67          1           0       -5.112083    3.191667   -1.201537
     68          1           0       -4.609906    2.538603   -2.919596
     69          1           0       -4.991522    0.180555   -1.801183
     70          1           0        9.437481   -1.285059   -0.637004
     71          1           0       10.167478   -1.279695   -2.203195
     72          1           0       -4.043431   -3.047219    3.348415
     73          1           0       -6.360320   -1.490571   -2.282344
     74          1           0       -5.138516   -5.596634   -0.729176
     75          1           0       -4.253807   -5.458580   -2.374548
     76          1           0       -3.102393   -5.680780   -0.899650
     77          1           0       -0.869190    8.002613    1.682532
     78          1           0       -8.006447   -3.345707   -2.734177
     79          1           0       -6.640244   -4.424185   -2.255708
 ---------------------------------------------------------------------

 SCF Done:  E(RB3LYP) =  -1947.78639525     A.U. after   17 cycles

 Excitation energies and oscillator strengths:

 Excited State   1:      Singlet-A      2.1238 eV  583.80 nm  f=0.4823  <S**2>=0.000
     155 ->156         0.70009
     155 <-156        -0.11165
 This state for optimization and/or second-order correction.
 Total Energy, E(TD-HF/TD-DFT) =  -1947.70834851
 Copying the excited state density for this state as the 1-particle RhoCI density.

 The electronic state is 1-A.
 Alpha  occ. eigenvalues --  -19.21097 -19.17382 -19.13425 -19.12693 -19.10378
 Alpha  occ. eigenvalues --  -19.09268 -14.38529 -14.36743 -14.35807 -14.29241
 Alpha  occ. eigenvalues --  -10.33711 -10.29877 -10.29433 -10.25743 -10.25481
 Alpha  occ. eigenvalues --  -10.25325 -10.23931 -10.23613 -10.23264 -10.23210
 Alpha  occ. eigenvalues --  -10.23073 -10.23042 -10.22741 -10.22256 -10.21728
 Alpha  occ. eigenvalues --  -10.21631 -10.21344 -10.21324 -10.20675 -10.20555
 Alpha  occ. eigenvalues --  -10.20511 -10.20303 -10.20270 -10.20201 -10.20200
 Alpha  occ. eigenvalues --  -10.19854 -10.19818 -10.19558 -10.19426 -10.19396
 Alpha  occ. eigenvalues --  -10.18754 -10.18702 -10.18325  -1.09437  -1.09371
 Alpha  occ. eigenvalues --   -1.02042  -1.00979  -0.99748  -0.99070  -0.98473
 Alpha  occ. eigenvalues --   -0.97426  -0.94931  -0.93467  -0.82986  -0.82287
 Alpha  occ. eigenvalues --   -0.81994  -0.81686  -0.81067  -0.79746  -0.77908
 Alpha  occ. eigenvalues --   -0.77067  -0.75778  -0.75386  -0.74343  -0.72650
 Alpha  occ. eigenvalues --   -0.72248  -0.70645  -0.68913  -0.68364  -0.66933
 Alpha  occ. eigenvalues --   -0.66652  -0.65922  -0.63990  -0.62846  -0.60538
 Alpha  occ. eigenvalues --   -0.59844  -0.59591  -0.58529  -0.57614  -0.56194
 Alpha  occ. eigenvalues --   -0.56045  -0.55409  -0.54508  -0.54415  -0.53710
 Alpha  occ. eigenvalues --   -0.52519  -0.51912  -0.51396  -0.49908  -0.49250
 Alpha  occ. eigenvalues --   -0.48914  -0.48419  -0.48166  -0.47999  -0.47899
 Alpha  occ. eigenvalues --   -0.47484  -0.46964  -0.46613  -0.46061  -0.45655
 Alpha  occ. eigenvalues --   -0.45356  -0.45081  -0.44773  -0.44020  -0.43561
 Alpha  occ. eigenvalues --   -0.43296  -0.43202  -0.43003  -0.42717  -0.42505
 Alpha  occ. eigenvalues --   -0.42412  -0.42341  -0.41467  -0.41428  -0.41005
 Alpha  occ. eigenvalues --   -0.40754  -0.40543  -0.40333  -0.39459  -0.39294
 Alpha  occ. eigenvalues --   -0.39138  -0.38823  -0.38650  -0.38222  -0.37897
 Alpha  occ. eigenvalues --   -0.37188  -0.37128  -0.36983  -0.36148  -0.35937
 Alpha  occ. eigenvalues --   -0.35887  -0.34722  -0.34396  -0.34327  -0.33985
 Alpha  occ. eigenvalues --   -0.33818  -0.32721  -0.32682  -0.32076  -0.31656
 Alpha  occ. eigenvalues --   -0.31384  -0.31361  -0.28846  -0.28106  -0.27501
 Alpha  occ. eigenvalues --   -0.27369  -0.27174  -0.26593  -0.25940  -0.24474
 Alpha  occ. eigenvalues --   -0.24300  -0.23974  -0.23651  -0.22556  -0.19440
 Alpha virt. eigenvalues --   -0.11149  -0.06864  -0.06238  -0.01823  -0.01385
 Alpha virt. eigenvalues --   -0.00262  -0.00199   0.01236   0.01538   0.02950
 Alpha virt. eigenvalues --    0.03121   0.03641   0.03903   0.04461   0.04889

 Mulliken charges:
               1
     1  O   -0.236860
     2  O   -0.297028
     3  O   -0.138564
     4  O   -0.200711
     5  O   -0.282727
     6  O   -0.224238
     7  N   -0.096157
     8  N   -0.156522
     9  N   -0.209078
    10  N   -0.214289
    11  C    0.029997
    12  C    0.233226
    13  C   -0.105406
    14  C   -0.094626
    15  C    0.008288
    16  C    0.069786
    17  C   -0.110446
    18  C    0.053355
    19  C   -0.033642
    20  C   -0.091591
    21  C    0.094349
    22  C    0.167400
    23  C    0.027076
    24  C    0.032020
    25  C    0.054532
    26  C   -0.103053
    27  C   -0.036583
    28  C    0.094352
    29  C    0.031500
    30  C   -0.064201
    31  C   -0.017138
    32  C   -0.026389
    33  C   -0.063652
    34  C    0.127365
    35  C    0.023615
    36  C   -0.006443
    37  C    0.149614
    38  C    0.135272
    39  C   -0.204980
    40  C    0.103468
    41  C    0.024501
    42  C   -0.028788
    43  C   -0.068007
    44  H    0.025437
    45  H   -0.001495
    46  H   -0.041511
    47  H    0.133032
    48  H    0.143617
    49  H    0.004224
    50  H   -0.023220
    51  H    0.003703
    52  H    0.004849
    53  H    0.019986
    54  H    0.041539
    55  H    0.020964
    56  H    0.037610
    57  H    0.030420
    58  H    0.061769
    59  H    0.035272
    60  H    0.221050
    61  H   -0.002872
    62  H    0.002478
    63  H    0.047381
    64  H    0.061729
    65  H    0.067279
    66  H    0.056511
    67  H    0.056745
    68  H    0.047556
    69  H   -0.013367
    70  H   -0.041602
    71  H    0.046834
    72  H    0.233703
    73  H   -0.067688
    74  H    0.049530
    75  H    0.038005
    76  H    0.068454
    77  H    0.230335
    78  H    0.043039
    79  H    0.010107
 Sum of Mulliken charges =  -0.00000

 Dipole moment (field-independent basis, Debye):
    X=              0.3546    Y=              1.8331    Z=              3.5511  Tot=              4.0120
 Quadrupole moment (field-independent basis, Debye-Ang):
   XX=           -220.9995   YY=           -247.2162   ZZ=           -263.4555
   XY=            -12.9396   XZ=             32.9558   YZ=             10.5434

 Normal termination of Gaussian 16 at Mon Sep 23 08:26:40 2019.
