 Gaussian 16, Revision A.03,
 Gaussian 16:  ES64L-G16RevA.03 25-Dec-2016

 --------------------------
 # td=(NStates=1) B3LYP/SVP
 --------------------------

 --
 TD
 --
 Symbolic Z-matrix:
 Charge =  0 Multiplicity = 1

                         Standard orientation:
 ---------------------------------------------------------------------
 Center     Atomic      Atomic             Coordinates (Angstroms)
 Number     Number       Type             X           Y           Z
 ---------------------------------------------------------------------
      1          8           0       -3.159415   -1.564534   -2.706094
      2          8           0        2.944297    3.351444    2.845792
      3          8           0        3.485151    1.785975    4.403228
      4          8           0        7.806203   -1.504930   -0.757785
      5          8           0        6.530132   -3.314036   -1.508396
      6          8           0       -2.690145    1.668279    1.314025
      7          7           0       -0.272919   -2.317842    1.043849
      8          7           0       -2.674829   -1.232396   -0.510505
      9          7           0        1.120160   -0.004910   -0.684143
     10          7           0       -0.883641    1.503476   -0.239195
     11          6           0       -3.362442   -1.346823    0.753529
     12          6           0       -2.745522   -2.212521    1.756674
     13          6           0       -1.271106   -1.913740    1.874864
     14          6           0       -0.569801   -0.943193    2.770039
     15          6           0        0.728976   -1.047353    2.526778
     16          6           0        1.002452   -1.806962    1.359344
     17          6           0       -4.720573   -1.899509    0.345569
     18          6           0        1.833540   -0.206632    3.207133
     19          6           0       -4.752618   -2.090464   -1.026709
     20          6           0        2.157967   -1.871026    0.421710
     21          6           0        2.085387   -0.974619   -0.649704
     22          6           0       -3.436248   -1.594240   -1.533522
     23          6           0        3.049007   -0.790457   -1.763375
     24          6           0       -1.345716   -0.336856    3.840938
     25          6           0       -5.950403   -2.019858    1.376884
     26          6           0        2.613021    0.356456   -2.401515
     27          6           0        1.850833    1.276211    2.716875
     28          6           0        1.448834    0.797639   -1.760064
     29          6           0        4.236355   -1.669321   -1.965595
     30          6           0       -5.702399   -2.580118   -2.015342
     31          6           0        5.503665   -1.131673   -1.171743
     32          6           0        3.274301    0.916364   -3.684304
     33          6           0        0.638167    1.904606   -2.121932
     34          6           0        2.850052    2.113934    3.361388
     35          6           0       -0.597162    2.290342   -1.298645
     36          6           0       -6.624432   -3.573249   -1.699754
     37          6           0        6.668086   -2.095684   -1.179583
     38          6           0       -1.460811    3.460752   -1.447404
     39          6           0       -2.310305    3.391276   -0.424513
     40          6           0       -2.031222    2.070374    0.347913
     41          6           0       -1.258410    4.416023   -2.433372
     42          6           0       -3.479135    4.162848    0.007497
     43          6           0       -1.968783    5.584895   -2.702514
     44          1           0       -3.516123   -0.366489    1.193892
     45          1           0       -2.736545   -3.395027    1.461801
     46          1           0       -3.355704   -1.969044    2.629101
     47          1           0       -0.340661   -2.548255    0.066283
     48          1           0       -2.099303   -0.267330   -0.705730
     49          1           0        1.543547    0.030386    4.326406
     50          1           0        2.735903   -0.658730    3.031414
     51          1           0        2.801827   -2.694975    0.502208
     52          1           0       -2.007298   -1.078136    4.341281
     53          1           0       -0.582704    0.473485    4.514097
     54          1           0       -1.960537    0.247128    3.304015
     55          1           0       -5.666477   -1.309840    2.071370
     56          1           0       -5.913891   -2.914199    1.959404
     57          1           0       -6.778038   -2.099782    0.762468
     58          1           0        1.890609    1.232652    1.642590
     59          1           0        0.916755    1.837871    2.984837
     60          1           0        0.296391    0.057774    0.049084
     61          1           0        4.358546   -1.612260   -3.119447
     62          1           0        4.021289   -2.516111   -1.425957
     63          1           0       -5.521214   -2.201439   -3.179303
     64          1           0        5.142741   -0.984715   -0.006815
     65          1           0        5.808514   -0.066692   -1.490357
     66          1           0        4.149067    0.596195   -3.881257
     67          1           0        3.243893    2.080655   -3.563291
     68          1           0        2.533865    0.551219   -4.555140
     69          1           0        1.001103    2.599387   -2.892042
     70          1           0       -6.946895   -3.934106   -0.670259
     71          1           0       -7.124803   -3.713077   -2.603894
     72          1           0        3.489438    3.873636    3.267165
     73          1           0       -0.350665    4.349039   -3.106247
     74          1           0       -4.290510    4.515443   -0.525693
     75          1           0       -3.968374    3.801460    0.970312
     76          1           0       -3.153326    5.259696    0.340569
     77          1           0        8.464812   -2.236712   -0.729497
     78          1           0       -1.594456    6.442845   -3.191275
     79          1           0       -2.963281    5.777638   -2.093555
 ---------------------------------------------------------------------

 SCF Done:  E(RB3LYP) =  -1947.79689341     A.U. after   21 cycles

 Excitation energies and oscillator strengths:

 Excited State   1:      Singlet-A      0.8527 eV 1454.00 nm  f=0.0021  <S**2>=0.000
     155 ->156         0.70351
 This state for optimization and/or second-order correction.
 Total Energy, E(TD-HF/TD-DFT) =  -1947.76555678
 Copying the excited state density for this state as the 1-particle RhoCI density.

 The electronic state is 1-A.
 Alpha  occ. eigenvalues --  -19.21067 -19.17415 -19.14171 -19.13662 -19.11274
 Alpha  occ. eigenvalues --  -19.07558 -14.37708 -14.36750 -14.33228 -14.32068
 Alpha  occ. eigenvalues --  -10.34333 -10.31640 -10.29538 -10.26804 -10.26712
 Alpha  occ. eigenvalues --  -10.25400 -10.25333 -10.24371 -10.22840 -10.22618
 Alpha  occ. eigenvalues --  -10.22559 -10.22345 -10.22084 -10.22079 -10.21990
 Alpha  occ. eigenvalues --  -10.21973 -10.21683 -10.21634 -10.21497 -10.20767
 Alpha  occ. eigenvalues --  -10.20728 -10.20657 -10.20345 -10.20317 -10.20270
 Alpha  occ. eigenvalues --  -10.19441 -10.18885 -10.18589 -10.18533 -10.17951
 Alpha  occ. eigenvalues --  -10.17790 -10.16666 -10.16206  -1.10749  -1.10236
 Alpha  occ. eigenvalues --   -1.03379  -1.01379  -1.00160  -0.99778  -0.98126
 Alpha  occ. eigenvalues --   -0.96193  -0.94495  -0.92820  -0.84088  -0.82929
 Alpha  occ. eigenvalues --   -0.81986  -0.80455  -0.79771  -0.78876  -0.78103
 Alpha  occ. eigenvalues --   -0.77093  -0.76871  -0.75281  -0.73831  -0.73238
 Alpha  occ. eigenvalues --   -0.71809  -0.71250  -0.70450  -0.69986  -0.67673
 Alpha  occ. eigenvalues --   -0.67474  -0.66162  -0.63182  -0.61848  -0.60974
 Alpha  occ. eigenvalues --   -0.60710  -0.59597  -0.59030  -0.58043  -0.56825
 Alpha  occ. eigenvalues --   -0.56473  -0.55470  -0.54299  -0.53887  -0.52809
 Alpha  occ. eigenvalues --   -0.52143  -0.51282  -0.51114  -0.50147  -0.49857
 Alpha  occ. eigenvalues --   -0.49679  -0.49035  -0.48781  -0.48341  -0.47933
 Alpha  occ. eigenvalues --   -0.47409  -0.46877  -0.46734  -0.46399  -0.46202
 Alpha  occ. eigenvalues --   -0.45648  -0.45479  -0.45419  -0.44714  -0.44337
 Alpha  occ. eigenvalues --   -0.44141  -0.44029  -0.43601  -0.42713  -0.42201
 Alpha  occ. eigenvalues --   -0.42076  -0.41767  -0.41581  -0.41346  -0.40887
 Alpha  occ. eigenvalues --   -0.40628  -0.40309  -0.39933  -0.39604  -0.39519
 Alpha  occ. eigenvalues --   -0.39192  -0.39006  -0.38623  -0.38454  -0.38027
 Alpha  occ. eigenvalues --   -0.37737  -0.37042  -0.36759  -0.36689  -0.36511
 Alpha  occ. eigenvalues --   -0.36215  -0.36020  -0.35650  -0.35415  -0.35310
 Alpha  occ. eigenvalues --   -0.33923  -0.33322  -0.33014  -0.31989  -0.31063
 Alpha  occ. eigenvalues --   -0.30814  -0.30453  -0.29611  -0.29401  -0.29104
 Alpha  occ. eigenvalues --   -0.27311  -0.26734  -0.26607  -0.25183  -0.24068
 Alpha  occ. eigenvalues --   -0.23600  -0.23193  -0.22194  -0.22078  -0.18498
 Alpha virt. eigenvalues --   -0.12917  -0.08177  -0.03979  -0.03032  -0.03016
 Alpha virt. eigenvalues --   -0.00137   0.00938   0.02057   0.02091   0.03214
 Alpha virt. eigenvalues --    0.03962   0.04320   0.04538   0.05129   0.05305

 Mulliken charges:
               1
     1  O   -0.229601
     2  O   -0.108476
     3  O   -0.279743
     4  O   -0.168736
     5  O   -0.275310
     6  O   -0.209804
     7  N   -0.039765
     8  N   -0.211133
     9  N   -0.124808
    10  N   -0.328560
    11  C    0.057236
    12  C    0.214498
    13  C   -0.120948
    14  C   -0.150548
    15  C   -0.091241
    16  C   -0.108419
    17  C   -0.222763
    18  C    0.145566
    19  C   -0.052772
    20  C   -0.070563
    21  C    0.085068
    22  C    0.076678
    23  C   -0.115091
    24  C    0.136036
    25  C    0.192568
    26  C   -0.160240
    27  C   -0.010090
    28  C    0.161351
    29  C    0.215322
    30  C   -0.102584
    31  C   -0.114052
    32  C    0.136649
    33  C   -0.101360
    34  C    0.132598
    35  C    0.068648
    36  C   -0.010734
    37  C    0.191957
    38  C    0.166805
    39  C   -0.157065
    40  C    0.191876
    41  C   -0.100666
    42  C    0.043883
    43  C   -0.045538
    44  H    0.040665
    45  H    0.016617
    46  H   -0.025584
    47  H    0.113626
    48  H    0.190182
    49  H    0.022013
    50  H   -0.026706
    51  H    0.001251
    52  H    0.024476
    53  H    0.019130
    54  H   -0.025063
    55  H   -0.000721
    56  H    0.004958
    57  H    0.015062
    58  H    0.017879
    59  H    0.048275
    60  H    0.255895
    61  H    0.049830
    62  H   -0.010771
    63  H    0.068134
    64  H    0.080315
    65  H    0.050167
    66  H   -0.037016
    67  H    0.045050
    68  H    0.064021
    69  H   -0.018720
    70  H    0.041938
    71  H    0.009538
    72  H    0.120205
    73  H    0.009434
    74  H    0.017205
    75  H    0.034691
    76  H    0.021650
    77  H    0.194487
    78  H    0.028264
    79  H    0.033496
 Sum of Mulliken charges =  -0.00000

 Dipole moment (field-independent basis, Debye):
    X=              2.8565    Y=              4.3998    Z=             -2.2738  Tot=              5.7173
 Quadrupole moment (field-independent basis, Debye-Ang):
   XX=           -225.9432   YY=           -240.5191   ZZ=           -272.2168
   XY=              1.4424   XZ=            -27.7535   YZ=            -15.6715

 Normal termination of Gaussian 16 at Wed Jul 31 00:23:02 2019.
