 Gaussian 16, Revision A.03,
 Gaussian 16:  ES64L-G16RevA.03 25-Dec-2016

 --------------------------
 # td=(NStates=1) B3LYP/SVP
 --------------------------

 --
 TD
 --
 Symbolic Z-matrix:
 Charge =  0 Multiplicity = 1

                         Standard orientation:
 ---------------------------------------------------------------------
 Center     Atomic      Atomic             Coordinates (Angstroms)
 Number     Number       Type             X           Y           Z
 ---------------------------------------------------------------------
      1          8           0       -3.468140   -1.208660   -2.829674
      2          8           0        3.159351    3.021234    3.276421
      3          8           0        3.475220    1.273751    4.721912
      4          8           0        7.727666   -1.548452   -0.768846
      5          8           0        6.627194   -3.005577   -2.079893
      6          8           0       -2.673856    1.637803    1.396428
      7          7           0       -0.281872   -2.387661    0.832390
      8          7           0       -2.804147   -1.184928   -0.699008
      9          7           0        1.220024   -0.025311   -0.725301
     10          7           0       -1.051950    1.517125   -0.259176
     11          6           0       -3.363867   -1.361107    0.619476
     12          6           0       -2.705202   -2.468182    1.406011
     13          6           0       -1.211692   -2.155461    1.695682
     14          6           0       -0.556285   -1.263285    2.680248
     15          6           0        0.814440   -1.167679    2.355422
     16          6           0        0.970454   -1.883909    1.156617
     17          6           0       -4.763596   -1.859188    0.254129
     18          6           0        1.864367   -0.430113    3.099311
     19          6           0       -5.064370   -1.949717   -1.030676
     20          6           0        2.198586   -1.854894    0.324007
     21          6           0        2.178124   -0.885550   -0.723487
     22          6           0       -3.707229   -1.385163   -1.700266
     23          6           0        3.075487   -0.707087   -1.908474
     24          6           0       -1.284263   -0.545336    3.874687
     25          6           0       -5.695097   -2.067409    1.323705
     26          6           0        2.739889    0.497941   -2.445456
     27          6           0        1.884631    1.045754    2.823882
     28          6           0        1.489747    0.937496   -1.760446
     29          6           0        4.224606   -1.566795   -2.077802
     30          6           0       -6.122659   -2.289022   -1.949735
     31          6           0        5.368466   -1.161546   -1.172135
     32          6           0        3.180797    1.100652   -3.651876
     33          6           0        0.608749    2.114019   -1.934038
     34          6           0        2.946793    1.770186    3.697610
     35          6           0       -0.584637    2.199114   -1.342328
     36          6           0       -7.197469   -3.029880   -1.511110
     37          6           0        6.614827   -2.007285   -1.387073
     38          6           0       -1.354552    3.406732   -1.259776
     39          6           0       -2.191827    3.425432   -0.173263
     40          6           0       -1.977129    2.056646    0.459863
     41          6           0       -1.188409    4.501261   -2.247009
     42          6           0       -3.196314    4.417761    0.317210
     43          6           0       -1.715493    5.745378   -2.195259
     44          1           0       -3.471360   -0.382932    1.223269
     45          1           0       -2.670443   -3.570070    0.951487
     46          1           0       -3.026349   -2.649650    2.437339
     47          1           0       -0.549567   -2.825611   -0.165195
     48          1           0       -2.170171   -0.556673   -0.923871
     49          1           0        1.614868   -0.421247    4.188246
     50          1           0        3.022486   -0.844297    2.903862
     51          1           0        2.861465   -2.767992    0.170235
     52          1           0       -2.206864   -1.236085    3.959575
     53          1           0       -0.710374   -0.778613    4.904485
     54          1           0       -1.656907    0.329785    3.440284
     55          1           0       -5.494722   -1.264667    2.149953
     56          1           0       -5.546327   -2.971231    2.043266
     57          1           0       -6.739909   -1.827792    0.912703
     58          1           0        2.232524    1.403731    1.768602
     59          1           0        1.028351    1.654362    2.772010
     60          1           0        0.493034    0.297004    0.018741
     61          1           0        4.539065   -1.281047   -3.035496
     62          1           0        4.200903   -2.612368   -2.064197
     63          1           0       -5.990731   -1.837882   -2.997019
     64          1           0        4.919199   -1.584659   -0.205257
     65          1           0        5.570265   -0.063317   -1.092902
     66          1           0        3.775900    0.167489   -4.091640
     67          1           0        4.028087    2.021735   -3.736516
     68          1           0        2.384851    1.430479   -4.466636
     69          1           0        0.988412    2.910259   -2.750172
     70          1           0       -7.332244   -3.618801   -0.724653
     71          1           0       -7.965121   -3.132316   -2.358897
     72          1           0        3.835774    3.304232    4.204710
     73          1           0       -0.639719    4.184889   -3.294963
     74          1           0       -3.790937    5.003375   -0.392386
     75          1           0       -3.953050    4.035912    1.010117
     76          1           0       -2.572981    5.228911    0.769696
     77          1           0        8.501757   -2.162434   -0.994764
     78          1           0       -1.603920    6.238592   -3.005113
     79          1           0       -1.938327    6.304992   -1.007916
 ---------------------------------------------------------------------

 SCF Done:  E(RB3LYP) =  -1947.73106756     A.U. after   20 cycles

 Excitation energies and oscillator strengths:

 Excited State   1:      Singlet-A      0.6374 eV 1945.17 nm  f=0.0001  <S**2>=0.000
     155 ->156         0.70527
 This state for optimization and/or second-order correction.
 Total Energy, E(TD-HF/TD-DFT) =  -1947.70764371
 Copying the excited state density for this state as the 1-particle RhoCI density.

 The electronic state is 1-A.
 Alpha  occ. eigenvalues --  -19.20163 -19.19949 -19.14239 -19.12638 -19.10733
 Alpha  occ. eigenvalues --  -19.08876 -14.39267 -14.38082 -14.31824 -14.29443
 Alpha  occ. eigenvalues --  -10.33979 -10.32025 -10.28913 -10.26746 -10.26167
 Alpha  occ. eigenvalues --  -10.26100 -10.24675 -10.24469 -10.24350 -10.24293
 Alpha  occ. eigenvalues --  -10.23822 -10.23593 -10.23218 -10.22512 -10.21481
 Alpha  occ. eigenvalues --  -10.21209 -10.20894 -10.20697 -10.20487 -10.20448
 Alpha  occ. eigenvalues --  -10.20362 -10.20171 -10.19853 -10.19694 -10.19673
 Alpha  occ. eigenvalues --  -10.19483 -10.19136 -10.18966 -10.18422 -10.18236
 Alpha  occ. eigenvalues --  -10.17863 -10.17209 -10.16983  -1.10760  -1.08241
 Alpha  occ. eigenvalues --   -1.03795  -1.01763  -1.01676  -1.01278  -0.98278
 Alpha  occ. eigenvalues --   -0.97840  -0.94447  -0.92972  -0.86845  -0.83310
 Alpha  occ. eigenvalues --   -0.81362  -0.80683  -0.80441  -0.79941  -0.78157
 Alpha  occ. eigenvalues --   -0.76802  -0.75269  -0.74912  -0.74423  -0.73656
 Alpha  occ. eigenvalues --   -0.71017  -0.70393  -0.69543  -0.69057  -0.67276
 Alpha  occ. eigenvalues --   -0.66031  -0.65306  -0.63295  -0.61911  -0.60878
 Alpha  occ. eigenvalues --   -0.60004  -0.59704  -0.58806  -0.57738  -0.56389
 Alpha  occ. eigenvalues --   -0.56103  -0.55086  -0.54189  -0.53441  -0.52880
 Alpha  occ. eigenvalues --   -0.52549  -0.51705  -0.51332  -0.50315  -0.49549
 Alpha  occ. eigenvalues --   -0.49420  -0.49181  -0.48778  -0.48391  -0.47805
 Alpha  occ. eigenvalues --   -0.47233  -0.47143  -0.46947  -0.46447  -0.46042
 Alpha  occ. eigenvalues --   -0.45527  -0.45164  -0.44998  -0.44603  -0.44196
 Alpha  occ. eigenvalues --   -0.43394  -0.43367  -0.42848  -0.42569  -0.42135
 Alpha  occ. eigenvalues --   -0.42088  -0.41788  -0.41609  -0.41441  -0.41252
 Alpha  occ. eigenvalues --   -0.40995  -0.40508  -0.40305  -0.40093  -0.39721
 Alpha  occ. eigenvalues --   -0.39392  -0.38993  -0.38676  -0.38372  -0.38007
 Alpha  occ. eigenvalues --   -0.37709  -0.37374  -0.37138  -0.36635  -0.36095
 Alpha  occ. eigenvalues --   -0.35971  -0.35766  -0.35145  -0.34221  -0.34034
 Alpha  occ. eigenvalues --   -0.33921  -0.33400  -0.32382  -0.31781  -0.31342
 Alpha  occ. eigenvalues --   -0.30614  -0.30511  -0.30049  -0.29048  -0.27984
 Alpha  occ. eigenvalues --   -0.27698  -0.26646  -0.25269  -0.24085  -0.23940
 Alpha  occ. eigenvalues --   -0.23309  -0.23114  -0.22317  -0.22151  -0.18979
 Alpha virt. eigenvalues --   -0.13936  -0.07592  -0.03891  -0.02319  -0.01526
 Alpha virt. eigenvalues --   -0.00715   0.00132   0.01202   0.01901   0.02261
 Alpha virt. eigenvalues --    0.02303   0.03281   0.03585   0.03867   0.04069

 Mulliken charges:
               1
     1  O   -0.182540
     2  O   -0.250458
     3  O   -0.284950
     4  O   -0.203879
     5  O   -0.231243
     6  O   -0.245269
     7  N   -0.032737
     8  N   -0.128944
     9  N   -0.068188
    10  N   -0.265414
    11  C    0.160071
    12  C    0.130821
    13  C   -0.148370
    14  C   -0.206201
    15  C   -0.064536
    16  C   -0.052107
    17  C   -0.209977
    18  C    0.125550
    19  C   -0.025545
    20  C   -0.077678
    21  C    0.005170
    22  C    0.056592
    23  C   -0.052305
    24  C    0.104457
    25  C    0.019237
    26  C   -0.027682
    27  C   -0.030962
    28  C    0.071528
    29  C    0.185911
    30  C   -0.030350
    31  C   -0.040278
    32  C   -0.100976
    33  C   -0.111535
    34  C    0.165095
    35  C    0.183073
    36  C    0.001934
    37  C    0.145248
    38  C   -0.008667
    39  C   -0.178861
    40  C    0.127551
    41  C   -0.083193
    42  C    0.085153
    43  C    0.005891
    44  H    0.080670
    45  H    0.009650
    46  H    0.005417
    47  H    0.156258
    48  H    0.064591
    49  H    0.019030
    50  H    0.031677
    51  H    0.030272
    52  H   -0.017294
    53  H    0.045904
    54  H    0.030884
    55  H    0.010973
    56  H    0.040022
    57  H    0.043346
    58  H    0.013236
    59  H    0.027908
    60  H    0.220339
    61  H   -0.030640
    62  H    0.016809
    63  H    0.042027
    64  H    0.053852
    65  H    0.051512
    66  H    0.045786
    67  H    0.068700
    68  H    0.070091
    69  H    0.045703
    70  H   -0.007048
    71  H    0.024368
    72  H    0.245827
    73  H    0.020432
    74  H    0.021381
    75  H    0.028026
    76  H    0.028653
    77  H    0.210673
    78  H   -0.039135
    79  H    0.059664
 Sum of Mulliken charges =  -0.00000

 Dipole moment (field-independent basis, Debye):
    X=              5.4945    Y=              1.5006    Z=             -2.2294  Tot=              6.1165
 Quadrupole moment (field-independent basis, Debye-Ang):
   XX=           -234.5564   YY=           -242.0342   ZZ=           -268.0940
   XY=              7.6365   XZ=            -21.8727   YZ=             -9.0682

 Normal termination of Gaussian 16 at Tue Jul 30 23:55:56 2019.
