 Gaussian 16, Revision A.03,
 Gaussian 16:  ES64L-G16RevA.03 25-Dec-2016

 --------------------------
 # td=(NStates=1) B3LYP/SVP
 --------------------------

 --
 TD
 --
 Symbolic Z-matrix:
 Charge =  0 Multiplicity = 1

                         Standard orientation:
 ---------------------------------------------------------------------
 Center     Atomic      Atomic             Coordinates (Angstroms)
 Number     Number       Type             X           Y           Z
 ---------------------------------------------------------------------
      1          8           0       -3.158179   -1.450511   -2.892983
      2          8           0        2.998771    3.144893    2.990095
      3          8           0        3.402363    1.608320    4.552968
      4          8           0        7.823568   -1.514167   -0.796966
      5          8           0        6.673212   -2.937525   -1.999354
      6          8           0       -2.574830    1.630459    1.469435
      7          7           0       -0.298266   -2.474023    1.001347
      8          7           0       -2.624183   -1.191634   -0.626233
      9          7           0        1.214218    0.089607   -0.661978
     10          7           0       -1.076282    1.403111   -0.153903
     11          6           0       -3.400853   -1.381262    0.658680
     12          6           0       -2.624788   -2.424388    1.661218
     13          6           0       -1.209578   -2.100119    1.790602
     14          6           0       -0.508539   -1.233085    2.805449
     15          6           0        0.773915   -1.229796    2.510707
     16          6           0        0.915222   -1.930271    1.339004
     17          6           0       -4.806832   -1.914437    0.231117
     18          6           0        1.914569   -0.311067    3.144286
     19          6           0       -4.758303   -1.956656   -1.141018
     20          6           0        2.008160   -1.894083    0.361979
     21          6           0        2.131152   -0.931189   -0.559826
     22          6           0       -3.488324   -1.559937   -1.733599
     23          6           0        3.041888   -0.722512   -1.686252
     24          6           0       -1.330589   -0.382410    3.821259
     25          6           0       -5.823187   -2.117529    1.306899
     26          6           0        2.663557    0.335691   -2.340088
     27          6           0        1.917406    1.086437    2.654669
     28          6           0        1.447179    0.900759   -1.657972
     29          6           0        4.247380   -1.608528   -1.876200
     30          6           0       -5.865704   -2.441762   -2.046208
     31          6           0        5.447688   -1.038206   -1.147459
     32          6           0        3.139965    0.875484   -3.664950
     33          6           0        0.585312    2.049183   -1.978778
     34          6           0        2.834152    1.945347    3.548490
     35          6           0       -0.521878    2.279656   -1.159089
     36          6           0       -6.984640   -3.129322   -1.739946
     37          6           0        6.660740   -1.924521   -1.416519
     38          6           0       -1.351618    3.457391   -1.352664
     39          6           0       -2.242316    3.438027   -0.295623
     40          6           0       -2.080548    2.092462    0.443406
     41          6           0       -1.221687    4.598860   -2.324573
     42          6           0       -3.386543    4.263355    0.232492
     43          6           0       -1.927166    5.704459   -2.504094
     44          1           0       -3.688727   -0.375257    1.301319
     45          1           0       -2.441842   -3.524111    1.473612
     46          1           0       -3.113023   -2.246116    2.722344
     47          1           0       -0.470173   -2.781004    0.146563
     48          1           0       -1.906436   -0.403226   -0.873199
     49          1           0        1.707406   -0.323145    4.204623
     50          1           0        2.860151   -0.725409    2.940465
     51          1           0        2.598797   -2.705536    0.413545
     52          1           0       -2.212637   -0.937177    4.398481
     53          1           0       -0.659384    0.025673    4.676057
     54          1           0       -1.728079    0.562596    3.096491
     55          1           0       -5.602004   -1.421620    2.139344
     56          1           0       -5.863547   -2.987777    1.525475
     57          1           0       -6.732707   -1.968170    0.977372
     58          1           0        2.203452    1.286291    1.580103
     59          1           0        1.046975    1.582016    2.736572
     60          1           0        0.355027    0.363046    0.005488
     61          1           0        4.474901   -1.768993   -2.876410
     62          1           0        4.011429   -2.553786   -1.483859
     63          1           0       -5.551662   -2.150246   -3.079799
     64          1           0        5.298034   -0.898647    0.002171
     65          1           0        5.708926   -0.072212   -1.685040
     66          1           0        3.839035    0.177738   -4.064457
     67          1           0        3.417876    2.009570   -3.656673
     68          1           0        2.374558    0.934428   -4.487845
     69          1           0        0.624197    2.761330   -2.801434
     70          1           0       -7.329540   -3.654004   -0.790652
     71          1           0       -7.864049   -3.256159   -2.460833
     72          1           0        3.502186    3.544132    3.640600
     73          1           0       -0.465978    4.166135   -2.979873
     74          1           0       -4.378616    4.346951   -0.480453
     75          1           0       -4.009301    3.783113    1.107296
     76          1           0       -2.991080    5.367475    0.421671
     77          1           0        8.538425   -2.143771   -1.273875
     78          1           0       -1.733062    6.513899   -3.397917
     79          1           0       -2.818316    6.054605   -1.929870
 ---------------------------------------------------------------------

 SCF Done:  E(RB3LYP) =  -1947.79518429     A.U. after   20 cycles

 Excitation energies and oscillator strengths:

 Excited State   1:      Singlet-A      0.7578 eV 1636.04 nm  f=0.0066  <S**2>=0.000
     155 ->156         0.70361
 This state for optimization and/or second-order correction.
 Total Energy, E(TD-HF/TD-DFT) =  -1947.76733443
 Copying the excited state density for this state as the 1-particle RhoCI density.

 The electronic state is 1-A.
 Alpha  occ. eigenvalues --  -19.18516 -19.18063 -19.14337 -19.12665 -19.11023
 Alpha  occ. eigenvalues --  -19.09223 -14.38711 -14.36500 -14.32606 -14.30446
 Alpha  occ. eigenvalues --  -10.32894 -10.31465 -10.27961 -10.27171 -10.26842
 Alpha  occ. eigenvalues --  -10.25624 -10.25313 -10.24165 -10.23722 -10.22626
 Alpha  occ. eigenvalues --  -10.22381 -10.22190 -10.22054 -10.21963 -10.21878
 Alpha  occ. eigenvalues --  -10.21863 -10.21782 -10.21765 -10.21628 -10.21206
 Alpha  occ. eigenvalues --  -10.21186 -10.20592 -10.19422 -10.19408 -10.19242
 Alpha  occ. eigenvalues --  -10.19227 -10.19037 -10.19004 -10.18816 -10.18433
 Alpha  occ. eigenvalues --  -10.17226 -10.16435 -10.16000  -1.11787  -1.11238
 Alpha  occ. eigenvalues --   -1.02236  -1.01918  -1.01391  -1.01156  -1.01013
 Alpha  occ. eigenvalues --   -1.00401  -0.91688  -0.88978  -0.85435  -0.83153
 Alpha  occ. eigenvalues --   -0.81087  -0.80837  -0.79980  -0.79948  -0.78306
 Alpha  occ. eigenvalues --   -0.77432  -0.76464  -0.75418  -0.75092  -0.73273
 Alpha  occ. eigenvalues --   -0.70845  -0.70622  -0.69433  -0.68710  -0.67594
 Alpha  occ. eigenvalues --   -0.66540  -0.65698  -0.63233  -0.61195  -0.60583
 Alpha  occ. eigenvalues --   -0.59694  -0.58716  -0.58365  -0.57786  -0.57365
 Alpha  occ. eigenvalues --   -0.56920  -0.55931  -0.55453  -0.53443  -0.52779
 Alpha  occ. eigenvalues --   -0.51898  -0.51115  -0.51067  -0.50537  -0.49581
 Alpha  occ. eigenvalues --   -0.49309  -0.49097  -0.48815  -0.48526  -0.48439
 Alpha  occ. eigenvalues --   -0.48051  -0.47200  -0.47042  -0.46182  -0.46101
 Alpha  occ. eigenvalues --   -0.45854  -0.45143  -0.44809  -0.44402  -0.44266
 Alpha  occ. eigenvalues --   -0.43964  -0.43490  -0.42834  -0.42699  -0.42293
 Alpha  occ. eigenvalues --   -0.42164  -0.42022  -0.41651  -0.41586  -0.41397
 Alpha  occ. eigenvalues --   -0.41176  -0.40756  -0.40423  -0.40336  -0.39880
 Alpha  occ. eigenvalues --   -0.39544  -0.39208  -0.38809  -0.38518  -0.38146
 Alpha  occ. eigenvalues --   -0.37554  -0.37385  -0.36975  -0.36897  -0.36711
 Alpha  occ. eigenvalues --   -0.35928  -0.35783  -0.34885  -0.34670  -0.33673
 Alpha  occ. eigenvalues --   -0.33588  -0.33328  -0.32775  -0.32279  -0.31977
 Alpha  occ. eigenvalues --   -0.30339  -0.29985  -0.29515  -0.29150  -0.28705
 Alpha  occ. eigenvalues --   -0.28571  -0.28107  -0.25349  -0.25002  -0.24675
 Alpha  occ. eigenvalues --   -0.23907  -0.23850  -0.22606  -0.22508  -0.17486
 Alpha virt. eigenvalues --   -0.12251  -0.07291  -0.04489  -0.01903  -0.00634
 Alpha virt. eigenvalues --    0.01211   0.01757   0.02283   0.02955   0.03121
 Alpha virt. eigenvalues --    0.03450   0.04676   0.04913   0.05117   0.05497

 Mulliken charges:
               1
     1  O   -0.219559
     2  O   -0.120868
     3  O   -0.221532
     4  O   -0.257832
     5  O   -0.185068
     6  O   -0.223767
     7  N    0.135588
     8  N   -0.318540
     9  N   -0.082548
    10  N   -0.350950
    11  C    0.035717
    12  C    0.134149
    13  C   -0.176180
    14  C   -0.123201
    15  C   -0.075121
    16  C   -0.114692
    17  C   -0.185685
    18  C    0.190224
    19  C   -0.115260
    20  C   -0.108831
    21  C    0.181637
    22  C    0.169922
    23  C   -0.080659
    24  C   -0.059318
    25  C    0.354706
    26  C   -0.119823
    27  C    0.036898
    28  C    0.099511
    29  C    0.199308
    30  C    0.051060
    31  C   -0.032013
    32  C    0.081281
    33  C   -0.101064
    34  C    0.089783
    35  C    0.111495
    36  C   -0.100105
    37  C    0.126124
    38  C   -0.022678
    39  C   -0.160236
    40  C    0.165452
    41  C    0.099319
    42  C   -0.041500
    43  C   -0.093519
    44  H    0.091126
    45  H    0.011182
    46  H    0.010661
    47  H    0.053209
    48  H    0.176114
    49  H    0.008333
    50  H   -0.025159
    51  H   -0.036147
    52  H    0.024242
    53  H    0.007268
    54  H    0.102726
    55  H    0.022397
    56  H   -0.073416
    57  H   -0.037787
    58  H    0.030101
    59  H   -0.005008
    60  H    0.237110
    61  H   -0.009035
    62  H   -0.007502
    63  H    0.016921
    64  H    0.075543
    65  H    0.048139
    66  H    0.007499
    67  H    0.041829
    68  H    0.034628
    69  H   -0.012988
    70  H    0.022784
    71  H    0.030766
    72  H    0.131921
    73  H   -0.023852
    74  H    0.051390
    75  H    0.057573
    76  H    0.057505
    77  H    0.218056
    78  H    0.053881
    79  H    0.036371
 Sum of Mulliken charges =  -0.00000

 Dipole moment (field-independent basis, Debye):
    X=              2.9418    Y=              2.4620    Z=             -2.2469  Tot=              4.4457
 Quadrupole moment (field-independent basis, Debye-Ang):
   XX=           -231.5870   YY=           -238.3875   ZZ=           -269.8274
   XY=              1.5150   XZ=            -27.9154   YZ=            -13.6404

 Normal termination of Gaussian 16 at Sun Jul 28 12:07:05 2019.
