 Gaussian 16, Revision A.03,
 Gaussian 16:  ES64L-G16RevA.03 25-Dec-2016

 --------------------------
 # td=(NStates=1) B3LYP/SVP
 --------------------------

 --
 TD
 --
 Symbolic Z-matrix:
 Charge =  0 Multiplicity = 1

                         Standard orientation:
 ---------------------------------------------------------------------
 Center     Atomic      Atomic             Coordinates (Angstroms)
 Number     Number       Type             X           Y           Z
 ---------------------------------------------------------------------
      1          8           0        5.365592   -0.185256   -3.319000
      2          8           0       -3.174448   -2.800030    3.145907
      3          8           0       -3.400998   -0.573594    3.113654
      4          8           0       -1.591288    7.241152    1.382236
      5          8           0       -0.459009    7.045937   -0.586968
      6          8           0       -1.737506   -3.996274   -0.047835
      7          7           0        2.410335    0.846238    0.680004
      8          7           0        4.261876   -0.702340   -1.219163
      9          7           0       -1.870862    0.684052   -0.280312
     10          7           0       -2.567533   -1.986150   -0.432986
     11          6           0        4.658702   -1.361497    0.033393
     12          6           0        4.347019   -0.470244    1.250150
     13          6           0        2.902205   -0.125351    1.331695
     14          6           0        1.869663   -0.773410    2.108366
     15          6           0        0.616263   -0.033751    1.928592
     16          6           0        0.920486    0.904729    0.887959
     17          6           0        6.259323   -1.330174   -0.155988
     18          6           0       -0.652600   -0.248081    2.597153
     19          6           0        6.601038   -0.937905   -1.366235
     20          6           0        0.159482    1.962191    0.291399
     21          6           0       -1.099070    1.795070   -0.399781
     22          6           0        5.344079   -0.428250   -2.106391
     23          6           0       -1.886979    2.833753   -0.905168
     24          6           0        2.136132   -1.801910    3.114538
     25          6           0        7.156215   -1.931611    0.920913
     26          6           0       -3.106015    2.375564   -1.212670
     27          6           0       -1.214381   -1.653197    2.687434
     28          6           0       -2.937893    0.931527   -0.975952
     29          6           0       -1.409065    4.310539   -0.994063
     30          6           0        7.929250   -0.546003   -1.999580
     31          6           0       -1.771825    5.133338    0.291278
     32          6           0       -4.302837    3.049685   -1.690906
     33          6           0       -3.797714   -0.158995   -1.265287
     34          6           0       -2.698203   -1.508187    2.970330
     35          6           0       -3.616214   -1.518445   -1.131503
     36          6           0        9.095754   -0.581603   -1.385363
     37          6           0       -1.251075    6.625654    0.258822
     38          6           0       -4.478730   -2.630963   -1.639277
     39          6           0       -3.834513   -3.719244   -1.121031
     40          6           0       -2.570251   -3.282670   -0.419086
     41          6           0       -5.735145   -2.397832   -2.387288
     42          6           0       -4.249213   -5.237165   -1.196101
     43          6           0       -6.656820   -3.346936   -2.534590
     44          1           0        4.335081   -2.375091    0.082955
     45          1           0        4.872165    0.456551    1.023578
     46          1           0        4.726630   -0.942533    2.217651
     47          1           0        3.026112    1.213468    0.066453
     48          1           0        3.399262   -1.013029   -1.662723
     49          1           0       -0.628415    0.161205    3.521248
     50          1           0       -1.397747    0.459866    2.077620
     51          1           0        0.746425    2.787902   -0.332504
     52          1           0        3.235738   -1.997050    3.304030
     53          1           0        1.895829   -1.480090    4.141606
     54          1           0        1.605901   -2.727940    2.766749
     55          1           0        6.675971   -2.646621    1.621689
     56          1           0        7.616583   -1.213399    1.731880
     57          1           0        8.085173   -2.379737    0.395180
     58          1           0       -1.079973   -2.349117    1.812365
     59          1           0       -1.012003   -2.225134    3.420369
     60          1           0       -1.661432   -0.376546   -0.232283
     61          1           0       -1.991183    4.655923   -1.927699
     62          1           0       -0.387125    4.607285   -1.100911
     63          1           0        7.783910   -0.417505   -3.057493
     64          1           0       -1.341803    4.702105    1.255093
     65          1           0       -2.869956    5.221053    0.530133
     66          1           0       -4.282172    4.259449   -1.407567
     67          1           0       -5.255402    2.723922   -1.237125
     68          1           0       -4.526596    3.113082   -2.887741
     69          1           0       -4.634504    0.149668   -1.952338
     70          1           0        9.034653   -0.622090   -0.329025
     71          1           0       10.078796   -0.399452   -1.891443
     72          1           0       -4.117077   -2.867372    3.440148
     73          1           0       -5.769610   -1.377620   -2.716730
     74          1           0       -5.056484   -5.603491   -0.611800
     75          1           0       -4.598220   -5.545984   -2.200328
     76          1           0       -3.110984   -5.655742   -1.133130
     77          1           0       -1.242959    8.136996    1.284015
     78          1           0       -7.567915   -3.145394   -3.291606
     79          1           0       -6.604529   -4.427357   -2.171648
 ---------------------------------------------------------------------

 SCF Done:  E(RB3LYP) =  -1947.87154322     A.U. after   22 cycles

 Excitation energies and oscillator strengths:

 Excited State   1:      Singlet-A      2.1253 eV  583.37 nm  f=0.5057  <S**2>=0.000
     154 ->156         0.11528
     155 ->156         0.69894
     155 <-156        -0.12805
 This state for optimization and/or second-order correction.
 Total Energy, E(TD-HF/TD-DFT) =  -1947.79343991
 Copying the excited state density for this state as the 1-particle RhoCI density.

 The electronic state is 1-A.
 Alpha  occ. eigenvalues --  -19.20287 -19.15098 -19.13576 -19.12375 -19.11820
 Alpha  occ. eigenvalues --  -19.08288 -14.38471 -14.36905 -14.36150 -14.26886
 Alpha  occ. eigenvalues --  -10.33205 -10.30516 -10.30299 -10.26256 -10.24344
 Alpha  occ. eigenvalues --  -10.23983 -10.23770 -10.23536 -10.23483 -10.22946
 Alpha  occ. eigenvalues --  -10.22944 -10.22928 -10.22739 -10.22293 -10.22128
 Alpha  occ. eigenvalues --  -10.22090 -10.21448 -10.20932 -10.20790 -10.20764
 Alpha  occ. eigenvalues --  -10.20552 -10.20404 -10.19940 -10.19737 -10.19713
 Alpha  occ. eigenvalues --  -10.19613 -10.19104 -10.18805 -10.18586 -10.18337
 Alpha  occ. eigenvalues --  -10.18323 -10.17985 -10.17887  -1.11646  -1.07533
 Alpha  occ. eigenvalues --   -1.03421  -1.02789  -1.01216  -1.01123  -1.00338
 Alpha  occ. eigenvalues --   -0.98917  -0.94416  -0.92483  -0.83233  -0.83150
 Alpha  occ. eigenvalues --   -0.82462  -0.80823  -0.79556  -0.79081  -0.78031
 Alpha  occ. eigenvalues --   -0.77321  -0.76832  -0.75458  -0.73453  -0.72701
 Alpha  occ. eigenvalues --   -0.71477  -0.71250  -0.69181  -0.68773  -0.68501
 Alpha  occ. eigenvalues --   -0.67723  -0.65989  -0.63276  -0.60998  -0.60837
 Alpha  occ. eigenvalues --   -0.60005  -0.59078  -0.58848  -0.57901  -0.57258
 Alpha  occ. eigenvalues --   -0.56352  -0.56049  -0.55204  -0.53896  -0.52963
 Alpha  occ. eigenvalues --   -0.52811  -0.52042  -0.50835  -0.49703  -0.49493
 Alpha  occ. eigenvalues --   -0.49388  -0.48867  -0.48744  -0.48175  -0.47994
 Alpha  occ. eigenvalues --   -0.47310  -0.46855  -0.46407  -0.46080  -0.45636
 Alpha  occ. eigenvalues --   -0.45305  -0.44893  -0.44430  -0.43839  -0.43813
 Alpha  occ. eigenvalues --   -0.43459  -0.43155  -0.42804  -0.42526  -0.42360
 Alpha  occ. eigenvalues --   -0.42204  -0.41854  -0.41657  -0.41414  -0.41218
 Alpha  occ. eigenvalues --   -0.40821  -0.40695  -0.40482  -0.40189  -0.39736
 Alpha  occ. eigenvalues --   -0.39564  -0.39499  -0.39263  -0.38640  -0.38384
 Alpha  occ. eigenvalues --   -0.38135  -0.37694  -0.37450  -0.37028  -0.36237
 Alpha  occ. eigenvalues --   -0.35726  -0.35300  -0.34824  -0.34494  -0.34460
 Alpha  occ. eigenvalues --   -0.33960  -0.33401  -0.33060  -0.32191  -0.31899
 Alpha  occ. eigenvalues --   -0.30825  -0.30766  -0.28840  -0.28795  -0.28530
 Alpha  occ. eigenvalues --   -0.27156  -0.26934  -0.26680  -0.26333  -0.25830
 Alpha  occ. eigenvalues --   -0.25018  -0.23154  -0.22862  -0.21534  -0.18388
 Alpha virt. eigenvalues --   -0.10326  -0.05987  -0.05467  -0.00925  -0.00680
 Alpha virt. eigenvalues --   -0.00193   0.01048   0.02614   0.02867   0.03136
 Alpha virt. eigenvalues --    0.03813   0.04526   0.04964   0.05225   0.05584

 Mulliken charges:
               1
     1  O   -0.229148
     2  O   -0.249927
     3  O   -0.183618
     4  O   -0.141536
     5  O   -0.249632
     6  O   -0.161519
     7  N    0.031665
     8  N   -0.236534
     9  N   -0.019896
    10  N   -0.238661
    11  C    0.074401
    12  C    0.209384
    13  C   -0.146893
    14  C   -0.167237
    15  C   -0.040706
    16  C    0.039280
    17  C   -0.171835
    18  C    0.142689
    19  C   -0.055494
    20  C   -0.060269
    21  C    0.008653
    22  C    0.184842
    23  C   -0.047004
    24  C    0.060588
    25  C    0.004160
    26  C   -0.054285
    27  C    0.089960
    28  C    0.006091
    29  C    0.101063
    30  C    0.023167
    31  C   -0.061269
    32  C   -0.030126
    33  C   -0.094616
    34  C    0.111235
    35  C    0.053832
    36  C   -0.001334
    37  C    0.139387
    38  C    0.047073
    39  C   -0.250279
    40  C    0.078709
    41  C    0.052627
    42  C    0.035777
    43  C   -0.070877
    44  H    0.029293
    45  H   -0.014418
    46  H    0.029523
    47  H    0.072659
    48  H    0.140007
    49  H   -0.025371
    50  H    0.033449
    51  H    0.026432
    52  H   -0.011666
    53  H    0.019686
    54  H    0.051850
    55  H    0.022541
    56  H    0.046150
    57  H    0.057516
    58  H    0.076299
    59  H   -0.051696
    60  H    0.174966
    61  H    0.030668
    62  H    0.016230
    63  H    0.006972
    64  H    0.057394
    65  H    0.036119
    66  H    0.031828
    67  H    0.039242
    68  H    0.054604
    69  H   -0.029191
    70  H    0.005071
    71  H    0.041637
    72  H    0.183338
    73  H   -0.022653
    74  H    0.028116
    75  H    0.007479
    76  H    0.054870
    77  H    0.176671
    78  H    0.034504
    79  H    0.037995
 Sum of Mulliken charges =  -0.00000

 Dipole moment (field-independent basis, Debye):
    X=              2.6254    Y=              3.0170    Z=              3.8060  Tot=              5.5209
 Quadrupole moment (field-independent basis, Debye-Ang):
   XX=           -221.0528   YY=           -248.1415   ZZ=           -259.0590
   XY=            -16.1334   XZ=             28.5349   YZ=              2.9763

 Normal termination of Gaussian 16 at Sat Sep 28 06:41:22 2019.
