 Gaussian 16, Revision A.03,
 Gaussian 16:  ES64L-G16RevA.03 25-Dec-2016

 --------------------------
 # td=(NStates=1) B3LYP/SVP
 --------------------------

 --
 TD
 --
 Symbolic Z-matrix:
 Charge =  0 Multiplicity = 1

                         Standard orientation:
 ---------------------------------------------------------------------
 Center     Atomic      Atomic             Coordinates (Angstroms)
 Number     Number       Type             X           Y           Z
 ---------------------------------------------------------------------
      1          8           0        5.387028    0.039389   -3.219000
      2          8           0       -2.991813   -3.021255    3.586420
      3          8           0       -3.470862   -0.856296    2.810554
      4          8           0       -1.815586    7.126541    1.530074
      5          8           0       -1.184508    7.121898   -0.598475
      6          8           0       -1.529227   -3.907982    0.108987
      7          7           0        2.382210    0.972252    0.741253
      8          7           0        4.427132   -0.499369   -1.215658
      9          7           0       -1.805921    0.690357   -0.367081
     10          7           0       -2.482814   -1.906869   -0.535314
     11          6           0        4.838516   -1.060365    0.042395
     12          6           0        4.344378   -0.168448    1.174332
     13          6           0        2.999546    0.006926    1.442245
     14          6           0        1.913713   -0.568311    2.089589
     15          6           0        0.621790   -0.012155    1.789355
     16          6           0        0.969000    1.081880    0.867104
     17          6           0        6.334705   -1.157386   -0.148427
     18          6           0       -0.648067   -0.201483    2.555598
     19          6           0        6.720107   -0.751100   -1.370516
     20          6           0        0.160581    2.016021    0.140225
     21          6           0       -1.119223    1.853018   -0.400296
     22          6           0        5.461471   -0.258989   -2.092686
     23          6           0       -2.023166    2.899800   -1.005216
     24          6           0        2.094257   -1.680390    3.037440
     25          6           0        7.201486   -1.714379    1.031273
     26          6           0       -3.176285    2.268878   -1.353232
     27          6           0       -1.166052   -1.646411    2.767886
     28          6           0       -2.993294    0.835271   -1.139678
     29          6           0       -1.740423    4.312491   -0.890123
     30          6           0        7.999512   -0.786763   -2.027978
     31          6           0       -1.774374    4.954971    0.535095
     32          6           0       -4.391766    2.971885   -2.118415
     33          6           0       -3.922173   -0.133673   -1.421941
     34          6           0       -2.603770   -1.771019    3.012100
     35          6           0       -3.614717   -1.548461   -1.073003
     36          6           0        9.219634   -0.797374   -1.607881
     37          6           0       -1.638535    6.496918    0.418992
     38          6           0       -4.481921   -2.679826   -1.472933
     39          6           0       -3.734860   -3.886546   -1.057671
     40          6           0       -2.480761   -3.314841   -0.375502
     41          6           0       -5.765016   -2.639368   -2.283951
     42          6           0       -3.974959   -5.385275   -1.186252
     43          6           0       -6.557436   -3.691636   -2.637563
     44          1           0        4.145387   -2.076202    0.242021
     45          1           0        4.769838    0.891452    0.993146
     46          1           0        4.742448   -0.511577    2.096615
     47          1           0        2.886179    1.521498   -0.061082
     48          1           0        3.330600   -0.402845   -1.462171
     49          1           0       -0.442443    0.453438    3.549082
     50          1           0       -1.502085    0.493372    2.273274
     51          1           0        0.490422    3.011391   -0.177294
     52          1           0        3.094008   -2.009421    3.273135
     53          1           0        1.846501   -1.277327    4.133692
     54          1           0        1.856926   -2.680022    2.777346
     55          1           0        6.586349   -2.294275    1.691662
     56          1           0        7.470293   -0.780646    1.637305
     57          1           0        8.234802   -2.409036    0.774952
     58          1           0       -1.107746   -2.221892    1.867277
     59          1           0       -0.569322   -2.226229    3.411696
     60          1           0       -1.581642   -0.411508   -0.270862
     61          1           0       -2.367677    4.827332   -1.622101
     62          1           0       -0.708408    4.563074   -1.430356
     63          1           0        7.901974   -0.745759   -3.239786
     64          1           0       -0.914515    4.559362    1.112617
     65          1           0       -2.745694    4.749964    1.132091
     66          1           0       -4.194351    3.982001   -2.180911
     67          1           0       -5.339026    2.392963   -1.624046
     68          1           0       -4.612867    2.428139   -3.007397
     69          1           0       -4.882315    0.067306   -1.736065
     70          1           0        9.255963   -0.406826   -0.444171
     71          1           0        9.993246   -0.940820   -2.377573
     72          1           0       -3.987918   -2.975947    3.431698
     73          1           0       -6.067681   -1.602801   -2.447631
     74          1           0       -4.707508   -5.794433   -0.548721
     75          1           0       -4.224455   -5.917648   -2.235117
     76          1           0       -2.945415   -5.858120   -0.766176
     77          1           0       -1.517022    8.042434    1.437054
     78          1           0       -7.228179   -3.666831   -3.339929
     79          1           0       -6.194554   -4.649702   -2.416348
 ---------------------------------------------------------------------

 SCF Done:  E(RB3LYP) =  -1947.81701212     A.U. after   16 cycles

 Excitation energies and oscillator strengths:

 Excited State   1:      Singlet-A      1.8382 eV  674.48 nm  f=0.3794  <S**2>=0.000
     155 ->156         0.70360
     155 <-156        -0.12138
 This state for optimization and/or second-order correction.
 Total Energy, E(TD-HF/TD-DFT) =  -1947.74945878
 Copying the excited state density for this state as the 1-particle RhoCI density.

 The electronic state is 1-A.
 Alpha  occ. eigenvalues --  -19.20342 -19.17085 -19.12302 -19.11877 -19.11852
 Alpha  occ. eigenvalues --  -19.10403 -14.38537 -14.35864 -14.35841 -14.30168
 Alpha  occ. eigenvalues --  -10.33226 -10.31683 -10.28557 -10.28007 -10.26231
 Alpha  occ. eigenvalues --  -10.24361 -10.24350 -10.23970 -10.23740 -10.23147
 Alpha  occ. eigenvalues --  -10.22619 -10.22612 -10.22279 -10.22083 -10.22020
 Alpha  occ. eigenvalues --  -10.21602 -10.21407 -10.21385 -10.21328 -10.21163
 Alpha  occ. eigenvalues --  -10.20969 -10.20893 -10.20758 -10.20712 -10.20429
 Alpha  occ. eigenvalues --  -10.20209 -10.20148 -10.20100 -10.19381 -10.19075
 Alpha  occ. eigenvalues --  -10.18930 -10.18786 -10.18621  -1.12515  -1.05172
 Alpha  occ. eigenvalues --   -1.04995  -1.02467  -0.98440  -0.98070  -0.96855
 Alpha  occ. eigenvalues --   -0.96491  -0.94692  -0.92783  -0.82407  -0.82358
 Alpha  occ. eigenvalues --   -0.81879  -0.80605  -0.80081  -0.79393  -0.77333
 Alpha  occ. eigenvalues --   -0.77076  -0.76796  -0.75724  -0.74678  -0.72583
 Alpha  occ. eigenvalues --   -0.71449  -0.70828  -0.69894  -0.68897  -0.68656
 Alpha  occ. eigenvalues --   -0.67150  -0.65974  -0.64316  -0.62498  -0.61123
 Alpha  occ. eigenvalues --   -0.60926  -0.59582  -0.57330  -0.57198  -0.56383
 Alpha  occ. eigenvalues --   -0.55573  -0.55109  -0.55013  -0.53236  -0.53059
 Alpha  occ. eigenvalues --   -0.52309  -0.50888  -0.50324  -0.50090  -0.49304
 Alpha  occ. eigenvalues --   -0.49174  -0.48918  -0.48555  -0.48238  -0.48018
 Alpha  occ. eigenvalues --   -0.47559  -0.46738  -0.46415  -0.46151  -0.46060
 Alpha  occ. eigenvalues --   -0.45639  -0.44499  -0.44127  -0.44004  -0.43546
 Alpha  occ. eigenvalues --   -0.43464  -0.43377  -0.43019  -0.42818  -0.42609
 Alpha  occ. eigenvalues --   -0.42416  -0.42109  -0.41767  -0.41364  -0.41286
 Alpha  occ. eigenvalues --   -0.40810  -0.40490  -0.40225  -0.39831  -0.39632
 Alpha  occ. eigenvalues --   -0.39564  -0.39243  -0.39121  -0.38430  -0.38273
 Alpha  occ. eigenvalues --   -0.38193  -0.37944  -0.37633  -0.37346  -0.36843
 Alpha  occ. eigenvalues --   -0.36291  -0.35747  -0.34902  -0.34331  -0.33992
 Alpha  occ. eigenvalues --   -0.33861  -0.33581  -0.32159  -0.32058  -0.31785
 Alpha  occ. eigenvalues --   -0.30799  -0.30181  -0.29009  -0.28590  -0.27905
 Alpha  occ. eigenvalues --   -0.26778  -0.26488  -0.25997  -0.25605  -0.25206
 Alpha  occ. eigenvalues --   -0.24851  -0.24156  -0.23824  -0.22483  -0.18668
 Alpha virt. eigenvalues --   -0.11547  -0.06896  -0.05614  -0.01680  -0.01547
 Alpha virt. eigenvalues --   -0.00277   0.00852   0.01494   0.02388   0.02872
 Alpha virt. eigenvalues --    0.03657   0.03803   0.04077   0.04458   0.04807

 Mulliken charges:
               1
     1  O   -0.156963
     2  O   -0.250018
     3  O   -0.286210
     4  O   -0.109804
     5  O   -0.305353
     6  O   -0.198792
     7  N   -0.126442
     8  N   -0.265077
     9  N   -0.134709
    10  N   -0.276811
    11  C    0.072015
    12  C    0.161472
    13  C   -0.011914
    14  C   -0.170933
    15  C   -0.043267
    16  C    0.080302
    17  C   -0.133965
    18  C    0.015654
    19  C   -0.047268
    20  C   -0.061573
    21  C    0.019319
    22  C    0.142330
    23  C   -0.055504
    24  C    0.071064
    25  C    0.022606
    26  C   -0.151509
    27  C    0.126170
    28  C    0.166420
    29  C    0.029518
    30  C   -0.062305
    31  C    0.015789
    32  C    0.152436
    33  C   -0.089720
    34  C    0.148638
    35  C    0.075880
    36  C   -0.053191
    37  C    0.124461
    38  C   -0.024931
    39  C   -0.173010
    40  C    0.167695
    41  C   -0.013252
    42  C    0.004113
    43  C    0.088353
    44  H    0.044960
    45  H    0.001416
    46  H   -0.016823
    47  H    0.135963
    48  H    0.170211
    49  H    0.029507
    50  H    0.034166
    51  H   -0.026343
    52  H   -0.042040
    53  H    0.029945
    54  H    0.023145
    55  H    0.012662
    56  H    0.047043
    57  H    0.074329
    58  H    0.039280
    59  H    0.012704
    60  H    0.209104
    61  H    0.002035
    62  H    0.039332
    63  H    0.039485
    64  H    0.051784
    65  H    0.058121
    66  H    0.018064
    67  H    0.024947
    68  H    0.005771
    69  H   -0.058054
    70  H    0.046979
    71  H    0.036915
    72  H    0.195238
    73  H   -0.013184
    74  H    0.025530
    75  H    0.056922
    76  H    0.049645
    77  H    0.187869
    78  H   -0.019026
    79  H   -0.009314
 Sum of Mulliken charges =  -0.00000

 Dipole moment (field-independent basis, Debye):
    X=              0.2251    Y=              1.6918    Z=              2.5166  Tot=              3.0407
 Quadrupole moment (field-independent basis, Debye-Ang):
   XX=           -224.7164   YY=           -244.6494   ZZ=           -264.2909
   XY=             -2.4233   XZ=             32.0446   YZ=             13.6844

 Normal termination of Gaussian 16 at Wed Sep 25 10:10:18 2019.
