 Gaussian 16, Revision A.03,
 Gaussian 16:  ES64L-G16RevA.03 25-Dec-2016

 --------------------------
 # td=(NStates=1) B3LYP/SVP
 --------------------------

 --
 TD
 --
 Symbolic Z-matrix:
 Charge =  0 Multiplicity = 1

                         Standard orientation:
 ---------------------------------------------------------------------
 Center     Atomic      Atomic             Coordinates (Angstroms)
 Number     Number       Type             X           Y           Z
 ---------------------------------------------------------------------
      1          8           0        5.318314   -0.393067   -3.319058
      2          8           0       -3.235514   -2.647698    3.190840
      3          8           0       -3.329285   -0.426123    3.128072
      4          8           0       -0.968725    7.069135    1.587390
      5          8           0        0.019704    6.954495   -0.392401
      6          8           0       -2.116577   -3.940962    0.360096
      7          7           0        2.364785    0.771636    0.503338
      8          7           0        4.273768   -0.826904   -1.259643
      9          7           0       -1.833605    0.753159   -0.416232
     10          7           0       -2.765870   -1.854109   -0.440640
     11          6           0        4.732487   -1.398445   -0.014198
     12          6           0        4.352575   -0.566871    1.249818
     13          6           0        2.990450   -0.240083    1.305391
     14          6           0        1.886620   -0.704733    2.057558
     15          6           0        0.733593    0.063482    1.767206
     16          6           0        1.027177    0.877172    0.798908
     17          6           0        6.174299   -1.529143   -0.170461
     18          6           0       -0.608536   -0.105078    2.469094
     19          6           0        6.553773   -1.115577   -1.434785
     20          6           0        0.231599    2.042689    0.213507
     21          6           0       -1.029325    1.946557   -0.337245
     22          6           0        5.351717   -0.733481   -2.057955
     23          6           0       -1.831454    2.995940   -1.009612
     24          6           0        2.108680   -1.729789    3.166523
     25          6           0        7.181249   -2.054010    0.852352
     26          6           0       -2.993388    2.439891   -1.440632
     27          6           0       -1.194864   -1.510615    2.659720
     28          6           0       -2.993001    0.973833   -1.013762
     29          6           0       -1.382341    4.390784   -1.078774
     30          6           0        7.886776   -0.997688   -2.056466
     31          6           0       -1.356971    5.085478    0.277305
     32          6           0       -4.171042    3.136105   -2.099739
     33          6           0       -3.964230    0.048783   -1.396028
     34          6           0       -2.660690   -1.425481    2.966217
     35          6           0       -3.915809   -1.477443   -1.081483
     36          6           0        9.067567   -1.087784   -1.494578
     37          6           0       -0.731592    6.387096    0.407970
     38          6           0       -4.742220   -2.499240   -1.482443
     39          6           0       -4.187228   -3.512705   -0.986254
     40          6           0       -2.915038   -3.141908   -0.281181
     41          6           0       -6.121583   -2.200268   -2.104989
     42          6           0       -4.544822   -4.982132   -1.094592
     43          6           0       -6.843102   -3.218763   -2.509974
     44          1           0        4.129314   -2.531524    0.107741
     45          1           0        4.947306    0.316764    1.282803
     46          1           0        4.510603   -1.075744    2.263840
     47          1           0        2.787376    1.116238   -0.304397
     48          1           0        3.373918   -0.742056   -1.613377
     49          1           0       -0.395280    0.533602    3.375027
     50          1           0       -1.293084    0.556127    1.921108
     51          1           0        0.737044    2.822737    0.186487
     52          1           0        3.295725   -1.945670    3.354821
     53          1           0        1.670384   -1.310509    4.196066
     54          1           0        1.560361   -2.553357    2.811070
     55          1           0        6.508795   -2.590895    1.704215
     56          1           0        7.713774   -1.271526    1.480683
     57          1           0        7.845167   -2.917305    0.513067
     58          1           0       -0.967192   -2.227470    1.759374
     59          1           0       -0.586766   -2.108855    3.477720
     60          1           0       -1.764329   -0.150735    0.070412
     61          1           0       -1.852520    4.980763   -1.841800
     62          1           0       -0.248021    4.249363   -1.382241
     63          1           0        7.759544   -0.971258   -3.128517
     64          1           0       -0.740316    4.507178    0.846604
     65          1           0       -2.312851    5.044011    0.693182
     66          1           0       -4.293799    4.140767   -2.322723
     67          1           0       -5.120879    2.816276   -1.405609
     68          1           0       -4.582058    2.632990   -3.086144
     69          1           0       -4.813904    0.482042   -1.714057
     70          1           0        9.192889   -1.342480   -0.420972
     71          1           0        9.871893   -1.073917   -2.154536
     72          1           0       -4.246980   -2.451310    3.091526
     73          1           0       -6.323693   -1.156357   -2.575470
     74          1           0       -5.341636   -5.279398   -0.561308
     75          1           0       -4.698421   -5.359580   -2.135204
     76          1           0       -3.756764   -5.582874   -0.520700
     77          1           0       -0.261807    7.787618    1.763899
     78          1           0       -7.844879   -2.910212   -3.095216
     79          1           0       -6.783754   -4.205580   -2.063183
 ---------------------------------------------------------------------

 SCF Done:  E(RB3LYP) =  -1947.81378595     A.U. after   19 cycles

 Excitation energies and oscillator strengths:

 Excited State   1:      Singlet-A      2.0452 eV  606.23 nm  f=0.2619  <S**2>=0.000
     154 ->156        -0.12117
     155 ->156         0.69044
 This state for optimization and/or second-order correction.
 Total Energy, E(TD-HF/TD-DFT) =  -1947.73862721
 Copying the excited state density for this state as the 1-particle RhoCI density.

 The electronic state is 1-A.
 Alpha  occ. eigenvalues --  -19.17848 -19.16463 -19.12644 -19.11662 -19.10792
 Alpha  occ. eigenvalues --  -19.08147 -14.37818 -14.36705 -14.36432 -14.29632
 Alpha  occ. eigenvalues --  -10.32821 -10.30972 -10.27517 -10.27012 -10.26487
 Alpha  occ. eigenvalues --  -10.26139 -10.26065 -10.25465 -10.22898 -10.22882
 Alpha  occ. eigenvalues --  -10.22608 -10.22525 -10.22144 -10.22118 -10.22108
 Alpha  occ. eigenvalues --  -10.21936 -10.21829 -10.21612 -10.21575 -10.21131
 Alpha  occ. eigenvalues --  -10.20843 -10.20839 -10.20735 -10.20263 -10.20195
 Alpha  occ. eigenvalues --  -10.20117 -10.19803 -10.19498 -10.19467 -10.18851
 Alpha  occ. eigenvalues --  -10.18489 -10.18467 -10.17663  -1.08060  -1.07490
 Alpha  occ. eigenvalues --   -1.00832  -1.00116  -0.98998  -0.98482  -0.98160
 Alpha  occ. eigenvalues --   -0.97486  -0.93788  -0.92836  -0.85008  -0.83248
 Alpha  occ. eigenvalues --   -0.82547  -0.82261  -0.81088  -0.80361  -0.79925
 Alpha  occ. eigenvalues --   -0.77335  -0.76840  -0.76081  -0.75718  -0.73393
 Alpha  occ. eigenvalues --   -0.72443  -0.71909  -0.71712  -0.69584  -0.68714
 Alpha  occ. eigenvalues --   -0.66885  -0.66803  -0.64574  -0.62285  -0.61469
 Alpha  occ. eigenvalues --   -0.60531  -0.58925  -0.58372  -0.58067  -0.57384
 Alpha  occ. eigenvalues --   -0.56883  -0.55722  -0.55491  -0.54658  -0.53873
 Alpha  occ. eigenvalues --   -0.53388  -0.52480  -0.52224  -0.51748  -0.51190
 Alpha  occ. eigenvalues --   -0.50358  -0.49327  -0.48921  -0.48680  -0.48262
 Alpha  occ. eigenvalues --   -0.47286  -0.47045  -0.46825  -0.46208  -0.46124
 Alpha  occ. eigenvalues --   -0.45635  -0.45229  -0.44802  -0.44742  -0.44022
 Alpha  occ. eigenvalues --   -0.43790  -0.43562  -0.43322  -0.43084  -0.42925
 Alpha  occ. eigenvalues --   -0.42499  -0.41838  -0.41582  -0.41344  -0.40960
 Alpha  occ. eigenvalues --   -0.40698  -0.40448  -0.40236  -0.39999  -0.39690
 Alpha  occ. eigenvalues --   -0.39338  -0.39124  -0.38688  -0.38547  -0.38133
 Alpha  occ. eigenvalues --   -0.37949  -0.37658  -0.37564  -0.37364  -0.36757
 Alpha  occ. eigenvalues --   -0.36466  -0.36030  -0.35643  -0.35144  -0.34530
 Alpha  occ. eigenvalues --   -0.34365  -0.33676  -0.32908  -0.31854  -0.31601
 Alpha  occ. eigenvalues --   -0.31500  -0.30684  -0.29098  -0.28423  -0.27887
 Alpha  occ. eigenvalues --   -0.27193  -0.26858  -0.26144  -0.25203  -0.24818
 Alpha  occ. eigenvalues --   -0.24413  -0.24312  -0.23617  -0.22974  -0.20426
 Alpha virt. eigenvalues --   -0.12017  -0.06860  -0.06607  -0.02028  -0.01045
 Alpha virt. eigenvalues --    0.00315   0.00723   0.01130   0.02678   0.02987
 Alpha virt. eigenvalues --    0.03450   0.04275   0.04695   0.04819   0.05046

 Mulliken charges:
               1
     1  O   -0.327468
     2  O   -0.228382
     3  O   -0.236634
     4  O   -0.249947
     5  O   -0.242259
     6  O   -0.272966
     7  N   -0.099722
     8  N   -0.104896
     9  N   -0.066855
    10  N   -0.210894
    11  C    0.026435
    12  C    0.256810
    13  C   -0.117969
    14  C   -0.149048
    15  C   -0.086648
    16  C    0.001738
    17  C   -0.157517
    18  C    0.128352
    19  C    0.007441
    20  C   -0.013557
    21  C    0.149741
    22  C    0.103277
    23  C   -0.070394
    24  C    0.029396
    25  C    0.004262
    26  C   -0.080718
    27  C   -0.054643
    28  C    0.066913
    29  C    0.075342
    30  C    0.002504
    31  C    0.131165
    32  C    0.029867
    33  C   -0.020461
    34  C    0.163763
    35  C    0.051227
    36  C    0.019172
    37  C    0.123125
    38  C    0.030996
    39  C   -0.203027
    40  C    0.136142
    41  C   -0.007347
    42  C    0.115121
    43  C   -0.042878
    44  H    0.055280
    45  H   -0.022244
    46  H    0.005628
    47  H    0.084296
    48  H    0.115223
    49  H    0.014135
    50  H   -0.012687
    51  H   -0.105877
    52  H    0.027018
    53  H    0.042598
    54  H    0.035761
    55  H    0.015591
    56  H    0.060371
    57  H    0.067301
    58  H    0.095368
    59  H    0.052749
    60  H    0.163501
    61  H    0.010452
    62  H    0.033508
    63  H    0.007452
    64  H    0.000897
    65  H    0.020431
    66  H    0.010795
    67  H    0.042450
    68  H    0.035652
    69  H   -0.078842
    70  H    0.016346
    71  H    0.010152
    72  H    0.202666
    73  H    0.038029
    74  H   -0.011460
    75  H    0.038052
    76  H    0.029463
    77  H    0.217502
    78  H    0.042183
    79  H    0.031701
 Sum of Mulliken charges =  -0.00000

 Dipole moment (field-independent basis, Debye):
    X=             -1.4547    Y=              1.2932    Z=              2.3989  Tot=              3.0892
 Quadrupole moment (field-independent basis, Debye-Ang):
   XX=           -213.7142   YY=           -255.6603   ZZ=           -269.0218
   XY=             -8.9367   XZ=             43.5241   YZ=              6.7523

 Normal termination of Gaussian 16 at Wed Sep 25 18:28:37 2019.
