 Gaussian 16, Revision A.03,
 Gaussian 16:  ES64L-G16RevA.03 25-Dec-2016

 --------------------------
 # td=(NStates=1) B3LYP/SVP
 --------------------------

 --
 TD
 --
 Symbolic Z-matrix:
 Charge =  0 Multiplicity = 1

                         Standard orientation:
 ---------------------------------------------------------------------
 Center     Atomic      Atomic             Coordinates (Angstroms)
 Number     Number       Type             X           Y           Z
 ---------------------------------------------------------------------
      1          8           0       -3.350795   -1.555256   -2.877744
      2          8           0        3.045669    3.173671    2.930708
      3          8           0        3.409945    1.614067    4.493746
      4          8           0        7.766697   -1.737625   -0.493716
      5          8           0        6.683961   -3.224668   -1.859098
      6          8           0       -2.653975    1.763414    1.397838
      7          7           0       -0.328949   -2.313907    0.996080
      8          7           0       -2.617943   -1.351281   -0.727721
      9          7           0        1.059852    0.012496   -0.786217
     10          7           0       -0.882419    1.420607   -0.298434
     11          6           0       -3.265784   -1.393021    0.649845
     12          6           0       -2.621034   -2.322383    1.669451
     13          6           0       -1.180528   -2.058303    1.844412
     14          6           0       -0.631863   -1.039354    2.753073
     15          6           0        0.695910   -1.014575    2.466571
     16          6           0        0.872903   -1.741757    1.371732
     17          6           0       -4.697626   -1.920239    0.326621
     18          6           0        1.792521   -0.270316    3.179004
     19          6           0       -4.840664   -2.117530   -1.012336
     20          6           0        1.971937   -1.871291    0.343156
     21          6           0        2.062299   -0.966379   -0.687578
     22          6           0       -3.617910   -1.704606   -1.706825
     23          6           0        2.995822   -0.760531   -1.779659
     24          6           0       -1.494371   -0.420221    3.922583
     25          6           0       -5.779866   -2.047518    1.340771
     26          6           0        2.586289    0.414885   -2.469279
     27          6           0        1.767966    1.205470    2.657150
     28          6           0        1.408207    0.911447   -1.765997
     29          6           0        4.357030   -1.566051   -1.963732
     30          6           0       -5.900279   -2.465270   -1.925175
     31          6           0        5.420931   -1.242014   -1.040313
     32          6           0        3.295855    0.991295   -3.655746
     33          6           0        0.629102    2.062706   -2.017306
     34          6           0        2.857946    1.970619    3.432360
     35          6           0       -0.468264    2.376347   -1.311139
     36          6           0       -7.183178   -3.121646   -1.683621
     37          6           0        6.646294   -2.228210   -1.219411
     38          6           0       -1.309472    3.521149   -1.337953
     39          6           0       -2.094092    3.541280   -0.263075
     40          6           0       -1.989850    2.033120    0.385091
     41          6           0       -1.015592    4.553824   -2.286913
     42          6           0       -3.230284    4.456678    0.243010
     43          6           0       -1.896789    5.638648   -2.590398
     44          1           0       -3.254454   -0.350037    1.139447
     45          1           0       -2.759226   -3.270979    1.117900
     46          1           0       -3.074770   -2.369149    2.837521
     47          1           0       -0.449856   -2.986190    0.247273
     48          1           0       -1.987507   -0.638280   -1.121842
     49          1           0        1.537141   -0.102537    4.437416
     50          1           0        2.706997   -0.783076    2.981158
     51          1           0        2.559050   -2.815610    0.154957
     52          1           0       -2.123880   -1.207695    4.410931
     53          1           0       -0.871949   -0.046725    4.694716
     54          1           0       -2.000584    0.481498    3.361647
     55          1           0       -5.748852   -1.285470    2.182274
     56          1           0       -5.665477   -3.018850    1.781567
     57          1           0       -6.749214   -1.937390    0.842642
     58          1           0        2.016174    1.274371    1.470162
     59          1           0        0.975689    1.575071    2.765305
     60          1           0        0.282224    0.306467   -0.100796
     61          1           0        4.545099   -1.468999   -2.997460
     62          1           0        4.282611   -2.775118   -1.738641
     63          1           0       -5.585287   -2.318459   -2.912890
     64          1           0        5.183857   -1.273631    0.117962
     65          1           0        5.849767   -0.179151   -1.326567
     66          1           0        4.311084    0.489135   -4.043602
     67          1           0        3.775026    2.081703   -3.577569
     68          1           0        2.361739    1.022220   -4.398652
     69          1           0        0.740896    2.727571   -2.886732
     70          1           0       -7.650130   -3.314915   -0.665964
     71          1           0       -7.832278   -3.357705   -2.568140
     72          1           0        3.541884    3.510809    3.439029
     73          1           0        0.048080    4.661293   -2.891301
     74          1           0       -3.943103    4.520346   -0.584575
     75          1           0       -3.445787    4.138106    1.240718
     76          1           0       -2.640615    5.335265    0.409627
     77          1           0        8.567404   -2.116194   -0.826575
     78          1           0       -1.542715    6.393224   -3.356874
     79          1           0       -2.646242    6.017350   -1.864167
 ---------------------------------------------------------------------

 SCF Done:  E(RB3LYP) =  -1947.72764606     A.U. after   18 cycles

 Excitation energies and oscillator strengths:

 Excited State   1:      Singlet-A      0.9681 eV 1280.71 nm  f=0.0133  <S**2>=0.000
     155 ->156         0.70512
 This state for optimization and/or second-order correction.
 Total Energy, E(TD-HF/TD-DFT) =  -1947.69206941
 Copying the excited state density for this state as the 1-particle RhoCI density.

 The electronic state is 1-A.
 Alpha  occ. eigenvalues --  -19.17916 -19.17841 -19.15572 -19.12451 -19.12437
 Alpha  occ. eigenvalues --  -19.09151 -14.37222 -14.36775 -14.32501 -14.30826
 Alpha  occ. eigenvalues --  -10.34038 -10.32194 -10.28658 -10.27105 -10.26675
 Alpha  occ. eigenvalues --  -10.25205 -10.24355 -10.24226 -10.24012 -10.23834
 Alpha  occ. eigenvalues --  -10.23762 -10.23327 -10.23170 -10.22983 -10.22677
 Alpha  occ. eigenvalues --  -10.21392 -10.21071 -10.20983 -10.20598 -10.20462
 Alpha  occ. eigenvalues --  -10.20351 -10.20263 -10.20240 -10.19933 -10.19802
 Alpha  occ. eigenvalues --  -10.19696 -10.19569 -10.19421 -10.19401 -10.18909
 Alpha  occ. eigenvalues --  -10.18080 -10.16588 -10.16241  -1.14798  -1.10105
 Alpha  occ. eigenvalues --   -1.02221  -1.01596  -1.01396  -1.01258  -0.99976
 Alpha  occ. eigenvalues --   -0.98763  -0.91232  -0.89668  -0.83399  -0.82589
 Alpha  occ. eigenvalues --   -0.81397  -0.80779  -0.80420  -0.79135  -0.78381
 Alpha  occ. eigenvalues --   -0.77306  -0.76686  -0.74635  -0.73951  -0.72340
 Alpha  occ. eigenvalues --   -0.70671  -0.70277  -0.69619  -0.68734  -0.68361
 Alpha  occ. eigenvalues --   -0.67365  -0.65526  -0.63041  -0.62219  -0.60497
 Alpha  occ. eigenvalues --   -0.60161  -0.59285  -0.58164  -0.57278  -0.56610
 Alpha  occ. eigenvalues --   -0.56336  -0.55779  -0.54375  -0.53933  -0.51956
 Alpha  occ. eigenvalues --   -0.51658  -0.50904  -0.50676  -0.50277  -0.49838
 Alpha  occ. eigenvalues --   -0.49535  -0.49178  -0.48854  -0.48290  -0.47629
 Alpha  occ. eigenvalues --   -0.47419  -0.47205  -0.46472  -0.45832  -0.45648
 Alpha  occ. eigenvalues --   -0.45489  -0.44997  -0.44680  -0.44412  -0.43415
 Alpha  occ. eigenvalues --   -0.43340  -0.42841  -0.42699  -0.42491  -0.42107
 Alpha  occ. eigenvalues --   -0.41929  -0.41562  -0.41360  -0.40889  -0.40831
 Alpha  occ. eigenvalues --   -0.40722  -0.40629  -0.40254  -0.40072  -0.39743
 Alpha  occ. eigenvalues --   -0.39437  -0.39282  -0.38999  -0.38208  -0.38165
 Alpha  occ. eigenvalues --   -0.37952  -0.37864  -0.37114  -0.37007  -0.36913
 Alpha  occ. eigenvalues --   -0.36111  -0.35399  -0.35010  -0.34829  -0.34432
 Alpha  occ. eigenvalues --   -0.34068  -0.33581  -0.33175  -0.32402  -0.32065
 Alpha  occ. eigenvalues --   -0.31393  -0.30247  -0.30190  -0.29307  -0.28231
 Alpha  occ. eigenvalues --   -0.27982  -0.26941  -0.24860  -0.24730  -0.24454
 Alpha  occ. eigenvalues --   -0.23980  -0.23135  -0.22405  -0.22118  -0.18567
 Alpha virt. eigenvalues --   -0.12580  -0.07326  -0.05695  -0.02897  -0.01654
 Alpha virt. eigenvalues --   -0.00372   0.01248   0.01605   0.02516   0.02927
 Alpha virt. eigenvalues --    0.03446   0.04165   0.04494   0.05131   0.05575

 Mulliken charges:
               1
     1  O   -0.224997
     2  O   -0.003576
     3  O   -0.268127
     4  O   -0.234651
     5  O   -0.170586
     6  O   -0.242802
     7  N    0.090554
     8  N   -0.271316
     9  N   -0.123735
    10  N   -0.417057
    11  C    0.078829
    12  C    0.138458
    13  C   -0.165408
    14  C   -0.191966
    15  C   -0.047514
    16  C   -0.036163
    17  C   -0.187999
    18  C    0.055577
    19  C   -0.020385
    20  C   -0.122793
    21  C    0.117144
    22  C    0.132320
    23  C   -0.045854
    24  C    0.064645
    25  C    0.098006
    26  C   -0.078607
    27  C    0.106609
    28  C    0.155824
    29  C    0.060929
    30  C    0.000073
    31  C   -0.050841
    32  C   -0.043110
    33  C   -0.114797
    34  C    0.122724
    35  C    0.104268
    36  C   -0.074442
    37  C    0.150554
    38  C    0.142877
    39  C   -0.279561
    40  C    0.237701
    41  C   -0.137753
    42  C    0.162793
    43  C   -0.065775
    44  H    0.069122
    45  H   -0.034907
    46  H    0.042009
    47  H    0.113487
    48  H    0.138331
    49  H    0.053053
    50  H   -0.005516
    51  H    0.015970
    52  H    0.019523
    53  H   -0.021093
    54  H    0.070351
    55  H    0.034220
    56  H    0.027778
    57  H    0.030307
    58  H    0.050537
    59  H   -0.081664
    60  H    0.223923
    61  H    0.010751
    62  H    0.047023
    63  H   -0.004453
    64  H    0.080385
    65  H    0.048923
    66  H    0.052414
    67  H    0.053660
    68  H    0.071218
    69  H   -0.020462
    70  H    0.036740
    71  H    0.038831
    72  H    0.051772
    73  H    0.052320
    74  H    0.062456
    75  H    0.019315
    76  H    0.012385
    77  H    0.171690
    78  H    0.033899
    79  H    0.035629
 Sum of Mulliken charges =  -0.00000

 Dipole moment (field-independent basis, Debye):
    X=              3.6983    Y=              2.2166    Z=             -1.4759  Tot=              4.5573
 Quadrupole moment (field-independent basis, Debye-Ang):
   XX=           -231.8099   YY=           -239.7111   ZZ=           -270.9102
   XY=              7.2224   XZ=            -29.5445   YZ=            -14.1005

 Normal termination of Gaussian 16 at Tue Jul 30 16:50:50 2019.
