 Gaussian 16, Revision A.03,
 Gaussian 16:  ES64L-G16RevA.03 25-Dec-2016

 --------------------------
 # td=(NStates=1) B3LYP/SVP
 --------------------------

 --
 TD
 --
 Symbolic Z-matrix:
 Charge =  0 Multiplicity = 1

                         Standard orientation:
 ---------------------------------------------------------------------
 Center     Atomic      Atomic             Coordinates (Angstroms)
 Number     Number       Type             X           Y           Z
 ---------------------------------------------------------------------
      1          8           0       -3.148493   -1.109236   -2.931942
      2          8           0        3.258539    2.925523    3.222596
      3          8           0        3.777132    1.136813    4.344713
      4          8           0        7.699675   -1.321706   -0.993099
      5          8           0        6.498290   -2.933400   -2.148329
      6          8           0       -2.776556    1.490790    1.488013
      7          7           0       -0.361353   -2.593044    0.789893
      8          7           0       -2.566594   -1.100589   -0.698101
      9          7           0        1.075456    0.136435   -0.664811
     10          7           0       -0.949233    1.544333   -0.026483
     11          6           0       -3.401395   -1.309928    0.545871
     12          6           0       -2.679208   -2.319039    1.482581
     13          6           0       -1.238919   -2.137321    1.663323
     14          6           0       -0.659594   -1.427244    2.771413
     15          6           0        0.745835   -1.327488    2.387328
     16          6           0        0.894215   -2.027322    1.120214
     17          6           0       -4.691416   -1.957818    0.098857
     18          6           0        1.864097   -0.630523    3.148328
     19          6           0       -4.613630   -1.901527   -1.269288
     20          6           0        1.963560   -1.962001    0.180920
     21          6           0        2.079331   -0.861229   -0.638604
     22          6           0       -3.431018   -1.303562   -1.737259
     23          6           0        3.065350   -0.586195   -1.747707
     24          6           0       -1.407471   -1.024468    4.125156
     25          6           0       -5.741582   -2.285184    1.091056
     26          6           0        2.540908    0.638119   -2.385360
     27          6           0        1.850974    0.968145    2.951427
     28          6           0        1.333447    1.020446   -1.614536
     29          6           0        4.203076   -1.414284   -2.149571
     30          6           0       -5.616756   -2.359741   -2.320307
     31          6           0        5.442327   -0.991036   -1.251264
     32          6           0        3.164599    1.362620   -3.528774
     33          6           0        0.500139    2.133594   -1.892987
     34          6           0        3.005726    1.633245    3.567034
     35          6           0       -0.598961    2.455871   -1.063222
     36          6           0       -6.569944   -3.228414   -2.029009
     37          6           0        6.541728   -1.839996   -1.562615
     38          6           0       -1.527877    3.635363   -1.078707
     39          6           0       -2.430791    3.354874   -0.043000
     40          6           0       -2.074283    2.025471    0.622596
     41          6           0       -1.260958    4.800189   -1.936819
     42          6           0       -3.529661    4.205409    0.428431
     43          6           0       -1.976360    5.893322   -1.846995
     44          1           0       -3.495413   -0.304972    0.970546
     45          1           0       -2.891636   -3.452808    1.247770
     46          1           0       -3.092916   -2.224049    2.580615
     47          1           0       -0.639649   -2.872252   -0.211635
     48          1           0       -1.748957   -0.397364   -0.728666
     49          1           0        1.816544   -0.879289    4.254770
     50          1           0        2.885948   -0.719528    2.503491
     51          1           0        2.768560   -2.551537    0.175117
     52          1           0       -2.027918   -1.911709    4.549730
     53          1           0       -0.592082   -0.783623    4.967049
     54          1           0       -2.031268   -0.112738    3.909396
     55          1           0       -5.536082   -1.488550    1.976605
     56          1           0       -5.684188   -3.336025    1.380489
     57          1           0       -6.771075   -2.263218    0.803111
     58          1           0        1.842223    1.220142    1.782340
     59          1           0        1.104243    1.538966    3.320430
     60          1           0        0.347625    0.378085    0.056680
     61          1           0        4.607710   -1.306884   -3.145206
     62          1           0        4.054136   -2.481632   -1.876925
     63          1           0       -5.430642   -2.190597   -3.218157
     64          1           0        5.270463   -1.321632   -0.196441
     65          1           0        5.608090    0.018774   -1.294833
     66          1           0        4.052968    0.857898   -3.651764
     67          1           0        3.596128    2.360453   -3.193364
     68          1           0        2.536137    1.534149   -4.293347
     69          1           0        0.594716    2.762263   -2.589801
     70          1           0       -6.698321   -3.413554   -1.016921
     71          1           0       -7.351476   -3.430816   -2.828584
     72          1           0        4.053880    3.226094    3.592645
     73          1           0       -0.375494    4.651300   -2.455871
     74          1           0       -4.142297    4.391186   -0.549042
     75          1           0       -3.995540    3.892223    1.478628
     76          1           0       -3.296298    5.207278    0.774900
     77          1           0        8.214417   -2.181630   -1.264636
     78          1           0       -2.120268    6.772114   -2.617615
     79          1           0       -2.761820    5.999185   -1.381665
 ---------------------------------------------------------------------

 SCF Done:  E(RB3LYP) =  -1947.79630360     A.U. after   20 cycles

 Excitation energies and oscillator strengths:

 Excited State   1:      Singlet-A      1.0641 eV 1165.16 nm  f=0.0024  <S**2>=0.000
     155 ->156         0.70258
 This state for optimization and/or second-order correction.
 Total Energy, E(TD-HF/TD-DFT) =  -1947.75719870
 Copying the excited state density for this state as the 1-particle RhoCI density.

 The electronic state is 1-A.
 Alpha  occ. eigenvalues --  -19.20210 -19.16405 -19.15328 -19.11834 -19.11305
 Alpha  occ. eigenvalues --  -19.06550 -14.37923 -14.37753 -14.32787 -14.30541
 Alpha  occ. eigenvalues --  -10.33999 -10.31021 -10.28079 -10.27188 -10.26367
 Alpha  occ. eigenvalues --  -10.25429 -10.25002 -10.24640 -10.23872 -10.22893
 Alpha  occ. eigenvalues --  -10.22493 -10.22051 -10.21908 -10.21704 -10.21416
 Alpha  occ. eigenvalues --  -10.21352 -10.21306 -10.21112 -10.20862 -10.20703
 Alpha  occ. eigenvalues --  -10.20655 -10.20597 -10.20550 -10.20476 -10.20406
 Alpha  occ. eigenvalues --  -10.20014 -10.19858 -10.19155 -10.19051 -10.18233
 Alpha  occ. eigenvalues --  -10.18082 -10.17169 -10.16657  -1.10314  -1.09430
 Alpha  occ. eigenvalues --   -1.01857  -1.01328  -0.99996  -0.99416  -0.98832
 Alpha  occ. eigenvalues --   -0.97045  -0.91513  -0.90548  -0.84987  -0.82804
 Alpha  occ. eigenvalues --   -0.81733  -0.80676  -0.80425  -0.79658  -0.78524
 Alpha  occ. eigenvalues --   -0.77111  -0.76227  -0.75991  -0.75282  -0.74053
 Alpha  occ. eigenvalues --   -0.71149  -0.70765  -0.70510  -0.69624  -0.67572
 Alpha  occ. eigenvalues --   -0.66361  -0.65610  -0.63079  -0.61961  -0.60845
 Alpha  occ. eigenvalues --   -0.59918  -0.58760  -0.58610  -0.57599  -0.57517
 Alpha  occ. eigenvalues --   -0.55996  -0.55477  -0.54827  -0.54347  -0.53410
 Alpha  occ. eigenvalues --   -0.53252  -0.53171  -0.51709  -0.51154  -0.50799
 Alpha  occ. eigenvalues --   -0.49855  -0.49394  -0.49235  -0.48683  -0.48352
 Alpha  occ. eigenvalues --   -0.48079  -0.47244  -0.46816  -0.46406  -0.46362
 Alpha  occ. eigenvalues --   -0.46208  -0.45671  -0.45037  -0.44639  -0.44418
 Alpha  occ. eigenvalues --   -0.44059  -0.43734  -0.42919  -0.42877  -0.42458
 Alpha  occ. eigenvalues --   -0.41825  -0.41547  -0.41380  -0.41010  -0.40909
 Alpha  occ. eigenvalues --   -0.40718  -0.40366  -0.40171  -0.40009  -0.39869
 Alpha  occ. eigenvalues --   -0.39652  -0.39285  -0.38810  -0.38537  -0.38043
 Alpha  occ. eigenvalues --   -0.37810  -0.37261  -0.37099  -0.36691  -0.36511
 Alpha  occ. eigenvalues --   -0.36334  -0.35742  -0.35294  -0.35024  -0.34770
 Alpha  occ. eigenvalues --   -0.34373  -0.34001  -0.33334  -0.31980  -0.31645
 Alpha  occ. eigenvalues --   -0.31261  -0.30869  -0.29573  -0.29098  -0.28969
 Alpha  occ. eigenvalues --   -0.27055  -0.26752  -0.25360  -0.24291  -0.23525
 Alpha  occ. eigenvalues --   -0.23217  -0.22804  -0.22431  -0.22237  -0.19240
 Alpha virt. eigenvalues --   -0.12672  -0.07901  -0.03953  -0.02840  -0.02090
 Alpha virt. eigenvalues --    0.00891   0.01313   0.01669   0.02665   0.03218
 Alpha virt. eigenvalues --    0.03381   0.04057   0.04220   0.04978   0.05318

 Mulliken charges:
               1
     1  O   -0.274210
     2  O   -0.178139
     3  O   -0.228471
     4  O   -0.229088
     5  O   -0.260140
     6  O   -0.234093
     7  N   -0.044699
     8  N   -0.255628
     9  N   -0.073790
    10  N   -0.391855
    11  C    0.087976
    12  C    0.107593
    13  C   -0.130639
    14  C   -0.084845
    15  C   -0.100015
    16  C    0.013058
    17  C   -0.157041
    18  C    0.066974
    19  C   -0.053590
    20  C   -0.031885
    21  C    0.084529
    22  C    0.129323
    23  C   -0.051335
    24  C    0.006948
    25  C    0.091883
    26  C   -0.192424
    27  C    0.012557
    28  C    0.153821
    29  C    0.094901
    30  C    0.102177
    31  C    0.034238
    32  C    0.218564
    33  C    0.026834
    34  C    0.087548
    35  C    0.065004
    36  C    0.019009
    37  C    0.152109
    38  C    0.053861
    39  C   -0.197315
    40  C    0.218168
    41  C    0.073485
    42  C    0.020022
    43  C    0.067983
    44  H    0.061215
    45  H    0.005772
    46  H   -0.001605
    47  H    0.155098
    48  H    0.162154
    49  H    0.045404
    50  H    0.020888
    51  H   -0.056527
    52  H    0.045110
    53  H    0.023611
    54  H    0.055993
    55  H    0.058041
    56  H    0.028046
    57  H    0.023157
    58  H    0.047097
    59  H    0.007909
    60  H    0.212398
    61  H    0.028588
    62  H    0.036947
    63  H   -0.105317
    64  H    0.063854
    65  H    0.015705
    66  H   -0.024775
    67  H    0.025144
    68  H    0.018757
    69  H   -0.150888
    70  H   -0.033930
    71  H    0.030449
    72  H    0.156707
    73  H   -0.039974
    74  H    0.060716
    75  H    0.047098
    76  H    0.028812
    77  H    0.196889
    78  H    0.029658
    79  H   -0.097564
 Sum of Mulliken charges =  -0.00000

 Dipole moment (field-independent basis, Debye):
    X=              3.1713    Y=              2.7954    Z=             -0.6954  Tot=              4.2842
 Quadrupole moment (field-independent basis, Debye-Ang):
   XX=           -236.1334   YY=           -238.4771   ZZ=           -268.6789
   XY=              3.8093   XZ=            -26.5979   YZ=            -12.9404

 Normal termination of Gaussian 16 at Wed Jul 24 17:23:10 2019.
