 Gaussian 16, Revision A.03,
 Gaussian 16:  ES64L-G16RevA.03 25-Dec-2016

 --------------------------
 # td=(NStates=1) B3LYP/SVP
 --------------------------

 --
 TD
 --
 Symbolic Z-matrix:
 Charge =  0 Multiplicity = 1

                         Standard orientation:
 ---------------------------------------------------------------------
 Center     Atomic      Atomic             Coordinates (Angstroms)
 Number     Number       Type             X           Y           Z
 ---------------------------------------------------------------------
      1          8           0        5.347274    0.167173   -3.161583
      2          8           0       -3.330570   -2.781254    3.072146
      3          8           0       -3.372742   -0.473025    3.128160
      4          8           0       -1.575759    7.174002    1.421210
      5          8           0       -0.547476    6.962904   -0.450568
      6          8           0       -1.842183   -4.071568    0.006216
      7          7           0        2.437283    0.883941    0.602803
      8          7           0        4.430420   -0.445074   -1.207182
      9          7           0       -1.748194    0.659421   -0.361176
     10          7           0       -2.511262   -1.869357   -0.598537
     11          6           0        4.620654   -1.260116   -0.013641
     12          6           0        4.335864   -0.459133    1.335376
     13          6           0        2.931101   -0.073861    1.443447
     14          6           0        1.932749   -0.626454    2.294963
     15          6           0        0.720959   -0.001385    1.892185
     16          6           0        1.070765    0.914930    0.791979
     17          6           0        6.152452   -1.552868   -0.156285
     18          6           0       -0.565911   -0.114339    2.629520
     19          6           0        6.583709   -1.009341   -1.357278
     20          6           0        0.332060    1.938438    0.193922
     21          6           0       -0.981283    1.830891   -0.279225
     22          6           0        5.482234   -0.310176   -2.043202
     23          6           0       -1.824373    2.840342   -0.874289
     24          6           0        2.132194   -1.659637    3.321970
     25          6           0        7.043240   -2.330761    0.726357
     26          6           0       -3.017971    2.355922   -1.363275
     27          6           0       -1.195804   -1.548487    2.644678
     28          6           0       -2.963570    0.828782   -1.052561
     29          6           0       -1.376522    4.318267   -1.010202
     30          6           0        7.979025   -0.837167   -2.080167
     31          6           0       -1.677403    5.032498    0.299771
     32          6           0       -4.171127    2.915414   -2.094261
     33          6           0       -3.889569   -0.049305   -1.447545
     34          6           0       -2.745702   -1.484626    3.076232
     35          6           0       -3.730449   -1.472298   -1.129335
     36          6           0        9.162645   -0.943241   -1.519482
     37          6           0       -1.175661    6.471271    0.390548
     38          6           0       -4.597501   -2.591781   -1.463448
     39          6           0       -3.965849   -3.722756   -0.968819
     40          6           0       -2.709517   -3.304132   -0.509607
     41          6           0       -5.941295   -2.377734   -2.051474
     42          6           0       -4.370546   -5.118024   -1.197153
     43          6           0       -6.746968   -3.363574   -2.548046
     44          1           0        4.131285   -2.016049    0.073729
     45          1           0        4.924532    0.327372    1.225117
     46          1           0        4.804032   -0.969563    2.153298
     47          1           0        2.971198    1.388362   -0.061728
     48          1           0        3.502988   -0.313288   -1.656462
     49          1           0       -0.519231    0.626537    3.550685
     50          1           0       -1.244953    0.535375    1.907853
     51          1           0        1.106878    2.785058   -0.238651
     52          1           0        3.152988   -1.807890    3.448835
     53          1           0        1.654050   -1.541528    4.461131
     54          1           0        1.548607   -2.682691    2.918188
     55          1           0        6.633594   -3.025012    1.334146
     56          1           0        7.396369   -1.838054    1.761272
     57          1           0        7.872365   -2.817209    0.205655
     58          1           0       -0.931751   -2.251580    1.742769
     59          1           0       -0.539597   -1.980824    3.378503
     60          1           0       -1.421999   -0.311374   -0.107628
     61          1           0       -2.037546    4.750298   -1.719594
     62          1           0       -0.385877    4.392317   -1.193385
     63          1           0        7.882733   -0.385451   -3.230493
     64          1           0       -1.271295    4.611976    1.288010
     65          1           0       -2.739386    5.204886    0.717178
     66          1           0       -4.138935    4.102115   -2.047174
     67          1           0       -5.258460    2.497557   -1.769881
     68          1           0       -3.998922    2.565854   -3.372799
     69          1           0       -4.717084    0.335052   -1.975314
     70          1           0        9.044593   -1.166222   -0.362096
     71          1           0       10.142644   -0.828341   -1.868420
     72          1           0       -4.373158   -2.718672    2.971078
     73          1           0       -6.260914   -1.313489   -2.126901
     74          1           0       -5.266958   -5.165144   -0.722264
     75          1           0       -4.538346   -5.419939   -2.347565
     76          1           0       -3.795249   -5.910858   -0.767143
     77          1           0       -1.473317    8.121515    1.193229
     78          1           0       -7.770935   -3.161032   -3.018111
     79          1           0       -6.766826   -4.461782   -2.210993
 ---------------------------------------------------------------------

 SCF Done:  E(RB3LYP) =  -1947.78583115     A.U. after   19 cycles

 Excitation energies and oscillator strengths:

 Excited State   1:      Singlet-A      1.7688 eV  700.94 nm  f=0.3622  <S**2>=0.000
     154 ->156         0.11009
     155 ->156         0.69952
     155 <-156        -0.12896
 This state for optimization and/or second-order correction.
 Total Energy, E(TD-HF/TD-DFT) =  -1947.72082772
 Copying the excited state density for this state as the 1-particle RhoCI density.

 The electronic state is 1-A.
 Alpha  occ. eigenvalues --  -19.17885 -19.16450 -19.12838 -19.11541 -19.10147
 Alpha  occ. eigenvalues --  -19.10013 -14.39139 -14.36386 -14.35779 -14.29200
 Alpha  occ. eigenvalues --  -10.31820 -10.30733 -10.28292 -10.25766 -10.24599
 Alpha  occ. eigenvalues --  -10.24240 -10.24231 -10.24012 -10.23648 -10.23577
 Alpha  occ. eigenvalues --  -10.23478 -10.23341 -10.22526 -10.21834 -10.21772
 Alpha  occ. eigenvalues --  -10.21703 -10.21638 -10.21309 -10.21259 -10.21137
 Alpha  occ. eigenvalues --  -10.21044 -10.20805 -10.20786 -10.20630 -10.20564
 Alpha  occ. eigenvalues --  -10.20309 -10.20047 -10.19978 -10.19772 -10.19599
 Alpha  occ. eigenvalues --  -10.19571 -10.18913 -10.18481  -1.11994  -1.06602
 Alpha  occ. eigenvalues --   -1.02956  -1.01830  -0.99551  -0.98821  -0.98353
 Alpha  occ. eigenvalues --   -0.95959  -0.94354  -0.90546  -0.82389  -0.81958
 Alpha  occ. eigenvalues --   -0.81861  -0.81583  -0.80508  -0.79627  -0.77442
 Alpha  occ. eigenvalues --   -0.76981  -0.76156  -0.75587  -0.75036  -0.72570
 Alpha  occ. eigenvalues --   -0.72018  -0.70881  -0.70004  -0.69909  -0.67865
 Alpha  occ. eigenvalues --   -0.66723  -0.66168  -0.64651  -0.60454  -0.60149
 Alpha  occ. eigenvalues --   -0.59957  -0.59183  -0.58736  -0.58025  -0.57336
 Alpha  occ. eigenvalues --   -0.56167  -0.55474  -0.54943  -0.54500  -0.53514
 Alpha  occ. eigenvalues --   -0.52800  -0.51327  -0.51065  -0.49898  -0.49659
 Alpha  occ. eigenvalues --   -0.49005  -0.48629  -0.48240  -0.47957  -0.47297
 Alpha  occ. eigenvalues --   -0.47054  -0.46574  -0.46399  -0.45885  -0.45375
 Alpha  occ. eigenvalues --   -0.45283  -0.45038  -0.44452  -0.43944  -0.43804
 Alpha  occ. eigenvalues --   -0.43711  -0.43382  -0.43091  -0.42414  -0.42340
 Alpha  occ. eigenvalues --   -0.41668  -0.41469  -0.41306  -0.41178  -0.40650
 Alpha  occ. eigenvalues --   -0.40489  -0.40320  -0.39898  -0.39865  -0.39502
 Alpha  occ. eigenvalues --   -0.39293  -0.39034  -0.38958  -0.38635  -0.38376
 Alpha  occ. eigenvalues --   -0.38322  -0.37940  -0.37702  -0.37645  -0.37447
 Alpha  occ. eigenvalues --   -0.36469  -0.35134  -0.35013  -0.34950  -0.33832
 Alpha  occ. eigenvalues --   -0.33263  -0.33022  -0.32765  -0.31208  -0.31164
 Alpha  occ. eigenvalues --   -0.30956  -0.30258  -0.28163  -0.27751  -0.27723
 Alpha  occ. eigenvalues --   -0.27530  -0.27063  -0.25814  -0.25231  -0.25031
 Alpha  occ. eigenvalues --   -0.24816  -0.24215  -0.23749  -0.22148  -0.18150
 Alpha virt. eigenvalues --   -0.11318  -0.07201  -0.06246  -0.01908  -0.00048
 Alpha virt. eigenvalues --    0.00560   0.01374   0.02106   0.02343   0.02841
 Alpha virt. eigenvalues --    0.03228   0.03871   0.04151   0.04609   0.04955

 Mulliken charges:
               1
     1  O   -0.233553
     2  O   -0.283487
     3  O   -0.188851
     4  O   -0.164852
     5  O   -0.189408
     6  O   -0.244528
     7  N   -0.042766
     8  N   -0.201883
     9  N   -0.139259
    10  N   -0.323473
    11  C    0.230422
    12  C    0.272492
    13  C   -0.100035
    14  C   -0.073481
    15  C   -0.126201
    16  C    0.052086
    17  C   -0.153705
    18  C    0.022648
    19  C   -0.085110
    20  C   -0.153274
    21  C    0.146004
    22  C    0.132154
    23  C   -0.161624
    24  C    0.013939
    25  C    0.100093
    26  C   -0.071707
    27  C   -0.045118
    28  C    0.152287
    29  C    0.317082
    30  C   -0.019390
    31  C   -0.092384
    32  C   -0.064011
    33  C   -0.097272
    34  C    0.208829
    35  C    0.087788
    36  C   -0.038844
    37  C    0.060819
    38  C    0.024096
    39  C   -0.150438
    40  C    0.163797
    41  C   -0.006684
    42  C    0.122423
    43  C   -0.075759
    44  H   -0.086248
    45  H   -0.070979
    46  H   -0.014676
    47  H    0.111503
    48  H    0.133973
    49  H    0.049052
    50  H    0.021991
    51  H    0.034351
    52  H   -0.017861
    53  H    0.052550
    54  H    0.063848
    55  H   -0.034235
    56  H    0.028975
    57  H    0.049596
    58  H    0.101239
    59  H    0.011598
    60  H    0.171625
    61  H   -0.010058
    62  H   -0.024281
    63  H    0.062679
    64  H    0.039100
    65  H    0.035208
    66  H    0.047649
    67  H    0.069116
    68  H    0.060795
    69  H   -0.055694
    70  H    0.030669
    71  H    0.017456
    72  H    0.213103
    73  H    0.012192
    74  H   -0.007460
    75  H    0.050866
    76  H    0.008451
    77  H    0.184936
    78  H    0.032904
    79  H    0.046207
 Sum of Mulliken charges =  -0.00000

 Dipole moment (field-independent basis, Debye):
    X=             -0.0048    Y=              1.0671    Z=              2.9488  Tot=              3.1359
 Quadrupole moment (field-independent basis, Debye-Ang):
   XX=           -209.4562   YY=           -248.1617   ZZ=           -265.3418
   XY=            -12.7727   XZ=             34.4635   YZ=              2.3931

 Normal termination of Gaussian 16 at Mon Sep 30 08:17:12 2019.
