 Gaussian 16, Revision A.03,
 Gaussian 16:  ES64L-G16RevA.03 25-Dec-2016

 --------------------------
 # td=(NStates=1) B3LYP/SVP
 --------------------------

 --
 TD
 --
 Symbolic Z-matrix:
 Charge =  0 Multiplicity = 1

                         Standard orientation:
 ---------------------------------------------------------------------
 Center     Atomic      Atomic             Coordinates (Angstroms)
 Number     Number       Type             X           Y           Z
 ---------------------------------------------------------------------
      1          8           0        5.390796   -0.049123   -3.265697
      2          8           0       -2.980746   -2.982069    3.210826
      3          8           0       -3.455972   -0.801117    3.018750
      4          8           0       -1.711053    7.223340    1.417136
      5          8           0       -0.377410    6.882264   -0.445876
      6          8           0       -1.736249   -4.029636   -0.060975
      7          7           0        2.413046    0.920610    0.608071
      8          7           0        4.369563   -0.349666   -1.164615
      9          7           0       -1.914764    0.711502   -0.430987
     10          7           0       -2.638632   -1.872092   -0.489112
     11          6           0        4.789756   -1.069460    0.082402
     12          6           0        4.428627   -0.336507    1.337461
     13          6           0        2.934573   -0.073365    1.357498
     14          6           0        1.984633   -0.664437    2.124385
     15          6           0        0.716666   -0.012848    1.798730
     16          6           0        1.016044    0.999850    0.842576
     17          6           0        6.304333   -1.313140   -0.146741
     18          6           0       -0.603185   -0.300915    2.509458
     19          6           0        6.667149   -0.887276   -1.349597
     20          6           0        0.209028    1.958018    0.134183
     21          6           0       -1.181345    1.880597   -0.221853
     22          6           0        5.416969   -0.355285   -2.122634
     23          6           0       -1.973209    2.921711   -0.816536
     24          6           0        2.068936   -1.875270    3.023978
     25          6           0        7.087985   -1.998257    0.902148
     26          6           0       -3.181019    2.386269   -1.232523
     27          6           0       -1.208201   -1.719963    2.624385
     28          6           0       -3.025849    0.960073   -0.936955
     29          6           0       -1.540357    4.304538   -0.965674
     30          6           0        7.938545   -0.834218   -2.088562
     31          6           0       -1.707317    4.976899    0.397041
     32          6           0       -4.385294    3.086708   -1.845821
     33          6           0       -4.029845   -0.070908   -1.158857
     34          6           0       -2.557915   -1.682761    2.964313
     35          6           0       -3.679699   -1.434830   -1.151709
     36          6           0        9.188149   -0.823060   -1.454732
     37          6           0       -1.169093    6.480181    0.408792
     38          6           0       -4.564859   -2.559571   -1.511233
     39          6           0       -3.857655   -3.718816   -1.236971
     40          6           0       -2.647027   -3.321608   -0.525698
     41          6           0       -5.888429   -2.313645   -2.031995
     42          6           0       -4.217575   -5.214670   -1.314126
     43          6           0       -6.653043   -3.269316   -2.563024
     44          1           0        4.305996   -1.943641    0.144165
     45          1           0        5.068010    0.593939    1.262000
     46          1           0        4.774942   -1.018415    2.037647
     47          1           0        2.743833    1.527031   -0.103115
     48          1           0        3.437662   -0.347947   -1.451709
     49          1           0       -0.519295    0.287621    3.271267
     50          1           0       -1.397342    0.287240    2.094538
     51          1           0        0.757645    2.963026   -0.132059
     52          1           0        3.125076   -2.359297    2.995735
     53          1           0        1.684659   -1.590350    4.129115
     54          1           0        1.297035   -2.643150    2.684106
     55          1           0        6.410986   -2.931198    1.259700
     56          1           0        7.096931   -1.253571    1.752844
     57          1           0        8.179511   -2.152463    0.821728
     58          1           0       -1.104111   -2.434867    1.741437
     59          1           0       -0.546752   -2.212682    3.357055
     60          1           0       -1.597030   -0.225474   -0.199611
     61          1           0       -2.050430    4.968910   -1.755798
     62          1           0       -0.496968    4.422281   -1.387516
     63          1           0        7.900723   -1.034815   -3.179042
     64          1           0       -1.181600    4.251555    1.077748
     65          1           0       -2.677198    5.069877    0.704120
     66          1           0       -4.036109    4.044382   -1.866483
     67          1           0       -5.294879    2.967059   -1.427168
     68          1           0       -4.444171    2.507943   -2.857423
     69          1           0       -5.011408    0.156212   -1.464134
     70          1           0        9.650909   -0.628566   -0.298947
     71          1           0       10.077943   -0.959836   -2.056330
     72          1           0       -3.899213   -2.937115    3.406800
     73          1           0       -6.374966   -1.327435   -2.223305
     74          1           0       -5.213593   -5.470296   -1.000542
     75          1           0       -4.409232   -5.719480   -2.389366
     76          1           0       -3.458768   -6.017874   -0.700652
     77          1           0       -1.339502    7.976466    1.403999
     78          1           0       -7.699309   -2.926345   -2.828098
     79          1           0       -6.482268   -4.338764   -2.472158
 ---------------------------------------------------------------------

 SCF Done:  E(RB3LYP) =  -1947.84693179     A.U. after   19 cycles

 Excitation energies and oscillator strengths:

 Excited State   1:      Singlet-A      1.9277 eV  643.17 nm  f=0.3865  <S**2>=0.000
     154 ->156         0.13731
     155 ->156         0.69103
     155 <-156        -0.12550
 This state for optimization and/or second-order correction.
 Total Energy, E(TD-HF/TD-DFT) =  -1947.77608944
 Copying the excited state density for this state as the 1-particle RhoCI density.

 The electronic state is 1-A.
 Alpha  occ. eigenvalues --  -19.19363 -19.15129 -19.14354 -19.11406 -19.11144
 Alpha  occ. eigenvalues --  -19.10265 -14.38646 -14.37176 -14.34878 -14.27807
 Alpha  occ. eigenvalues --  -10.33999 -10.30851 -10.28900 -10.26140 -10.25033
 Alpha  occ. eigenvalues --  -10.24278 -10.24126 -10.23976 -10.23925 -10.23825
 Alpha  occ. eigenvalues --  -10.22225 -10.22054 -10.21959 -10.21678 -10.21655
 Alpha  occ. eigenvalues --  -10.21554 -10.21458 -10.21355 -10.21319 -10.21012
 Alpha  occ. eigenvalues --  -10.20957 -10.20643 -10.20595 -10.20246 -10.20079
 Alpha  occ. eigenvalues --  -10.20073 -10.19968 -10.19863 -10.19820 -10.19578
 Alpha  occ. eigenvalues --  -10.19318 -10.18388 -10.18335  -1.12449  -1.06703
 Alpha  occ. eigenvalues --   -1.04346  -1.02288  -1.01896  -0.99659  -0.99208
 Alpha  occ. eigenvalues --   -0.96626  -0.93408  -0.91501  -0.84209  -0.82532
 Alpha  occ. eigenvalues --   -0.82233  -0.81696  -0.80105  -0.79824  -0.78612
 Alpha  occ. eigenvalues --   -0.78266  -0.76656  -0.75284  -0.74220  -0.72818
 Alpha  occ. eigenvalues --   -0.71962  -0.70996  -0.70047  -0.69834  -0.69445
 Alpha  occ. eigenvalues --   -0.68165  -0.66054  -0.63708  -0.62812  -0.61069
 Alpha  occ. eigenvalues --   -0.60667  -0.58713  -0.58536  -0.57900  -0.57744
 Alpha  occ. eigenvalues --   -0.57406  -0.56975  -0.56099  -0.54700  -0.53262
 Alpha  occ. eigenvalues --   -0.52363  -0.52108  -0.51324  -0.50708  -0.50392
 Alpha  occ. eigenvalues --   -0.50145  -0.49464  -0.48550  -0.48246  -0.47621
 Alpha  occ. eigenvalues --   -0.47239  -0.47037  -0.46649  -0.46312  -0.45996
 Alpha  occ. eigenvalues --   -0.45081  -0.45021  -0.44758  -0.44238  -0.43699
 Alpha  occ. eigenvalues --   -0.43600  -0.43223  -0.42862  -0.42623  -0.42415
 Alpha  occ. eigenvalues --   -0.42344  -0.42045  -0.41789  -0.41661  -0.41323
 Alpha  occ. eigenvalues --   -0.40996  -0.40517  -0.40499  -0.40014  -0.39821
 Alpha  occ. eigenvalues --   -0.39532  -0.39395  -0.39087  -0.38824  -0.38646
 Alpha  occ. eigenvalues --   -0.38548  -0.38504  -0.37956  -0.37778  -0.37408
 Alpha  occ. eigenvalues --   -0.36382  -0.36280  -0.35557  -0.34520  -0.34369
 Alpha  occ. eigenvalues --   -0.34204  -0.34102  -0.33703  -0.32124  -0.31187
 Alpha  occ. eigenvalues --   -0.30979  -0.29869  -0.29426  -0.29080  -0.27378
 Alpha  occ. eigenvalues --   -0.26609  -0.26554  -0.26176  -0.26070  -0.24945
 Alpha  occ. eigenvalues --   -0.24239  -0.23872  -0.23462  -0.22038  -0.18662
 Alpha virt. eigenvalues --   -0.11040  -0.07162  -0.05269  -0.01820  -0.00491
 Alpha virt. eigenvalues --    0.00136   0.00466   0.01290   0.02617   0.03748
 Alpha virt. eigenvalues --    0.03776   0.04614   0.04732   0.05382   0.05901

 Mulliken charges:
               1
     1  O   -0.170948
     2  O   -0.196937
     3  O   -0.275907
     4  O   -0.092183
     5  O   -0.236213
     6  O   -0.232736
     7  N   -0.054385
     8  N   -0.241536
     9  N    0.070725
    10  N   -0.312501
    11  C    0.105188
    12  C    0.265580
    13  C   -0.091447
    14  C   -0.113860
    15  C   -0.116501
    16  C    0.037753
    17  C   -0.146968
    18  C    0.164232
    19  C   -0.068124
    20  C   -0.089490
    21  C    0.052437
    22  C    0.156485
    23  C   -0.077723
    24  C    0.013538
    25  C    0.063380
    26  C   -0.163571
    27  C    0.031380
    28  C    0.022573
    29  C    0.011538
    30  C   -0.002390
    31  C    0.027579
    32  C    0.198908
    33  C   -0.060449
    34  C    0.148879
    35  C    0.066778
    36  C   -0.097594
    37  C    0.149080
    38  C    0.079926
    39  C   -0.117423
    40  C    0.163209
    41  C   -0.050667
    42  C   -0.018463
    43  C   -0.038085
    44  H   -0.029422
    45  H    0.003936
    46  H   -0.041955
    47  H    0.105899
    48  H    0.108997
    49  H   -0.043399
    50  H   -0.025659
    51  H    0.033970
    52  H    0.024981
    53  H    0.045558
    54  H    0.061362
    55  H    0.048040
    56  H    0.030735
    57  H    0.029150
    58  H    0.102251
    59  H    0.030958
    60  H    0.133608
    61  H    0.022498
    62  H    0.033881
    63  H    0.042876
    64  H    0.049914
    65  H    0.002818
    66  H   -0.011836
    67  H    0.004669
    68  H    0.039517
    69  H   -0.055255
    70  H    0.055599
    71  H    0.022494
    72  H    0.155835
    73  H    0.006591
    74  H    0.013899
    75  H    0.028628
    76  H    0.067234
    77  H    0.105429
    78  H    0.024535
    79  H    0.008598
 Sum of Mulliken charges =  -0.00000

 Dipole moment (field-independent basis, Debye):
    X=              0.9817    Y=              2.8927    Z=              3.1020  Tot=              4.3536
 Quadrupole moment (field-independent basis, Debye-Ang):
   XX=           -220.2224   YY=           -246.4469   ZZ=           -263.6796
   XY=            -14.6112   XZ=             32.6932   YZ=              4.2320

 Normal termination of Gaussian 16 at Fri Sep 13 15:40:25 2019.
