 Gaussian 16, Revision A.03,
 Gaussian 16:  ES64L-G16RevA.03 25-Dec-2016

 --------------------------
 # td=(NStates=1) B3LYP/SVP
 --------------------------

 --
 TD
 --
 Symbolic Z-matrix:
 Charge =  0 Multiplicity = 1

                         Standard orientation:
 ---------------------------------------------------------------------
 Center     Atomic      Atomic             Coordinates (Angstroms)
 Number     Number       Type             X           Y           Z
 ---------------------------------------------------------------------
      1          8           0       -3.005751   -1.637801   -2.809440
      2          8           0        3.044607    3.226360    2.917690
      3          8           0        3.602831    1.562309    4.398750
      4          8           0        7.728976   -1.399671   -0.481680
      5          8           0        6.875342   -2.748793   -2.205585
      6          8           0       -2.739230    1.798574    1.471417
      7          7           0       -0.180821   -2.404672    0.934728
      8          7           0       -2.659197   -1.194598   -0.570417
      9          7           0        1.120459    0.006102   -0.684054
     10          7           0       -0.976781    1.510736   -0.188999
     11          6           0       -3.348422   -1.282109    0.682677
     12          6           0       -2.583001   -2.204163    1.711368
     13          6           0       -1.072542   -1.967703    1.906746
     14          6           0       -0.557912   -1.143733    2.860719
     15          6           0        0.798321   -1.036809    2.581246
     16          6           0        0.988219   -1.875992    1.278548
     17          6           0       -4.686605   -1.936438    0.383060
     18          6           0        1.908275   -0.234370    3.291662
     19          6           0       -4.747616   -2.128127   -0.966102
     20          6           0        2.147763   -1.917408    0.398071
     21          6           0        2.123569   -0.945622   -0.615497
     22          6           0       -3.365729   -1.675279   -1.647635
     23          6           0        3.000408   -0.631811   -1.682150
     24          6           0       -1.354157   -0.329358    3.870887
     25          6           0       -5.710541   -2.028500    1.370234
     26          6           0        2.543181    0.350534   -2.521864
     27          6           0        1.865773    1.223839    2.822985
     28          6           0        1.310368    0.786568   -1.881245
     29          6           0        4.207504   -1.561469   -1.960823
     30          6           0       -5.772621   -2.707726   -1.870512
     31          6           0        5.454951   -1.112599   -1.135695
     32          6           0        3.020889    0.928714   -3.794365
     33          6           0        0.425827    1.869184   -2.065327
     34          6           0        2.944830    2.022145    3.512021
     35          6           0       -0.718372    2.190820   -1.342255
     36          6           0       -6.755352   -3.542724   -1.581098
     37          6           0        6.700310   -1.920328   -1.299844
     38          6           0       -1.514631    3.420978   -1.468815
     39          6           0       -2.407796    3.430838   -0.293523
     40          6           0       -2.096340    2.229614    0.474364
     41          6           0       -1.400519    4.415176   -2.499482
     42          6           0       -3.454016    4.338781    0.165336
     43          6           0       -2.313436    5.350274   -2.771231
     44          1           0       -3.436873   -0.264093    1.306510
     45          1           0       -2.533161   -3.330426    1.432811
     46          1           0       -3.176508   -2.323256    2.502955
     47          1           0       -0.366295   -2.711284   -0.146518
     48          1           0       -1.949221   -0.428625   -0.688590
     49          1           0        1.963423   -0.456472    4.457742
     50          1           0        2.612269   -0.875824    2.812937
     51          1           0        2.951079   -2.733189    0.802314
     52          1           0       -2.148815   -0.836631    4.404915
     53          1           0       -0.548184    0.285051    4.582143
     54          1           0       -1.889522    0.382899    3.291068
     55          1           0       -6.073165   -1.154142    2.189331
     56          1           0       -5.718859   -2.943753    1.923322
     57          1           0       -6.679495   -2.063973    0.726064
     58          1           0        2.031200    1.213468    1.809567
     59          1           0        0.954548    1.553268    3.047326
     60          1           0        0.313071    0.320076   -0.200248
     61          1           0        4.589578   -1.495391   -2.954839
     62          1           0        3.999150   -2.570334   -1.782841
     63          1           0       -5.719965   -2.370975   -2.784924
     64          1           0        5.152519   -0.910588    0.088806
     65          1           0        5.753692    0.001340   -1.487901
     66          1           0        4.020868    0.508669   -3.968426
     67          1           0        3.065095    2.066165   -3.887810
     68          1           0        2.315371    0.479006   -4.602215
     69          1           0        0.448876    2.507125   -2.920612
     70          1           0       -6.837728   -3.887922   -0.569815
     71          1           0       -7.433562   -3.500838   -2.472152
     72          1           0        3.625735    3.873082    3.403627
     73          1           0       -0.313267    4.404928   -3.125207
     74          1           0       -4.219583    4.392768   -0.624637
     75          1           0       -3.841439    3.911659    1.219271
     76          1           0       -3.037400    5.420220    0.321396
     77          1           0        8.564122   -2.031517   -0.871552
     78          1           0       -2.020088    6.006763   -3.371035
     79          1           0       -3.080770    5.480763   -2.105568
 ---------------------------------------------------------------------

 SCF Done:  E(RB3LYP) =  -1947.77475259     A.U. after   19 cycles

 Excitation energies and oscillator strengths:

 Excited State   1:      Singlet-A      0.6598 eV 1879.13 nm  f=0.0133  <S**2>=0.000
     155 ->156         0.70757
 This state for optimization and/or second-order correction.
 Total Energy, E(TD-HF/TD-DFT) =  -1947.75050557
 Copying the excited state density for this state as the 1-particle RhoCI density.

 The electronic state is 1-A.
 Alpha  occ. eigenvalues --  -19.19848 -19.18329 -19.14817 -19.13051 -19.12173
 Alpha  occ. eigenvalues --  -19.08955 -14.38287 -14.36739 -14.33002 -14.30984
 Alpha  occ. eigenvalues --  -10.33839 -10.31189 -10.28852 -10.27260 -10.26661
 Alpha  occ. eigenvalues --  -10.26142 -10.24621 -10.24339 -10.23939 -10.23050
 Alpha  occ. eigenvalues --  -10.22786 -10.22699 -10.22678 -10.22623 -10.22287
 Alpha  occ. eigenvalues --  -10.22040 -10.21364 -10.21348 -10.21246 -10.20738
 Alpha  occ. eigenvalues --  -10.20346 -10.20185 -10.19891 -10.19038 -10.18620
 Alpha  occ. eigenvalues --  -10.18604 -10.18235 -10.18206 -10.18067 -10.17845
 Alpha  occ. eigenvalues --  -10.17550 -10.17304 -10.16604  -1.08904  -1.07621
 Alpha  occ. eigenvalues --   -1.01319  -1.01077  -1.00800  -0.99780  -0.98816
 Alpha  occ. eigenvalues --   -0.96974  -0.91999  -0.91765  -0.83770  -0.82273
 Alpha  occ. eigenvalues --   -0.81492  -0.80717  -0.80166  -0.78716  -0.78424
 Alpha  occ. eigenvalues --   -0.77146  -0.76626  -0.75778  -0.74285  -0.73214
 Alpha  occ. eigenvalues --   -0.71234  -0.69673  -0.69174  -0.68999  -0.67514
 Alpha  occ. eigenvalues --   -0.66493  -0.65336  -0.63527  -0.61357  -0.60294
 Alpha  occ. eigenvalues --   -0.59053  -0.59045  -0.58533  -0.57251  -0.55640
 Alpha  occ. eigenvalues --   -0.55567  -0.55276  -0.54424  -0.52972  -0.52649
 Alpha  occ. eigenvalues --   -0.52411  -0.51923  -0.50351  -0.49759  -0.49361
 Alpha  occ. eigenvalues --   -0.49062  -0.48884  -0.48767  -0.48632  -0.47369
 Alpha  occ. eigenvalues --   -0.47054  -0.46875  -0.46399  -0.46080  -0.45953
 Alpha  occ. eigenvalues --   -0.45141  -0.44673  -0.44513  -0.44103  -0.44017
 Alpha  occ. eigenvalues --   -0.43539  -0.42938  -0.42831  -0.42676  -0.42080
 Alpha  occ. eigenvalues --   -0.41675  -0.41420  -0.41174  -0.41024  -0.40784
 Alpha  occ. eigenvalues --   -0.40439  -0.40298  -0.40067  -0.39932  -0.39687
 Alpha  occ. eigenvalues --   -0.38949  -0.38835  -0.38707  -0.38424  -0.38226
 Alpha  occ. eigenvalues --   -0.37641  -0.37399  -0.37168  -0.36628  -0.36279
 Alpha  occ. eigenvalues --   -0.36152  -0.35948  -0.35295  -0.35099  -0.34422
 Alpha  occ. eigenvalues --   -0.33757  -0.33127  -0.32608  -0.32253  -0.31970
 Alpha  occ. eigenvalues --   -0.30137  -0.29785  -0.29669  -0.29429  -0.28881
 Alpha  occ. eigenvalues --   -0.27760  -0.27393  -0.26107  -0.24774  -0.24261
 Alpha  occ. eigenvalues --   -0.23591  -0.23347  -0.22767  -0.22003  -0.17990
 Alpha virt. eigenvalues --   -0.13504  -0.08699  -0.03886  -0.03263  -0.02157
 Alpha virt. eigenvalues --    0.00831   0.01134   0.01661   0.02141   0.02719
 Alpha virt. eigenvalues --    0.02849   0.03729   0.04041   0.04435   0.04993

 Mulliken charges:
               1
     1  O   -0.230841
     2  O   -0.203211
     3  O   -0.201413
     4  O   -0.281777
     5  O   -0.247866
     6  O   -0.242626
     7  N   -0.075815
     8  N   -0.212924
     9  N   -0.110496
    10  N   -0.390812
    11  C    0.043956
    12  C    0.175787
    13  C   -0.078919
    14  C   -0.079914
    15  C   -0.166763
    16  C   -0.102149
    17  C   -0.097619
    18  C    0.058763
    19  C   -0.093028
    20  C   -0.165543
    21  C    0.202603
    22  C    0.152853
    23  C   -0.116172
    24  C    0.105685
    25  C   -0.007378
    26  C   -0.082594
    27  C    0.132964
    28  C    0.112288
    29  C    0.182816
    30  C    0.017582
    31  C   -0.150673
    32  C    0.070190
    33  C   -0.059766
    34  C    0.128530
    35  C    0.094428
    36  C    0.019620
    37  C    0.216647
    38  C    0.058783
    39  C   -0.178289
    40  C    0.226294
    41  C   -0.132206
    42  C    0.019889
    43  C    0.147282
    44  H    0.081985
    45  H   -0.024024
    46  H   -0.066930
    47  H    0.192477
    48  H    0.150658
    49  H    0.044187
    50  H   -0.014537
    51  H    0.076102
    52  H   -0.000243
    53  H    0.028624
    54  H    0.021458
    55  H    0.054869
    56  H    0.027464
    57  H    0.030892
    58  H   -0.000910
    59  H   -0.003843
    60  H    0.142481
    61  H    0.000173
    62  H    0.009327
    63  H   -0.057280
    64  H    0.076841
    65  H    0.071690
    66  H    0.017011
    67  H    0.054773
    68  H    0.060700
    69  H   -0.038003
    70  H    0.002203
    71  H    0.032099
    72  H    0.191297
    73  H    0.039023
    74  H    0.054300
    75  H    0.066728
    76  H    0.049312
    77  H    0.236104
    78  H   -0.044129
    79  H   -0.021048
 Sum of Mulliken charges =  -0.00000

 Dipole moment (field-independent basis, Debye):
    X=              2.5260    Y=              4.2072    Z=             -1.5046  Tot=              5.1328
 Quadrupole moment (field-independent basis, Debye-Ang):
   XX=           -238.0838   YY=           -234.6612   ZZ=           -267.4209
   XY=              1.5781   XZ=            -19.8284   YZ=            -14.0211

 Normal termination of Gaussian 16 at Wed Jul 31 02:12:50 2019.
