 Gaussian 16, Revision A.03,
 Gaussian 16:  ES64L-G16RevA.03 25-Dec-2016

 --------------------------
 # td=(NStates=1) B3LYP/SVP
 --------------------------

 --
 TD
 --
 Symbolic Z-matrix:
 Charge =  0 Multiplicity = 1

                         Standard orientation:
 ---------------------------------------------------------------------
 Center     Atomic      Atomic             Coordinates (Angstroms)
 Number     Number       Type             X           Y           Z
 ---------------------------------------------------------------------
      1          8           0        5.411467    0.035317   -3.331906
      2          8           0       -3.023798   -3.003991    3.455785
      3          8           0       -3.335553   -0.811426    3.062183
      4          8           0       -1.728787    7.179733    1.504998
      5          8           0       -0.692741    7.052004   -0.430474
      6          8           0       -1.637840   -3.941833   -0.024306
      7          7           0        2.264357    0.825081    0.555208
      8          7           0        4.364093   -0.504555   -1.295010
      9          7           0       -1.832141    0.712276   -0.439827
     10          7           0       -2.680579   -1.896096   -0.444748
     11          6           0        4.775615   -1.167909   -0.022111
     12          6           0        4.398093   -0.299097    1.230801
     13          6           0        2.983337   -0.008641    1.371745
     14          6           0        1.941232   -0.621652    2.185626
     15          6           0        0.740084   -0.077029    1.852460
     16          6           0        0.963761    0.990392    0.819470
     17          6           0        6.283579   -1.250982   -0.148098
     18          6           0       -0.576295   -0.185812    2.590513
     19          6           0        6.757668   -0.802552   -1.321678
     20          6           0        0.143557    1.896607    0.113914
     21          6           0       -1.133271    1.831852   -0.339495
     22          6           0        5.482328   -0.385105   -2.137665
     23          6           0       -1.937483    2.965758   -0.860180
     24          6           0        2.184829   -1.781317    3.189858
     25          6           0        6.986993   -1.857281    0.953159
     26          6           0       -3.179406    2.381542   -1.259371
     27          6           0       -1.078140   -1.710118    2.498579
     28          6           0       -3.066745    0.916257   -1.020513
     29          6           0       -1.557607    4.356944   -0.962487
     30          6           0        7.970039   -0.732247   -1.988348
     31          6           0       -1.842021    5.092504    0.396445
     32          6           0       -4.403297    2.917191   -1.857193
     33          6           0       -3.893936   -0.081794   -1.451560
     34          6           0       -2.541772   -1.735714    3.061414
     35          6           0       -3.738622   -1.473767   -1.179151
     36          6           0        9.221264   -0.716409   -1.470582
     37          6           0       -1.331145    6.520787    0.395153
     38          6           0       -4.546483   -2.661698   -1.573686
     39          6           0       -3.965629   -3.731005   -1.092704
     40          6           0       -2.620894   -3.318872   -0.484650
     41          6           0       -5.743950   -2.521739   -2.299048
     42          6           0       -4.116300   -5.202200   -1.236964
     43          6           0       -6.651641   -3.468090   -2.593736
     44          1           0        4.176253   -2.118145    0.023317
     45          1           0        4.867279    0.611988    1.267185
     46          1           0        4.725675   -0.792547    2.093357
     47          1           0        2.722743    1.282886   -0.239802
     48          1           0        3.373748   -0.480302   -1.664376
     49          1           0       -0.532550    0.066595    3.573351
     50          1           0       -1.310453    0.377642    1.909200
     51          1           0        0.705221    2.876501    0.208806
     52          1           0        3.152370   -2.030231    3.189792
     53          1           0        2.100052   -1.551148    4.251219
     54          1           0        1.733408   -2.717432    2.833033
     55          1           0        6.287767   -2.537719    1.537127
     56          1           0        7.335857   -1.097134    1.612334
     57          1           0        7.981671   -2.589063    0.587249
     58          1           0       -1.295378   -2.099857    1.443327
     59          1           0       -0.622188   -2.311654    3.290615
     60          1           0       -1.395607   -0.190350   -0.301846
     61          1           0       -2.077275    4.995070   -1.632778
     62          1           0       -0.422892    4.184429   -1.019990
     63          1           0        7.668104   -0.634993   -3.141806
     64          1           0       -1.487571    4.537176    1.176643
     65          1           0       -2.878290    5.047249    0.494242
     66          1           0       -4.436576    4.046184   -2.040104
     67          1           0       -5.215157    2.745289   -1.046469
     68          1           0       -4.690962    2.523127   -2.725648
     69          1           0       -5.077578    0.177126   -1.727802
     70          1           0        9.362121   -1.005997   -0.317773
     71          1           0       10.390373   -0.695371   -2.125653
     72          1           0       -3.920738   -2.939978    3.561341
     73          1           0       -5.888368   -1.481192   -2.615750
     74          1           0       -4.896861   -5.707100   -0.495315
     75          1           0       -3.998445   -5.513604   -2.241692
     76          1           0       -3.190901   -5.659143   -0.756248
     77          1           0       -1.292916    7.935209    1.451425
     78          1           0       -7.574669   -3.320039   -3.037483
     79          1           0       -6.575810   -4.441670   -2.052145
 ---------------------------------------------------------------------

 SCF Done:  E(RB3LYP) =  -1947.84190986     A.U. after   16 cycles

 Excitation energies and oscillator strengths:

 Excited State   1:      Singlet-A      1.9389 eV  639.46 nm  f=0.4114  <S**2>=0.000
     155 ->156         0.70037
     155 <-156        -0.11412
 This state for optimization and/or second-order correction.
 Total Energy, E(TD-HF/TD-DFT) =  -1947.77065712
 Copying the excited state density for this state as the 1-particle RhoCI density.

 The electronic state is 1-A.
 Alpha  occ. eigenvalues --  -19.17872 -19.14685 -19.14006 -19.11504 -19.10787
 Alpha  occ. eigenvalues --  -19.10724 -14.39228 -14.37230 -14.36669 -14.28851
 Alpha  occ. eigenvalues --  -10.32697 -10.30034 -10.29670 -10.27061 -10.26230
 Alpha  occ. eigenvalues --  -10.25346 -10.24652 -10.23751 -10.23084 -10.23011
 Alpha  occ. eigenvalues --  -10.22987 -10.22531 -10.22438 -10.22113 -10.21818
 Alpha  occ. eigenvalues --  -10.21759 -10.21226 -10.21142 -10.21112 -10.21054
 Alpha  occ. eigenvalues --  -10.20678 -10.20494 -10.20409 -10.19942 -10.19644
 Alpha  occ. eigenvalues --  -10.19506 -10.19353 -10.19183 -10.19175 -10.19071
 Alpha  occ. eigenvalues --  -10.18901 -10.18767 -10.18560  -1.13081  -1.06371
 Alpha  occ. eigenvalues --   -1.03715  -1.00455  -1.00338  -0.99994  -0.99498
 Alpha  occ. eigenvalues --   -0.97778  -0.93105  -0.91613  -0.83810  -0.83577
 Alpha  occ. eigenvalues --   -0.82743  -0.81371  -0.80942  -0.80478  -0.78737
 Alpha  occ. eigenvalues --   -0.77810  -0.76498  -0.75304  -0.74889  -0.73380
 Alpha  occ. eigenvalues --   -0.71489  -0.71344  -0.70471  -0.69649  -0.69330
 Alpha  occ. eigenvalues --   -0.66981  -0.66466  -0.64667  -0.61920  -0.61425
 Alpha  occ. eigenvalues --   -0.61099  -0.59221  -0.58528  -0.58183  -0.57816
 Alpha  occ. eigenvalues --   -0.56922  -0.56556  -0.55559  -0.54030  -0.53194
 Alpha  occ. eigenvalues --   -0.52246  -0.52094  -0.51438  -0.51016  -0.50679
 Alpha  occ. eigenvalues --   -0.49480  -0.49038  -0.48167  -0.47983  -0.47863
 Alpha  occ. eigenvalues --   -0.47433  -0.46698  -0.46422  -0.46074  -0.45588
 Alpha  occ. eigenvalues --   -0.45373  -0.45054  -0.44897  -0.44690  -0.44403
 Alpha  occ. eigenvalues --   -0.44248  -0.44007  -0.43748  -0.43127  -0.42697
 Alpha  occ. eigenvalues --   -0.42335  -0.42222  -0.41885  -0.41636  -0.41537
 Alpha  occ. eigenvalues --   -0.41266  -0.40953  -0.40456  -0.40300  -0.39763
 Alpha  occ. eigenvalues --   -0.39258  -0.38933  -0.38816  -0.38495  -0.38265
 Alpha  occ. eigenvalues --   -0.38094  -0.38034  -0.37914  -0.37419  -0.36895
 Alpha  occ. eigenvalues --   -0.36644  -0.36091  -0.35195  -0.34630  -0.34444
 Alpha  occ. eigenvalues --   -0.34022  -0.33786  -0.33217  -0.32672  -0.32365
 Alpha  occ. eigenvalues --   -0.31747  -0.30026  -0.29905  -0.28577  -0.27054
 Alpha  occ. eigenvalues --   -0.26702  -0.25918  -0.25729  -0.25610  -0.25081
 Alpha  occ. eigenvalues --   -0.24658  -0.24240  -0.23937  -0.22375  -0.18945
 Alpha virt. eigenvalues --   -0.11310  -0.06938  -0.06528  -0.01142   0.00110
 Alpha virt. eigenvalues --    0.00203   0.00694   0.01852   0.02767   0.03127
 Alpha virt. eigenvalues --    0.03336   0.04012   0.04259   0.04524   0.05104

 Mulliken charges:
               1
     1  O   -0.271558
     2  O   -0.199408
     3  O   -0.242603
     4  O   -0.116696
     5  O   -0.178696
     6  O   -0.228962
     7  N   -0.037879
     8  N   -0.253640
     9  N   -0.016111
    10  N   -0.313985
    11  C    0.085186
    12  C    0.303174
    13  C   -0.145769
    14  C   -0.146211
    15  C   -0.114942
    16  C   -0.005538
    17  C   -0.161756
    18  C    0.130519
    19  C   -0.001185
    20  C   -0.148098
    21  C    0.108555
    22  C    0.176248
    23  C   -0.095991
    24  C    0.188059
    25  C    0.025815
    26  C   -0.114742
    27  C   -0.032089
    28  C    0.127827
    29  C    0.108526
    30  C   -0.012416
    31  C    0.045370
    32  C    0.112018
    33  C   -0.143139
    34  C    0.109882
    35  C    0.048618
    36  C   -0.141102
    37  C    0.112048
    38  C    0.111461
    39  C   -0.230848
    40  C    0.182338
    41  C   -0.042941
    42  C    0.080232
    43  C    0.008011
    44  H    0.038139
    45  H   -0.034916
    46  H   -0.030409
    47  H    0.106995
    48  H    0.153709
    49  H   -0.018162
    50  H    0.028861
    51  H    0.018766
    52  H   -0.080692
    53  H    0.012500
    54  H    0.042768
    55  H    0.033656
    56  H    0.038617
    57  H    0.066465
    58  H    0.116461
    59  H    0.029865
    60  H    0.135740
    61  H    0.005831
    62  H    0.029458
    63  H    0.056857
    64  H    0.007078
    65  H    0.011403
    66  H    0.013026
    67  H    0.043691
    68  H    0.003678
    69  H    0.037158
    70  H    0.043979
    71  H    0.073727
    72  H    0.137769
    73  H   -0.022772
    74  H    0.043008
    75  H    0.026952
    76  H    0.017349
    77  H    0.114410
    78  H    0.004274
    79  H    0.027179
 Sum of Mulliken charges =  -0.00000

 Dipole moment (field-independent basis, Debye):
    X=              0.4286    Y=              1.8111    Z=              2.7345  Tot=              3.3078
 Quadrupole moment (field-independent basis, Debye-Ang):
   XX=           -222.9099   YY=           -250.4216   ZZ=           -266.5782
   XY=            -13.4862   XZ=             38.2477   YZ=              5.4268

 Normal termination of Gaussian 16 at Thu Sep 12 19:44:24 2019.
