 Gaussian 16, Revision A.03,
 Gaussian 16:  ES64L-G16RevA.03 25-Dec-2016

 --------------------------
 # td=(NStates=1) B3LYP/SVP
 --------------------------

 --
 TD
 --
 Symbolic Z-matrix:
 Charge =  0 Multiplicity = 1

                         Standard orientation:
 ---------------------------------------------------------------------
 Center     Atomic      Atomic             Coordinates (Angstroms)
 Number     Number       Type             X           Y           Z
 ---------------------------------------------------------------------
      1          8           0       -3.410011   -1.593678   -2.910003
      2          8           0        3.075037    3.263760    3.033702
      3          8           0        4.114834    1.397947    3.980500
      4          8           0        7.771788   -1.669841   -0.549281
      5          8           0        6.877265   -3.086547   -2.039658
      6          8           0       -2.728630    1.794679    1.262779
      7          7           0       -0.304679   -2.298074    1.122382
      8          7           0       -2.751700   -1.414710   -0.676783
      9          7           0        1.130529   -0.008518   -0.755652
     10          7           0       -1.014073    1.541057   -0.184704
     11          6           0       -3.414796   -1.325569    0.608583
     12          6           0       -2.654110   -2.204986    1.752036
     13          6           0       -1.270868   -1.796590    1.979203
     14          6           0       -0.693113   -0.944062    2.855528
     15          6           0        0.726525   -0.998152    2.621505
     16          6           0        0.925983   -1.765399    1.456291
     17          6           0       -4.814945   -1.850843    0.317621
     18          6           0        1.793883   -0.179735    3.318555
     19          6           0       -4.924114   -2.075297   -0.990244
     20          6           0        2.033737   -1.904570    0.407799
     21          6           0        2.090732   -0.983518   -0.654277
     22          6           0       -3.618538   -1.692068   -1.730421
     23          6           0        3.028063   -0.838207   -1.716783
     24          6           0       -1.392613   -0.235403    3.852387
     25          6           0       -5.899677   -1.841350    1.374418
     26          6           0        2.571343    0.267015   -2.450788
     27          6           0        1.908740    1.162883    2.798509
     28          6           0        1.327678    0.769103   -1.794902
     29          6           0        4.223950   -1.648349   -1.936476
     30          6           0       -6.033515   -2.541744   -1.835454
     31          6           0        5.504041   -1.238819   -1.164374
     32          6           0        3.155001    0.778267   -3.714725
     33          6           0        0.550053    1.847355   -2.067608
     34          6           0        3.204968    1.949979    3.309580
     35          6           0       -0.551218    2.191011   -1.218451
     36          6           0       -7.149318   -3.333599   -1.413530
     37          6           0        6.689709   -2.056061   -1.323789
     38          6           0       -1.285915    3.596370   -1.339303
     39          6           0       -2.302289    3.437998   -0.311006
     40          6           0       -1.996779    2.116978    0.363555
     41          6           0       -1.023285    4.592165   -2.371753
     42          6           0       -3.378138    4.374954    0.082058
     43          6           0       -1.730503    5.701198   -2.630114
     44          1           0       -3.201789   -0.340062    0.840550
     45          1           0       -2.955562   -3.141622    1.416420
     46          1           0       -2.979710   -1.957766    2.633521
     47          1           0       -0.571856   -2.720721    0.299105
     48          1           0       -2.055628   -0.611892   -0.884926
     49          1           0        1.598384   -0.328988    4.472759
     50          1           0        2.777370   -0.789051    2.959833
     51          1           0        2.755330   -2.772283    0.745477
     52          1           0       -2.373285   -0.780603    4.317889
     53          1           0       -0.760124    0.121310    4.574191
     54          1           0       -1.901938    0.471836    3.340330
     55          1           0       -5.807335   -0.917091    2.082841
     56          1           0       -5.633747   -2.760784    2.189420
     57          1           0       -6.947936   -1.968278    1.220161
     58          1           0        2.154580    1.111223    1.589335
     59          1           0        1.111931    1.952515    3.025113
     60          1           0        0.150726    0.172154   -0.106306
     61          1           0        4.298803   -1.616524   -3.027449
     62          1           0        3.873647   -2.820620   -1.662615
     63          1           0       -6.091072   -2.296810   -2.985643
     64          1           0        5.204085   -1.139690    0.027475
     65          1           0        5.692549   -0.134655   -1.460593
     66          1           0        3.964697    0.325996   -4.214217
     67          1           0        3.225939    1.727827   -3.669231
     68          1           0        2.380431    0.762855   -4.550436
     69          1           0        0.554063    2.516171   -2.843152
     70          1           0       -7.095115   -3.823498   -0.409495
     71          1           0       -7.534853   -3.527738   -2.219871
     72          1           0        3.942010    3.615873    3.549327
     73          1           0       -0.014128    4.468469   -2.823262
     74          1           0       -4.048560    4.501312   -0.743859
     75          1           0       -3.784154    3.851489    1.012263
     76          1           0       -2.915153    5.456008    0.193762
     77          1           0        8.603367   -2.262824   -0.661492
     78          1           0       -1.538901    6.192883   -3.590988
     79          1           0       -2.703867    5.888992   -1.999028
 ---------------------------------------------------------------------

 SCF Done:  E(RB3LYP) =  -1947.75904284     A.U. after   17 cycles

 Excitation energies and oscillator strengths:

 Excited State   1:      Singlet-A      1.2286 eV 1009.13 nm  f=0.0015  <S**2>=0.000
     155 ->156         0.70309
 This state for optimization and/or second-order correction.
 Total Energy, E(TD-HF/TD-DFT) =  -1947.71389176
 Copying the excited state density for this state as the 1-particle RhoCI density.

 The electronic state is 1-A.
 Alpha  occ. eigenvalues --  -19.20300 -19.18310 -19.13146 -19.12933 -19.11865
 Alpha  occ. eigenvalues --  -19.09754 -14.38278 -14.35463 -14.33793 -14.31810
 Alpha  occ. eigenvalues --  -10.33755 -10.32428 -10.27759 -10.27504 -10.26983
 Alpha  occ. eigenvalues --  -10.26534 -10.26171 -10.24966 -10.24371 -10.23537
 Alpha  occ. eigenvalues --  -10.23534 -10.22759 -10.21848 -10.21822 -10.21715
 Alpha  occ. eigenvalues --  -10.21520 -10.21440 -10.21385 -10.21159 -10.21026
 Alpha  occ. eigenvalues --  -10.21018 -10.20506 -10.20485 -10.20410 -10.20330
 Alpha  occ. eigenvalues --  -10.20171 -10.19264 -10.19134 -10.17686 -10.17654
 Alpha  occ. eigenvalues --  -10.17606 -10.16474 -10.16235  -1.08807  -1.07494
 Alpha  occ. eigenvalues --   -1.05063  -1.02214  -1.01453  -0.98923  -0.97741
 Alpha  occ. eigenvalues --   -0.96742  -0.96608  -0.92717  -0.84882  -0.82866
 Alpha  occ. eigenvalues --   -0.81162  -0.81023  -0.80239  -0.79852  -0.79585
 Alpha  occ. eigenvalues --   -0.76927  -0.76534  -0.76000  -0.74983  -0.74181
 Alpha  occ. eigenvalues --   -0.71492  -0.70243  -0.70134  -0.69678  -0.68108
 Alpha  occ. eigenvalues --   -0.66862  -0.65931  -0.64317  -0.61484  -0.61149
 Alpha  occ. eigenvalues --   -0.60605  -0.60089  -0.58677  -0.57792  -0.56294
 Alpha  occ. eigenvalues --   -0.55926  -0.55620  -0.54453  -0.54274  -0.53340
 Alpha  occ. eigenvalues --   -0.52050  -0.51856  -0.50655  -0.50368  -0.49414
 Alpha  occ. eigenvalues --   -0.49112  -0.48728  -0.48117  -0.47892  -0.47752
 Alpha  occ. eigenvalues --   -0.47530  -0.47236  -0.46921  -0.46659  -0.46402
 Alpha  occ. eigenvalues --   -0.45923  -0.45784  -0.45263  -0.44917  -0.44583
 Alpha  occ. eigenvalues --   -0.44010  -0.43783  -0.43315  -0.43135  -0.42784
 Alpha  occ. eigenvalues --   -0.42172  -0.41980  -0.41783  -0.41414  -0.41013
 Alpha  occ. eigenvalues --   -0.40827  -0.40708  -0.40496  -0.40297  -0.40216
 Alpha  occ. eigenvalues --   -0.39554  -0.39335  -0.39191  -0.38772  -0.38335
 Alpha  occ. eigenvalues --   -0.38209  -0.37496  -0.37425  -0.37001  -0.36590
 Alpha  occ. eigenvalues --   -0.36374  -0.35934  -0.35654  -0.35362  -0.35124
 Alpha  occ. eigenvalues --   -0.34340  -0.33755  -0.32320  -0.32193  -0.31911
 Alpha  occ. eigenvalues --   -0.31632  -0.30265  -0.30014  -0.29543  -0.28138
 Alpha  occ. eigenvalues --   -0.27582  -0.27102  -0.26104  -0.25377  -0.24629
 Alpha  occ. eigenvalues --   -0.23251  -0.22942  -0.22835  -0.22650  -0.19623
 Alpha virt. eigenvalues --   -0.12555  -0.07813  -0.04959  -0.03304  -0.02689
 Alpha virt. eigenvalues --   -0.00511   0.01184   0.01731   0.02037   0.02685
 Alpha virt. eigenvalues --    0.03096   0.03814   0.04464   0.04652   0.05018

 Mulliken charges:
               1
     1  O   -0.202071
     2  O   -0.210337
     3  O   -0.271006
     4  O   -0.249673
     5  O   -0.267937
     6  O   -0.207969
     7  N   -0.038066
     8  N   -0.259868
     9  N   -0.135787
    10  N   -0.163208
    11  C    0.088630
    12  C    0.354414
    13  C   -0.159693
    14  C   -0.101623
    15  C   -0.126418
    16  C   -0.066900
    17  C   -0.087146
    18  C    0.075796
    19  C   -0.061727
    20  C   -0.158379
    21  C    0.160573
    22  C    0.149166
    23  C   -0.072269
    24  C    0.167552
    25  C    0.019688
    26  C   -0.155546
    27  C   -0.049209
    28  C    0.204461
    29  C    0.053670
    30  C   -0.129763
    31  C   -0.039908
    32  C    0.220779
    33  C   -0.086923
    34  C    0.152528
    35  C    0.008571
    36  C    0.077395
    37  C    0.192828
    38  C    0.008655
    39  C   -0.229351
    40  C    0.104571
    41  C   -0.029445
    42  C    0.054674
    43  C   -0.044141
    44  H   -0.011485
    45  H   -0.043175
    46  H   -0.085594
    47  H    0.079806
    48  H    0.147371
    49  H    0.039948
    50  H    0.021287
    51  H    0.063851
    52  H    0.010343
    53  H   -0.025412
    54  H   -0.015758
    55  H    0.043707
    56  H    0.031551
    57  H    0.025719
    58  H    0.059239
    59  H    0.054474
    60  H    0.271073
    61  H    0.025795
    62  H    0.053683
    63  H    0.045605
    64  H    0.087861
    65  H    0.065931
    66  H    0.012187
    67  H   -0.049232
    68  H    0.018540
    69  H   -0.062558
    70  H    0.036830
    71  H   -0.053409
    72  H    0.215875
    73  H    0.009523
    74  H    0.034366
    75  H    0.056954
    76  H    0.048873
    77  H    0.222991
    78  H    0.035625
    79  H    0.038024
 Sum of Mulliken charges =  -0.00000

 Dipole moment (field-independent basis, Debye):
    X=              2.9640    Y=              3.5051    Z=             -0.9373  Tot=              4.6850
 Quadrupole moment (field-independent basis, Debye-Ang):
   XX=           -246.2914   YY=           -245.5694   ZZ=           -262.1530
   XY=              8.7957   XZ=            -18.0762   YZ=            -15.1614

 Normal termination of Gaussian 16 at Sat Jul 27 05:49:13 2019.
