 Gaussian 16, Revision A.03,
 Gaussian 16:  ES64L-G16RevA.03 25-Dec-2016

 --------------------------
 # td=(NStates=1) B3LYP/SVP
 --------------------------

 --
 TD
 --
 Symbolic Z-matrix:
 Charge =  0 Multiplicity = 1

                         Standard orientation:
 ---------------------------------------------------------------------
 Center     Atomic      Atomic             Coordinates (Angstroms)
 Number     Number       Type             X           Y           Z
 ---------------------------------------------------------------------
      1          8           0       -3.276248   -1.268882   -2.839351
      2          8           0        2.874488    3.137836    3.355060
      3          8           0        3.941334    1.198140    4.177082
      4          8           0        7.712107   -1.649695   -0.678911
      5          8           0        6.645949   -3.005771   -2.192110
      6          8           0       -2.637951    1.555418    1.482178
      7          7           0       -0.261612   -2.435727    0.874421
      8          7           0       -2.807397   -1.088385   -0.612300
      9          7           0        1.149978    0.129206   -0.712737
     10          7           0       -0.857271    1.399660   -0.129632
     11          6           0       -3.429807   -1.446290    0.717577
     12          6           0       -2.716945   -2.438220    1.527737
     13          6           0       -1.224803   -2.072885    1.694247
     14          6           0       -0.516406   -1.300336    2.782538
     15          6           0        0.838484   -1.170262    2.430084
     16          6           0        0.917247   -1.868322    1.196764
     17          6           0       -4.882869   -1.821457    0.273215
     18          6           0        1.929717   -0.468391    3.101787
     19          6           0       -4.955220   -1.943449   -1.100223
     20          6           0        2.119611   -1.881724    0.277924
     21          6           0        2.200506   -0.884364   -0.693054
     22          6           0       -3.628341   -1.326587   -1.649691
     23          6           0        3.044815   -0.598533   -1.838933
     24          6           0       -1.241150   -0.610425    3.720597
     25          6           0       -5.920316   -2.133939    1.263730
     26          6           0        2.520981    0.450392   -2.626801
     27          6           0        2.033327    0.961924    2.776364
     28          6           0        1.384593    0.937429   -1.754815
     29          6           0        4.301755   -1.328342   -2.066532
     30          6           0       -6.020125   -2.243667   -2.065215
     31          6           0        5.485047   -1.091540   -1.098750
     32          6           0        3.062969    1.211866   -3.689876
     33          6           0        0.626419    2.001289   -2.021459
     34          6           0        3.065254    1.749457    3.510339
     35          6           0       -0.512480    2.305675   -1.231421
     36          6           0       -6.998400   -3.118828   -1.737223
     37          6           0        6.639109   -2.052607   -1.420578
     38          6           0       -1.419246    3.499626   -1.225342
     39          6           0       -2.337417    3.303664   -0.066345
     40          6           0       -2.022738    1.984697    0.483706
     41          6           0       -1.180788    4.686181   -1.917736
     42          6           0       -3.437754    4.181750    0.336128
     43          6           0       -1.784822    5.902590   -2.009145
     44          1           0       -3.503490   -0.394093    1.065200
     45          1           0       -2.661643   -3.435237    0.837786
     46          1           0       -3.027312   -2.577239    2.521397
     47          1           0       -0.418744   -2.850057   -0.015678
     48          1           0       -2.038411   -0.421942   -0.598725
     49          1           0        1.810085   -0.557413    4.266370
     50          1           0        2.880035   -0.967224    2.963948
     51          1           0        2.791120   -2.747785    0.376383
     52          1           0       -1.940697   -1.376556    4.217019
     53          1           0       -0.653444   -0.221077    4.633029
     54          1           0       -1.840997    0.316720    3.353549
     55          1           0       -5.732802   -1.454379    2.171050
     56          1           0       -5.709128   -3.287623    1.591779
     57          1           0       -7.059779   -2.193876    0.895390
     58          1           0        2.167039    1.178172    1.708301
     59          1           0        1.132312    1.351460    2.754319
     60          1           0        0.259110    0.491779   -0.184889
     61          1           0        4.683004   -1.086267   -3.055892
     62          1           0        3.986505   -2.404022   -2.057667
     63          1           0       -5.808053   -1.699931   -3.052183
     64          1           0        4.940069   -1.223731   -0.089442
     65          1           0        5.989897   -0.001754   -1.269530
     66          1           0        3.858029    0.516021   -4.152822
     67          1           0        3.406680    2.253603   -3.304883
     68          1           0        2.221598    1.397279   -4.322433
     69          1           0        0.791858    2.906788   -2.726622
     70          1           0       -7.127700   -3.806182   -0.830613
     71          1           0       -7.875717   -3.359164   -2.510297
     72          1           0        3.658767    3.501935    3.890011
     73          1           0       -0.461911    4.303251   -2.703228
     74          1           0       -4.173934    4.467866   -0.518874
     75          1           0       -4.089235    3.671297    1.232463
     76          1           0       -3.170162    5.260249    0.375276
     77          1           0        8.392196   -2.156340   -1.042389
     78          1           0       -1.691228    6.485135   -2.819203
     79          1           0       -2.268501    6.092472   -1.245322
 ---------------------------------------------------------------------

 SCF Done:  E(RB3LYP) =  -1947.81319225     A.U. after   22 cycles

 Excitation energies and oscillator strengths:

 Excited State   1:      Singlet-A      0.6678 eV 1856.72 nm  f=0.0005  <S**2>=0.000
     155 ->156         0.70279
 This state for optimization and/or second-order correction.
 Total Energy, E(TD-HF/TD-DFT) =  -1947.78865255
 Copying the excited state density for this state as the 1-particle RhoCI density.

 The electronic state is 1-A.
 Alpha  occ. eigenvalues --  -19.19521 -19.18445 -19.15007 -19.13097 -19.12484
 Alpha  occ. eigenvalues --  -19.07173 -14.37628 -14.36017 -14.32691 -14.32295
 Alpha  occ. eigenvalues --  -10.34161 -10.32103 -10.29082 -10.26467 -10.26359
 Alpha  occ. eigenvalues --  -10.26098 -10.25787 -10.23972 -10.23616 -10.22906
 Alpha  occ. eigenvalues --  -10.22787 -10.22750 -10.22711 -10.22299 -10.22115
 Alpha  occ. eigenvalues --  -10.22035 -10.21589 -10.21491 -10.21364 -10.21280
 Alpha  occ. eigenvalues --  -10.21082 -10.20560 -10.20421 -10.20343 -10.19846
 Alpha  occ. eigenvalues --  -10.19757 -10.19165 -10.18644 -10.18505 -10.18067
 Alpha  occ. eigenvalues --  -10.17004 -10.16967 -10.16229  -1.11504  -1.07094
 Alpha  occ. eigenvalues --   -1.02305  -1.02008  -0.99636  -0.99001  -0.98772
 Alpha  occ. eigenvalues --   -0.98223  -0.90957  -0.90650  -0.84425  -0.82719
 Alpha  occ. eigenvalues --   -0.82044  -0.81640  -0.79902  -0.79394  -0.78609
 Alpha  occ. eigenvalues --   -0.77400  -0.77019  -0.76205  -0.74561  -0.73606
 Alpha  occ. eigenvalues --   -0.71996  -0.70842  -0.69339  -0.68394  -0.67348
 Alpha  occ. eigenvalues --   -0.66828  -0.66094  -0.63800  -0.62332  -0.61008
 Alpha  occ. eigenvalues --   -0.59537  -0.58930  -0.58336  -0.56954  -0.56734
 Alpha  occ. eigenvalues --   -0.56232  -0.55098  -0.55056  -0.53210  -0.52696
 Alpha  occ. eigenvalues --   -0.51726  -0.51043  -0.50453  -0.50379  -0.50261
 Alpha  occ. eigenvalues --   -0.50076  -0.49852  -0.48821  -0.48387  -0.48128
 Alpha  occ. eigenvalues --   -0.47790  -0.46964  -0.46809  -0.46546  -0.45926
 Alpha  occ. eigenvalues --   -0.45646  -0.45349  -0.44571  -0.44350  -0.43926
 Alpha  occ. eigenvalues --   -0.43708  -0.43423  -0.42905  -0.42291  -0.42175
 Alpha  occ. eigenvalues --   -0.41965  -0.41616  -0.41544  -0.41461  -0.41429
 Alpha  occ. eigenvalues --   -0.41005  -0.40698  -0.40467  -0.40103  -0.40013
 Alpha  occ. eigenvalues --   -0.39536  -0.38934  -0.38667  -0.38247  -0.38100
 Alpha  occ. eigenvalues --   -0.37959  -0.37699  -0.37103  -0.36883  -0.36333
 Alpha  occ. eigenvalues --   -0.36136  -0.35624  -0.35197  -0.34854  -0.34465
 Alpha  occ. eigenvalues --   -0.34172  -0.32809  -0.32312  -0.32200  -0.31699
 Alpha  occ. eigenvalues --   -0.30798  -0.30325  -0.30166  -0.29502  -0.28673
 Alpha  occ. eigenvalues --   -0.28286  -0.26419  -0.26083  -0.23788  -0.23389
 Alpha  occ. eigenvalues --   -0.22977  -0.22824  -0.22610  -0.21876  -0.18145
 Alpha virt. eigenvalues --   -0.13323  -0.08890  -0.03689  -0.03386  -0.02420
 Alpha virt. eigenvalues --   -0.00188   0.02051   0.02410   0.02688   0.03392
 Alpha virt. eigenvalues --    0.04002   0.04190   0.04366   0.04834   0.05280

 Mulliken charges:
               1
     1  O   -0.275698
     2  O   -0.240517
     3  O   -0.239722
     4  O   -0.147228
     5  O   -0.225737
     6  O   -0.239798
     7  N    0.061365
     8  N   -0.220942
     9  N   -0.141113
    10  N   -0.413292
    11  C    0.091104
    12  C    0.290041
    13  C   -0.198935
    14  C   -0.102838
    15  C   -0.054170
    16  C   -0.089681
    17  C   -0.183421
    18  C    0.128517
    19  C   -0.087512
    20  C   -0.137483
    21  C    0.203302
    22  C    0.133473
    23  C   -0.076010
    24  C   -0.006977
    25  C   -0.011370
    26  C   -0.119192
    27  C    0.092191
    28  C    0.131333
    29  C    0.083804
    30  C    0.024153
    31  C   -0.074167
    32  C    0.090979
    33  C   -0.126890
    34  C    0.171441
    35  C    0.061844
    36  C   -0.100025
    37  C    0.161948
    38  C    0.053250
    39  C   -0.128977
    40  C    0.232317
    41  C   -0.086079
    42  C    0.007489
    43  C    0.161592
    44  H    0.045411
    45  H    0.003843
    46  H   -0.015408
    47  H    0.103210
    48  H    0.136807
    49  H    0.014896
    50  H   -0.014731
    51  H    0.026495
    52  H   -0.001861
    53  H   -0.007868
    54  H    0.067218
    55  H    0.041114
    56  H    0.049297
    57  H    0.055626
    58  H    0.011585
    59  H   -0.034761
    60  H    0.208210
    61  H   -0.006681
    62  H    0.036988
    63  H    0.045505
    64  H    0.075580
    65  H    0.068406
    66  H    0.044967
    67  H    0.059499
    68  H    0.029129
    69  H    0.014450
    70  H    0.044395
    71  H    0.032910
    72  H    0.195516
    73  H   -0.006149
    74  H    0.037670
    75  H    0.079667
    76  H    0.038365
    77  H    0.149489
    78  H    0.002606
    79  H   -0.083762
 Sum of Mulliken charges =  -0.00000

 Dipole moment (field-independent basis, Debye):
    X=              3.2192    Y=              3.6576    Z=             -1.2343  Tot=              5.0264
 Quadrupole moment (field-independent basis, Debye-Ang):
   XX=           -235.9427   YY=           -232.4350   ZZ=           -270.7654
   XY=              3.6125   XZ=            -23.5240   YZ=            -15.4734

 Normal termination of Gaussian 16 at Wed Jul 24 02:50:53 2019.
