 Gaussian 16, Revision A.03,
 Gaussian 16:  ES64L-G16RevA.03 25-Dec-2016

 --------------------------
 # td=(NStates=1) B3LYP/SVP
 --------------------------

 --
 TD
 --
 Symbolic Z-matrix:
 Charge =  0 Multiplicity = 1

                         Standard orientation:
 ---------------------------------------------------------------------
 Center     Atomic      Atomic             Coordinates (Angstroms)
 Number     Number       Type             X           Y           Z
 ---------------------------------------------------------------------
      1          8           0        5.263521   -0.157654   -3.293332
      2          8           0       -2.999562   -2.882019    3.225453
      3          8           0       -3.506629   -0.742162    2.872356
      4          8           0       -1.229570    7.138905    1.470607
      5          8           0       -0.336323    6.929098   -0.604068
      6          8           0       -1.771403   -3.953539   -0.111692
      7          7           0        2.363517    0.877617    0.641413
      8          7           0        4.298012   -0.596789   -1.246948
      9          7           0       -1.888075    0.704717   -0.272900
     10          7           0       -2.581404   -1.866032   -0.482136
     11          6           0        4.684222   -1.129113    0.045611
     12          6           0        4.411750   -0.351645    1.283703
     13          6           0        2.963667   -0.068220    1.519798
     14          6           0        1.899782   -0.652929    2.239535
     15          6           0        0.777651   -0.000049    1.960013
     16          6           0        1.010229    0.961125    0.914428
     17          6           0        6.249539   -1.464137   -0.213770
     18          6           0       -0.648556   -0.141477    2.437500
     19          6           0        6.590436   -1.088460   -1.436399
     20          6           0        0.151681    1.863225    0.107148
     21          6           0       -1.086632    1.827712   -0.321400
     22          6           0        5.343501   -0.503489   -2.141529
     23          6           0       -1.921342    2.903830   -0.889329
     24          6           0        2.164087   -1.691409    3.358691
     25          6           0        7.118611   -1.994205    0.919637
     26          6           0       -3.170656    2.359213   -1.197579
     27          6           0       -1.340381   -1.604959    2.351914
     28          6           0       -3.065363    0.992424   -0.902195
     29          6           0       -1.457899    4.298622   -0.991628
     30          6           0        7.897665   -1.009345   -2.133666
     31          6           0       -1.675268    5.023559    0.348702
     32          6           0       -4.218120    3.108301   -1.906064
     33          6           0       -4.004305   -0.068146   -1.223325
     34          6           0       -2.627424   -1.629163    2.953689
     35          6           0       -3.754140   -1.391776   -0.991433
     36          6           0        9.086298   -0.958123   -1.477896
     37          6           0       -0.991603    6.490090    0.306348
     38          6           0       -4.654244   -2.460404   -1.353388
     39          6           0       -3.856849   -3.738631   -1.131350
     40          6           0       -2.626339   -3.260733   -0.529849
     41          6           0       -5.972280   -2.263880   -1.882207
     42          6           0       -4.329057   -5.186998   -1.281991
     43          6           0       -6.752059   -3.258146   -2.480976
     44          1           0        4.273819   -2.003814    0.256179
     45          1           0        4.895442    0.798154    1.132680
     46          1           0        4.898972   -0.731982    2.187372
     47          1           0        2.988506    1.398481    0.018585
     48          1           0        3.310900   -0.272905   -1.337296
     49          1           0       -0.691253    0.079169    3.697227
     50          1           0       -1.448133    0.609813    2.038837
     51          1           0        0.663575    2.736412   -0.348143
     52          1           0        3.262816   -1.769690    3.347742
     53          1           0        1.779168   -1.327193    4.393965
     54          1           0        1.602284   -2.645446    3.051677
     55          1           0        6.807682   -2.894745    1.513194
     56          1           0        7.418432   -1.210080    1.633124
     57          1           0        8.160563   -2.352095    0.465953
     58          1           0       -1.239160   -2.255360    1.435656
     59          1           0       -0.592286   -2.356475    2.998411
     60          1           0       -1.722321   -0.410165   -0.296865
     61          1           0       -1.807241    4.927878   -1.839116
     62          1           0       -0.338528    4.236513   -1.289760
     63          1           0        7.935962   -0.842912   -3.209891
     64          1           0       -1.198369    4.573892    1.197681
     65          1           0       -2.720398    5.295261    0.502938
     66          1           0       -3.938273    4.159981   -2.377553
     67          1           0       -5.085014    3.318960   -1.242169
     68          1           0       -4.527703    2.724468   -2.898190
     69          1           0       -4.895581    0.284558   -1.863844
     70          1           0        9.124222   -0.998631   -0.427959
     71          1           0       10.007550   -0.659785   -2.174415
     72          1           0       -4.036284   -2.937748    3.384336
     73          1           0       -6.290272   -1.275898   -2.191856
     74          1           0       -5.388523   -5.480366   -0.832909
     75          1           0       -4.179245   -5.466792   -2.472957
     76          1           0       -3.520451   -5.641824   -0.808066
     77          1           0       -1.007515    8.069254    1.423138
     78          1           0       -7.733302   -3.207909   -2.968524
     79          1           0       -6.654271   -4.444592   -2.614224
 ---------------------------------------------------------------------

 SCF Done:  E(RB3LYP) =  -1947.86751448     A.U. after   19 cycles

 Excitation energies and oscillator strengths:

 Excited State   1:      Singlet-A      1.8508 eV  669.91 nm  f=0.1629  <S**2>=0.000
     154 ->156         0.42611
     155 ->156         0.56166
 This state for optimization and/or second-order correction.
 Total Energy, E(TD-HF/TD-DFT) =  -1947.79950043
 Copying the excited state density for this state as the 1-particle RhoCI density.

 The electronic state is 1-A.
 Alpha  occ. eigenvalues --  -19.19228 -19.16521 -19.14024 -19.10325 -19.09983
 Alpha  occ. eigenvalues --  -19.09383 -14.39426 -14.36141 -14.35459 -14.27982
 Alpha  occ. eigenvalues --  -10.33264 -10.29740 -10.29159 -10.25228 -10.24441
 Alpha  occ. eigenvalues --  -10.24286 -10.24195 -10.23826 -10.23790 -10.23563
 Alpha  occ. eigenvalues --  -10.22438 -10.22291 -10.22132 -10.22098 -10.22043
 Alpha  occ. eigenvalues --  -10.21916 -10.21817 -10.21357 -10.21212 -10.21101
 Alpha  occ. eigenvalues --  -10.20887 -10.20766 -10.20727 -10.20716 -10.20595
 Alpha  occ. eigenvalues --  -10.20304 -10.20240 -10.20119 -10.20031 -10.19694
 Alpha  occ. eigenvalues --  -10.19621 -10.19557 -10.19265  -1.10454  -1.06790
 Alpha  occ. eigenvalues --   -1.03139  -1.03101  -1.02078  -0.98638  -0.98089
 Alpha  occ. eigenvalues --   -0.96014  -0.94067  -0.90814  -0.83079  -0.82268
 Alpha  occ. eigenvalues --   -0.82135  -0.81775  -0.80437  -0.78633  -0.77786
 Alpha  occ. eigenvalues --   -0.76553  -0.75760  -0.75457  -0.73666  -0.72578
 Alpha  occ. eigenvalues --   -0.71449  -0.71143  -0.69224  -0.68689  -0.68268
 Alpha  occ. eigenvalues --   -0.66898  -0.65755  -0.63817  -0.61671  -0.60990
 Alpha  occ. eigenvalues --   -0.60439  -0.59091  -0.58809  -0.57887  -0.56863
 Alpha  occ. eigenvalues --   -0.56162  -0.55511  -0.54428  -0.53892  -0.52669
 Alpha  occ. eigenvalues --   -0.52456  -0.51756  -0.51043  -0.50169  -0.49494
 Alpha  occ. eigenvalues --   -0.48909  -0.48747  -0.48589  -0.48045  -0.47501
 Alpha  occ. eigenvalues --   -0.47091  -0.46162  -0.46049  -0.45837  -0.45311
 Alpha  occ. eigenvalues --   -0.44867  -0.44468  -0.44111  -0.43761  -0.43465
 Alpha  occ. eigenvalues --   -0.43179  -0.42926  -0.42705  -0.42604  -0.42142
 Alpha  occ. eigenvalues --   -0.42063  -0.41968  -0.41606  -0.41372  -0.41040
 Alpha  occ. eigenvalues --   -0.40898  -0.40661  -0.40394  -0.39949  -0.39812
 Alpha  occ. eigenvalues --   -0.39127  -0.39046  -0.38839  -0.38645  -0.38272
 Alpha  occ. eigenvalues --   -0.37985  -0.37873  -0.37128  -0.36616  -0.35942
 Alpha  occ. eigenvalues --   -0.35831  -0.35394  -0.34962  -0.34649  -0.34484
 Alpha  occ. eigenvalues --   -0.33777  -0.33440  -0.32776  -0.32135  -0.31009
 Alpha  occ. eigenvalues --   -0.30586  -0.29221  -0.29021  -0.28437  -0.27121
 Alpha  occ. eigenvalues --   -0.26964  -0.26396  -0.25936  -0.25820  -0.25472
 Alpha  occ. eigenvalues --   -0.24836  -0.23656  -0.23153  -0.20441  -0.19231
 Alpha virt. eigenvalues --   -0.11240  -0.07255  -0.05266  -0.01244  -0.00079
 Alpha virt. eigenvalues --   -0.00055   0.00076   0.01043   0.02547   0.03297
 Alpha virt. eigenvalues --    0.03589   0.04047   0.04590   0.04977   0.05113

 Mulliken charges:
               1
     1  O   -0.201166
     2  O   -0.213410
     3  O   -0.286681
     4  O   -0.182551
     5  O   -0.209380
     6  O   -0.178904
     7  N   -0.126689
     8  N   -0.220201
     9  N   -0.122829
    10  N   -0.333754
    11  C    0.219682
    12  C    0.071165
    13  C   -0.074881
    14  C   -0.146998
    15  C    0.010227
    16  C    0.078166
    17  C   -0.152959
    18  C   -0.053862
    19  C   -0.040985
    20  C   -0.072061
    21  C    0.089780
    22  C    0.164996
    23  C   -0.038172
    24  C    0.065537
    25  C    0.002130
    26  C   -0.077912
    27  C   -0.050624
    28  C    0.057949
    29  C    0.043888
    30  C   -0.012148
    31  C    0.024044
    32  C    0.030448
    33  C   -0.140884
    34  C    0.170166
    35  C    0.172715
    36  C   -0.034535
    37  C    0.116483
    38  C    0.017347
    39  C   -0.195146
    40  C    0.143045
    41  C    0.010363
    42  C    0.059757
    43  C   -0.105918
    44  H   -0.036271
    45  H    0.014842
    46  H    0.017555
    47  H    0.122567
    48  H    0.134069
    49  H    0.016891
    50  H    0.068880
    51  H   -0.018892
    52  H   -0.000779
    53  H    0.047373
    54  H    0.059078
    55  H    0.036986
    56  H    0.042831
    57  H    0.043914
    58  H    0.093782
    59  H    0.019456
    60  H    0.205319
    61  H    0.020912
    62  H    0.027470
    63  H    0.013875
    64  H    0.043921
    65  H    0.041299
    66  H    0.018736
    67  H    0.038333
    68  H    0.033914
    69  H   -0.002353
    70  H    0.003106
    71  H    0.051837
    72  H    0.215698
    73  H    0.001635
    74  H    0.063070
    75  H    0.048067
    76  H    0.005689
    77  H    0.178618
    78  H    0.018510
    79  H    0.034828
 Sum of Mulliken charges =  -0.00000

 Dipole moment (field-independent basis, Debye):
    X=              0.8593    Y=              3.8469    Z=              2.7631  Tot=              4.8137
 Quadrupole moment (field-independent basis, Debye-Ang):
   XX=           -222.0525   YY=           -238.6902   ZZ=           -262.3886
   XY=             -9.7900   XZ=             35.1309   YZ=              1.4513

 Normal termination of Gaussian 16 at Mon Sep 30 04:55:30 2019.
