 Gaussian 16, Revision A.03,
 Gaussian 16:  ES64L-G16RevA.03 25-Dec-2016

 --------------------------
 # td=(NStates=1) B3LYP/SVP
 --------------------------

 --
 TD
 --
 Symbolic Z-matrix:
 Charge =  0 Multiplicity = 1

                         Standard orientation:
 ---------------------------------------------------------------------
 Center     Atomic      Atomic             Coordinates (Angstroms)
 Number     Number       Type             X           Y           Z
 ---------------------------------------------------------------------
      1          8           0       -3.109206   -1.572302   -2.717421
      2          8           0        3.239347    3.281404    2.716867
      3          8           0        3.511538    1.894327    4.526973
      4          8           0        7.661596   -1.555699   -0.610952
      5          8           0        6.706891   -3.064275   -1.968215
      6          8           0       -2.783528    1.674791    1.282690
      7          7           0       -0.187160   -2.423116    1.074893
      8          7           0       -2.682253   -1.177250   -0.574836
      9          7           0        1.068771    0.008169   -0.694027
     10          7           0       -1.045177    1.403360   -0.242047
     11          6           0       -3.267815   -1.330946    0.746820
     12          6           0       -2.568912   -2.267648    1.765430
     13          6           0       -1.152191   -1.952155    1.998332
     14          6           0       -0.500794   -1.015055    2.969386
     15          6           0        0.807979   -0.950022    2.595845
     16          6           0        1.024687   -1.841033    1.367291
     17          6           0       -4.650938   -1.892382    0.328068
     18          6           0        2.020219   -0.234365    3.101306
     19          6           0       -4.724396   -2.136417   -0.969499
     20          6           0        2.238491   -1.869201    0.495542
     21          6           0        2.110005   -0.939440   -0.618724
     22          6           0       -3.456279   -1.740307   -1.563544
     23          6           0        2.951106   -0.707083   -1.762096
     24          6           0       -1.285349   -0.323187    3.965879
     25          6           0       -5.747561   -1.985159    1.445616
     26          6           0        2.471896    0.359558   -2.488614
     27          6           0        2.092357    1.336913    2.490214
     28          6           0        1.283870    0.794186   -1.892623
     29          6           0        4.133744   -1.558457   -2.026834
     30          6           0       -5.777284   -2.709005   -1.821915
     31          6           0        5.434296   -1.131308   -1.150629
     32          6           0        2.997546    0.853479   -3.710346
     33          6           0        0.452220    1.814366   -2.133892
     34          6           0        2.982852    2.160440    3.432222
     35          6           0       -0.743282    2.183753   -1.394532
     36          6           0       -6.868256   -3.366932   -1.446184
     37          6           0        6.558640   -2.048788   -1.287253
     38          6           0       -1.516360    3.414316   -1.478926
     39          6           0       -2.465086    3.292275   -0.381039
     40          6           0       -2.019117    2.089432    0.299654
     41          6           0       -1.417531    4.391563   -2.474444
     42          6           0       -3.561376    4.305573    0.003693
     43          6           0       -1.930177    5.627401   -2.452911
     44          1           0       -3.427056   -0.323831    1.130400
     45          1           0       -2.513702   -3.404800    1.479039
     46          1           0       -2.972173   -2.055517    2.661016
     47          1           0       -0.266697   -2.944799    0.097567
     48          1           0       -1.748177   -0.719770   -0.676766
     49          1           0        1.803635   -0.105351    4.301961
     50          1           0        2.959937   -0.583095    2.970539
     51          1           0        2.922076   -2.750169    0.497558
     52          1           0       -2.083308   -0.795094    4.490998
     53          1           0       -0.581153   -0.079077    4.900000
     54          1           0       -1.606536    0.483099    3.406118
     55          1           0       -5.650022   -0.857115    2.023289
     56          1           0       -5.496518   -2.895602    2.201224
     57          1           0       -6.688151   -2.065724    0.984928
     58          1           0        2.295001    1.330735    1.441388
     59          1           0        1.158557    1.969245    2.612124
     60          1           0        0.223975    0.232949   -0.185828
     61          1           0        4.400373   -1.603124   -3.150446
     62          1           0        3.806583   -2.723776   -2.000519
     63          1           0       -5.490917   -2.703874   -2.865817
     64          1           0        5.009985   -1.050060   -0.114239
     65          1           0        5.764842   -0.174904   -1.654220
     66          1           0        3.869428    0.438983   -4.069356
     67          1           0        3.443966    2.018169   -3.673544
     68          1           0        2.384961    1.119803   -4.598155
     69          1           0        0.561886    2.449106   -3.058974
     70          1           0       -6.964110   -3.658853   -0.423340
     71          1           0       -7.670596   -3.693699   -2.262116
     72          1           0        3.845011    3.765461    3.386792
     73          1           0       -0.928515    3.927261   -3.319415
     74          1           0       -4.273024    4.521712   -0.814799
     75          1           0       -4.145253    3.683573    0.795891
     76          1           0       -3.260738    5.350240    0.440707
     77          1           0        8.288923   -2.181612   -0.681737
     78          1           0       -1.852458    6.417441   -3.183818
     79          1           0       -2.455617    5.971781   -1.583597
 ---------------------------------------------------------------------

 SCF Done:  E(RB3LYP) =  -1947.81499009     A.U. after   22 cycles

 Excitation energies and oscillator strengths:

 Excited State   1:      Singlet-A      0.2569 eV 4826.02 nm  f=0.0027  <S**2>=0.000
     155 ->156         0.71257
     155 <-156        -0.11548
 This state for optimization and/or second-order correction.
 Total Energy, E(TD-HF/TD-DFT) =  -1947.80554890
 Copying the excited state density for this state as the 1-particle RhoCI density.

 The electronic state is 1-A.
 Alpha  occ. eigenvalues --  -19.18527 -19.18017 -19.14404 -19.12938 -19.11200
 Alpha  occ. eigenvalues --  -19.07134 -14.38555 -14.37057 -14.31829 -14.31727
 Alpha  occ. eigenvalues --  -10.33869 -10.32049 -10.27517 -10.26844 -10.26721
 Alpha  occ. eigenvalues --  -10.26416 -10.25710 -10.24140 -10.24005 -10.23800
 Alpha  occ. eigenvalues --  -10.23230 -10.22943 -10.22412 -10.22153 -10.22029
 Alpha  occ. eigenvalues --  -10.21831 -10.21400 -10.21329 -10.21280 -10.21177
 Alpha  occ. eigenvalues --  -10.21169 -10.20786 -10.20574 -10.20347 -10.20172
 Alpha  occ. eigenvalues --  -10.19730 -10.19162 -10.18648 -10.18496 -10.18064
 Alpha  occ. eigenvalues --  -10.18058 -10.18011 -10.17429  -1.10867  -1.08704
 Alpha  occ. eigenvalues --   -1.01206  -1.00394  -1.00067  -0.99041  -0.98343
 Alpha  occ. eigenvalues --   -0.94966  -0.92790  -0.90863  -0.84704  -0.82940
 Alpha  occ. eigenvalues --   -0.82583  -0.80205  -0.79868  -0.79730  -0.78355
 Alpha  occ. eigenvalues --   -0.76168  -0.75733  -0.75431  -0.74444  -0.73738
 Alpha  occ. eigenvalues --   -0.71625  -0.70820  -0.70507  -0.69605  -0.67258
 Alpha  occ. eigenvalues --   -0.66185  -0.65205  -0.63829  -0.62477  -0.61457
 Alpha  occ. eigenvalues --   -0.59478  -0.59113  -0.57573  -0.57364  -0.57026
 Alpha  occ. eigenvalues --   -0.56090  -0.55613  -0.55005  -0.53624  -0.52655
 Alpha  occ. eigenvalues --   -0.52508  -0.51611  -0.51166  -0.50336  -0.49635
 Alpha  occ. eigenvalues --   -0.49113  -0.48850  -0.48428  -0.48064  -0.47992
 Alpha  occ. eigenvalues --   -0.47290  -0.46875  -0.46441  -0.46274  -0.46126
 Alpha  occ. eigenvalues --   -0.45820  -0.45412  -0.45250  -0.44344  -0.44168
 Alpha  occ. eigenvalues --   -0.43836  -0.43060  -0.42582  -0.42300  -0.42140
 Alpha  occ. eigenvalues --   -0.41958  -0.41863  -0.41290  -0.40876  -0.40855
 Alpha  occ. eigenvalues --   -0.40487  -0.40165  -0.40067  -0.39736  -0.39318
 Alpha  occ. eigenvalues --   -0.39076  -0.38964  -0.38618  -0.38536  -0.38177
 Alpha  occ. eigenvalues --   -0.38137  -0.37607  -0.36921  -0.36823  -0.36239
 Alpha  occ. eigenvalues --   -0.35635  -0.35502  -0.35136  -0.34591  -0.34090
 Alpha  occ. eigenvalues --   -0.33594  -0.33315  -0.32865  -0.32314  -0.31908
 Alpha  occ. eigenvalues --   -0.31257  -0.30617  -0.30303  -0.29680  -0.28727
 Alpha  occ. eigenvalues --   -0.28115  -0.27227  -0.25337  -0.23824  -0.23520
 Alpha  occ. eigenvalues --   -0.23282  -0.23028  -0.22771  -0.22372  -0.17685
 Alpha virt. eigenvalues --   -0.14419  -0.09076  -0.03872  -0.03107  -0.02595
 Alpha virt. eigenvalues --   -0.00031   0.00573   0.01880   0.02917   0.02981
 Alpha virt. eigenvalues --    0.03461   0.04026   0.04284   0.04787   0.04888

 Mulliken charges:
               1
     1  O   -0.248518
     2  O   -0.204493
     3  O   -0.258032
     4  O   -0.157896
     5  O   -0.232344
     6  O   -0.303156
     7  N   -0.119301
     8  N   -0.220402
     9  N   -0.157349
    10  N   -0.263445
    11  C    0.109013
    12  C    0.280847
    13  C   -0.159414
    14  C   -0.069058
    15  C   -0.080269
    16  C   -0.051466
    17  C   -0.225866
    18  C    0.089401
    19  C   -0.015069
    20  C   -0.064953
    21  C    0.102740
    22  C    0.130441
    23  C   -0.050721
    24  C    0.096874
    25  C    0.019572
    26  C   -0.004735
    27  C   -0.036956
    28  C    0.168531
    29  C   -0.047879
    30  C    0.010322
    31  C    0.022417
    32  C    0.048881
    33  C   -0.101224
    34  C    0.161625
    35  C    0.081989
    36  C   -0.045465
    37  C    0.142268
    38  C    0.028839
    39  C   -0.126784
    40  C    0.169395
    41  C   -0.012911
    42  C    0.012363
    43  C    0.003223
    44  H    0.037251
    45  H    0.008513
    46  H   -0.059350
    47  H    0.166422
    48  H    0.126697
    49  H    0.038176
    50  H   -0.020923
    51  H    0.031863
    52  H    0.006375
    53  H    0.013952
    54  H    0.026611
    55  H    0.056243
    56  H    0.061023
    57  H    0.018184
    58  H    0.036165
    59  H    0.050554
    60  H    0.170619
    61  H    0.030829
    62  H    0.055139
    63  H   -0.003450
    64  H    0.074037
    65  H    0.069362
    66  H   -0.011945
    67  H    0.021307
    68  H    0.036953
    69  H   -0.009221
    70  H    0.009214
    71  H    0.045175
    72  H    0.185035
    73  H   -0.012924
    74  H    0.037275
    75  H    0.050874
    76  H    0.066223
    77  H    0.133309
    78  H    0.027052
    79  H    0.006345
 Sum of Mulliken charges =  -0.00000

 Dipole moment (field-independent basis, Debye):
    X=              3.0324    Y=              2.9959    Z=             -2.2168  Tot=              4.8047
 Quadrupole moment (field-independent basis, Debye-Ang):
   XX=           -244.7958   YY=           -234.2300   ZZ=           -267.6422
   XY=              2.0775   XZ=            -20.5901   YZ=            -18.1664

 Normal termination of Gaussian 16 at Sat Jul 27 15:16:19 2019.
