 Gaussian 16, Revision A.03,
 Gaussian 16:  ES64L-G16RevA.03 25-Dec-2016

 --------------------------
 # td=(NStates=1) B3LYP/SVP
 --------------------------

 --
 TD
 --
 Symbolic Z-matrix:
 Charge =  0 Multiplicity = 1

                         Standard orientation:
 ---------------------------------------------------------------------
 Center     Atomic      Atomic             Coordinates (Angstroms)
 Number     Number       Type             X           Y           Z
 ---------------------------------------------------------------------
      1          8           0        5.423178    0.027459   -3.220288
      2          8           0       -3.062999   -3.013859    3.302209
      3          8           0       -3.339838   -0.836967    3.317041
      4          8           0       -1.578980    7.115170    1.705749
      5          8           0       -0.780052    7.120404   -0.395429
      6          8           0       -1.754421   -3.936324   -0.049810
      7          7           0        2.385127    0.946394    0.784535
      8          7           0        4.399022   -0.556460   -1.254801
      9          7           0       -1.793802    0.647941   -0.427755
     10          7           0       -2.672723   -1.827863   -0.566191
     11          6           0        4.787784   -1.285793   -0.019747
     12          6           0        4.425148   -0.446587    1.232457
     13          6           0        2.933538   -0.099593    1.416928
     14          6           0        1.988776   -0.833233    2.029324
     15          6           0        0.702016   -0.220329    1.763606
     16          6           0        0.964361    0.903309    0.933445
     17          6           0        6.329774   -1.337229   -0.244547
     18          6           0       -0.532928   -0.389585    2.514146
     19          6           0        6.629299   -0.791339   -1.402249
     20          6           0        0.197504    1.956040    0.349165
     21          6           0       -1.055800    1.861581   -0.255118
     22          6           0        5.342330   -0.370264   -2.095469
     23          6           0       -1.804112    2.857157   -0.820118
     24          6           0        2.210235   -2.082610    2.975831
     25          6           0        7.229375   -1.940117    0.744177
     26          6           0       -2.973090    2.366166   -1.348347
     27          6           0       -1.179260   -1.829557    2.467474
     28          6           0       -2.923427    0.947247   -1.132596
     29          6           0       -1.371534    4.339223   -0.868449
     30          6           0        7.932036   -0.623307   -2.020556
     31          6           0       -1.771914    5.114491    0.443799
     32          6           0       -4.109396    3.075452   -1.993207
     33          6           0       -3.935730   -0.030714   -1.441267
     34          6           0       -2.564578   -1.705770    3.023223
     35          6           0       -3.793504   -1.400211   -1.138753
     36          6           0        9.129816   -0.638863   -1.437144
     37          6           0       -1.388974    6.535387    0.506728
     38          6           0       -4.708754   -2.491772   -1.468411
     39          6           0       -4.033964   -3.637146   -1.039864
     40          6           0       -2.710547   -3.246297   -0.569312
     41          6           0       -5.928406   -2.275277   -2.123245
     42          6           0       -4.485629   -5.035059   -1.230923
     43          6           0       -6.756664   -3.192005   -2.829410
     44          1           0        4.258283   -2.192132   -0.096671
     45          1           0        5.117932    0.449761    1.343381
     46          1           0        4.644957   -1.153189    1.933177
     47          1           0        2.953913    1.416154    0.138329
     48          1           0        3.379860   -0.569641   -1.463410
     49          1           0       -0.539217   -0.136715    3.496595
     50          1           0       -1.461815    0.162559    1.962472
     51          1           0        0.556145    2.846816    0.266219
     52          1           0        3.455210   -2.328492    2.950155
     53          1           0        1.966379   -1.670420    4.089522
     54          1           0        1.392321   -2.785513    2.615063
     55          1           0        6.898853   -2.966401    1.144573
     56          1           0        7.626922   -1.204393    1.493087
     57          1           0        8.297148   -2.335490    0.380518
     58          1           0       -1.090548   -2.388795    1.561356
     59          1           0       -0.744055   -2.610173    3.153609
     60          1           0       -1.574677   -0.304223   -0.203425
     61          1           0       -1.855302    4.733434   -1.741132
     62          1           0       -0.329980    4.393426   -1.087885
     63          1           0        7.833863   -0.490964   -3.216876
     64          1           0       -1.523814    4.500376    1.453957
     65          1           0       -2.849607    5.090486    0.460652
     66          1           0       -4.048292    4.213559   -2.295108
     67          1           0       -4.931285    3.094102   -1.304357
     68          1           0       -4.353195    2.525308   -2.956924
     69          1           0       -4.767405    0.498872   -1.976236
     70          1           0        9.328340   -0.350098   -0.380245
     71          1           0        9.925107   -0.949212   -2.206490
     72          1           0       -4.004947   -3.025300    3.668705
     73          1           0       -6.213305   -1.386960   -2.084428
     74          1           0       -5.749171   -5.246078   -1.058408
     75          1           0       -4.309098   -5.586431   -2.181688
     76          1           0       -3.937599   -5.662006   -0.034505
     77          1           0       -1.444605    7.959633    1.770621
     78          1           0       -7.639476   -2.833388   -3.305246
     79          1           0       -6.388983   -4.306005   -2.844659
 ---------------------------------------------------------------------

 SCF Done:  E(RB3LYP) =  -1947.79864938     A.U. after   17 cycles

 Excitation energies and oscillator strengths:

 Excited State   1:      Singlet-A      1.8982 eV  653.16 nm  f=0.3292  <S**2>=0.000
     154 ->156         0.24087
     155 ->156         0.66322
     155 <-156        -0.11454
 This state for optimization and/or second-order correction.
 Total Energy, E(TD-HF/TD-DFT) =  -1947.72889076
 Copying the excited state density for this state as the 1-particle RhoCI density.

 The electronic state is 1-A.
 Alpha  occ. eigenvalues --  -19.18282 -19.13733 -19.12991 -19.11846 -19.10155
 Alpha  occ. eigenvalues --  -19.08951 -14.38752 -14.36446 -14.36432 -14.28582
 Alpha  occ. eigenvalues --  -10.33360 -10.30756 -10.27505 -10.26524 -10.25582
 Alpha  occ. eigenvalues --  -10.24952 -10.24390 -10.24280 -10.23413 -10.23272
 Alpha  occ. eigenvalues --  -10.22950 -10.22852 -10.22612 -10.22236 -10.21975
 Alpha  occ. eigenvalues --  -10.21753 -10.21622 -10.21375 -10.21310 -10.21308
 Alpha  occ. eigenvalues --  -10.21130 -10.21029 -10.20627 -10.20148 -10.20142
 Alpha  occ. eigenvalues --  -10.20023 -10.19946 -10.19945 -10.19870 -10.19663
 Alpha  occ. eigenvalues --  -10.19481 -10.19333 -10.18895  -1.11526  -1.06171
 Alpha  occ. eigenvalues --   -1.03697  -1.00927  -0.99740  -0.98559  -0.97903
 Alpha  occ. eigenvalues --   -0.96189  -0.96020  -0.91626  -0.83651  -0.82958
 Alpha  occ. eigenvalues --   -0.82730  -0.81810  -0.80538  -0.80212  -0.78938
 Alpha  occ. eigenvalues --   -0.77481  -0.77108  -0.75639  -0.74706  -0.72955
 Alpha  occ. eigenvalues --   -0.71880  -0.71106  -0.70654  -0.69147  -0.68468
 Alpha  occ. eigenvalues --   -0.67989  -0.66720  -0.64633  -0.63428  -0.61925
 Alpha  occ. eigenvalues --   -0.61364  -0.59694  -0.58140  -0.57934  -0.57483
 Alpha  occ. eigenvalues --   -0.56891  -0.55902  -0.55719  -0.54741  -0.53837
 Alpha  occ. eigenvalues --   -0.52846  -0.51863  -0.51515  -0.51376  -0.50267
 Alpha  occ. eigenvalues --   -0.49509  -0.48906  -0.48107  -0.48018  -0.47660
 Alpha  occ. eigenvalues --   -0.47560  -0.47395  -0.46536  -0.46154  -0.45735
 Alpha  occ. eigenvalues --   -0.45668  -0.44950  -0.44480  -0.44108  -0.43708
 Alpha  occ. eigenvalues --   -0.43581  -0.43453  -0.42931  -0.42644  -0.42461
 Alpha  occ. eigenvalues --   -0.42302  -0.41843  -0.41716  -0.41354  -0.41127
 Alpha  occ. eigenvalues --   -0.41057  -0.40496  -0.40236  -0.40218  -0.39939
 Alpha  occ. eigenvalues --   -0.39207  -0.39091  -0.38904  -0.38582  -0.38234
 Alpha  occ. eigenvalues --   -0.38049  -0.37906  -0.37168  -0.36890  -0.36707
 Alpha  occ. eigenvalues --   -0.36651  -0.36492  -0.36122  -0.35420  -0.34163
 Alpha  occ. eigenvalues --   -0.33453  -0.32916  -0.32464  -0.31562  -0.30998
 Alpha  occ. eigenvalues --   -0.30705  -0.29413  -0.28815  -0.28560  -0.27398
 Alpha  occ. eigenvalues --   -0.26906  -0.26647  -0.26430  -0.25480  -0.24897
 Alpha  occ. eigenvalues --   -0.24385  -0.23898  -0.23549  -0.22060  -0.19525
 Alpha virt. eigenvalues --   -0.11885  -0.07871  -0.04861  -0.01780  -0.01446
 Alpha virt. eigenvalues --    0.00782   0.01248   0.01711   0.02456   0.03217
 Alpha virt. eigenvalues --    0.03436   0.03933   0.04433   0.04851   0.05175

 Mulliken charges:
               1
     1  O   -0.208497
     2  O   -0.287458
     3  O   -0.207886
     4  O   -0.110327
     5  O   -0.243669
     6  O   -0.266580
     7  N   -0.047678
     8  N   -0.147104
     9  N   -0.073943
    10  N   -0.293656
    11  C    0.109870
    12  C    0.234519
    13  C   -0.130495
    14  C   -0.134945
    15  C   -0.014729
    16  C    0.117468
    17  C   -0.170272
    18  C    0.030565
    19  C   -0.033705
    20  C    0.005988
    21  C    0.086781
    22  C    0.089201
    23  C   -0.119766
    24  C   -0.005636
    25  C   -0.003236
    26  C   -0.097815
    27  C   -0.035316
    28  C    0.023522
    29  C    0.168900
    30  C   -0.058852
    31  C   -0.024589
    32  C    0.048703
    33  C   -0.107748
    34  C    0.154023
    35  C    0.132721
    36  C   -0.049547
    37  C    0.143054
    38  C    0.103214
    39  C   -0.115117
    40  C    0.197783
    41  C    0.016040
    42  C   -0.117809
    43  C   -0.006969
    44  H    0.009911
    45  H    0.016713
    46  H   -0.043466
    47  H    0.099167
    48  H    0.135885
    49  H   -0.006175
    50  H    0.052569
    51  H   -0.104123
    52  H    0.045573
    53  H    0.052619
    54  H    0.077695
    55  H    0.032721
    56  H    0.043468
    57  H    0.034309
    58  H    0.060873
    59  H    0.035764
    60  H    0.132210
    61  H    0.002059
    62  H    0.006482
    63  H    0.053444
    64  H    0.072657
    65  H    0.026530
    66  H    0.034448
    67  H    0.032146
    68  H    0.050036
    69  H   -0.020152
    70  H    0.035948
    71  H    0.044379
    72  H    0.191394
    73  H   -0.113203
    74  H    0.046468
    75  H    0.066811
    76  H    0.055669
    77  H    0.122087
    78  H    0.023909
    79  H    0.044169
 Sum of Mulliken charges =  -0.00000

 Dipole moment (field-independent basis, Debye):
    X=             -0.1677    Y=              3.2733    Z=              2.8887  Tot=              4.3689
 Quadrupole moment (field-independent basis, Debye-Ang):
   XX=           -224.0001   YY=           -253.3325   ZZ=           -263.3360
   XY=            -18.8144   XZ=             37.2721   YZ=             10.0393

 Normal termination of Gaussian 16 at Wed Sep 18 19:13:15 2019.
