 Gaussian 16, Revision A.03,
 Gaussian 16:  ES64L-G16RevA.03 25-Dec-2016

 --------------------------
 # td=(NStates=1) B3LYP/SVP
 --------------------------

 --
 TD
 --
 Symbolic Z-matrix:
 Charge =  0 Multiplicity = 1

                         Standard orientation:
 ---------------------------------------------------------------------
 Center     Atomic      Atomic             Coordinates (Angstroms)
 Number     Number       Type             X           Y           Z
 ---------------------------------------------------------------------
      1          8           0        5.036079   -0.740595   -3.379365
      2          8           0       -3.309811   -2.585263    3.277686
      3          8           0       -3.348215   -0.448367    3.126042
      4          8           0       -0.999661    7.228849    1.402049
      5          8           0       -0.059741    6.933552   -0.612060
      6          8           0       -2.162586   -3.897601    0.197978
      7          7           0        2.463988    0.761059    0.652136
      8          7           0        4.335142   -0.942411   -1.162298
      9          7           0       -1.824423    0.646379   -0.405202
     10          7           0       -2.737072   -1.834534   -0.601830
     11          6           0        4.859121   -1.423397    0.087881
     12          6           0        4.428212   -0.523611    1.259116
     13          6           0        2.932788   -0.113070    1.399235
     14          6           0        1.972082   -0.720680    2.194551
     15          6           0        0.712712   -0.091729    1.802096
     16          6           0        1.043517    0.823574    0.796943
     17          6           0        6.285434   -1.552908   -0.128397
     18          6           0       -0.598327   -0.137817    2.552924
     19          6           0        6.563959   -1.064934   -1.390931
     20          6           0        0.278314    1.866514    0.177828
     21          6           0       -1.044655    1.765825   -0.355704
     22          6           0        5.374546   -0.808842   -2.155203
     23          6           0       -1.751199    2.932303   -0.935614
     24          6           0        2.111138   -1.923187    3.210752
     25          6           0        7.310044   -1.893271    0.922171
     26          6           0       -3.049328    2.451513   -1.283354
     27          6           0       -1.261695   -1.527559    2.597704
     28          6           0       -2.988890    1.064631   -0.995452
     29          6           0       -1.135277    4.281771   -0.912172
     30          6           0        7.835265   -1.092438   -2.141110
     31          6           0       -1.323741    5.116320    0.331843
     32          6           0       -4.191101    3.214892   -1.929347
     33          6           0       -3.888720    0.038345   -1.439262
     34          6           0       -2.704211   -1.424310    3.022903
     35          6           0       -3.843499   -1.387905   -1.167340
     36          6           0        9.082843   -0.893087   -1.611110
     37          6           0       -0.752829    6.494421    0.335476
     38          6           0       -4.845348   -2.443057   -1.430242
     39          6           0       -4.236296   -3.526228   -1.104423
     40          6           0       -2.992774   -3.225273   -0.419418
     41          6           0       -6.071159   -2.134902   -2.044126
     42          6           0       -4.741053   -4.953903   -1.244031
     43          6           0       -7.068604   -3.004994   -2.427347
     44          1           0        4.386527   -2.408872    0.239827
     45          1           0        5.123334    0.391208    0.868785
     46          1           0        4.838237   -0.918001    2.270155
     47          1           0        2.918108    1.137026   -0.155028
     48          1           0        3.535978   -0.890282   -1.491784
     49          1           0       -0.446329    0.332125    3.482790
     50          1           0       -1.503861    0.525244    2.227753
     51          1           0        0.894320    2.715862   -0.033619
     52          1           0        3.148463   -1.978987    3.304986
     53          1           0        1.637331   -1.466213    3.998141
     54          1           0        1.717301   -2.994085    2.669444
     55          1           0        6.884979   -2.443609    1.715552
     56          1           0        7.843586   -1.059557    1.340032
     57          1           0        8.254421   -2.455304    0.612879
     58          1           0       -1.208381   -2.098260    1.774314
     59          1           0       -0.744949   -2.166229    3.288849
     60          1           0       -1.572482   -0.338325   -0.448630
     61          1           0       -1.728824    4.798190   -1.710102
     62          1           0       -0.074844    4.069477   -1.275238
     63          1           0        7.915108   -1.080152   -3.206981
     64          1           0       -0.768437    4.679581    1.087101
     65          1           0       -2.301378    5.201456    0.605940
     66          1           0       -3.782675    4.153592   -2.178542
     67          1           0       -5.058988    2.992760   -1.219454
     68          1           0       -4.632000    2.928361   -2.839617
     69          1           0       -4.764148    0.584329   -1.806987
     70          1           0        9.317484   -0.649587   -0.462839
     71          1           0       10.017413   -0.890627   -2.154747
     72          1           0       -4.160352   -2.532204    3.677634
     73          1           0       -6.326628   -0.872928   -2.026872
     74          1           0       -5.624942   -4.941518   -0.625416
     75          1           0       -5.010542   -5.326512   -2.251438
     76          1           0       -3.995148   -5.531664   -0.844275
     77          1           0       -0.422823    7.860248    1.499694
     78          1           0       -8.143135   -2.696113   -2.752651
     79          1           0       -6.881310   -4.066510   -2.118986
 ---------------------------------------------------------------------

 SCF Done:  E(RB3LYP) =  -1947.81892434     A.U. after   17 cycles

 Excitation energies and oscillator strengths:

 Excited State   1:      Singlet-A      1.9715 eV  628.89 nm  f=0.4981  <S**2>=0.000
     155 ->156         0.70349
     155 <-156        -0.13331
 This state for optimization and/or second-order correction.
 Total Energy, E(TD-HF/TD-DFT) =  -1947.74647361
 Copying the excited state density for this state as the 1-particle RhoCI density.

 The electronic state is 1-A.
 Alpha  occ. eigenvalues --  -19.19054 -19.15176 -19.12257 -19.10657 -19.10434
 Alpha  occ. eigenvalues --  -19.10098 -14.38450 -14.35807 -14.33937 -14.28136
 Alpha  occ. eigenvalues --  -10.32854 -10.29780 -10.29181 -10.25912 -10.25549
 Alpha  occ. eigenvalues --  -10.24045 -10.23880 -10.23789 -10.23610 -10.23207
 Alpha  occ. eigenvalues --  -10.22603 -10.22432 -10.21809 -10.21667 -10.21662
 Alpha  occ. eigenvalues --  -10.21562 -10.21497 -10.21442 -10.21313 -10.21245
 Alpha  occ. eigenvalues --  -10.21070 -10.20762 -10.20547 -10.20249 -10.20236
 Alpha  occ. eigenvalues --  -10.19600 -10.19021 -10.18921 -10.18813 -10.18775
 Alpha  occ. eigenvalues --  -10.18569 -10.17935 -10.17497  -1.12893  -1.09313
 Alpha  occ. eigenvalues --   -1.01716  -1.00931  -1.00540  -0.99692  -0.99395
 Alpha  occ. eigenvalues --   -0.98193  -0.94470  -0.92427  -0.83658  -0.83402
 Alpha  occ. eigenvalues --   -0.81793  -0.81351  -0.80400  -0.79803  -0.78733
 Alpha  occ. eigenvalues --   -0.77172  -0.76643  -0.75611  -0.74470  -0.73648
 Alpha  occ. eigenvalues --   -0.72621  -0.71502  -0.70460  -0.70058  -0.69523
 Alpha  occ. eigenvalues --   -0.67819  -0.66673  -0.64536  -0.63874  -0.61312
 Alpha  occ. eigenvalues --   -0.60961  -0.60316  -0.59604  -0.57989  -0.57413
 Alpha  occ. eigenvalues --   -0.56522  -0.55867  -0.55676  -0.54877  -0.54165
 Alpha  occ. eigenvalues --   -0.52718  -0.52552  -0.51694  -0.51178  -0.50633
 Alpha  occ. eigenvalues --   -0.49970  -0.49497  -0.48450  -0.48187  -0.47551
 Alpha  occ. eigenvalues --   -0.47085  -0.46717  -0.46518  -0.45947  -0.45559
 Alpha  occ. eigenvalues --   -0.45381  -0.45122  -0.44973  -0.44278  -0.44192
 Alpha  occ. eigenvalues --   -0.44135  -0.43814  -0.43213  -0.42931  -0.42409
 Alpha  occ. eigenvalues --   -0.41988  -0.41755  -0.41567  -0.41367  -0.41065
 Alpha  occ. eigenvalues --   -0.40699  -0.40430  -0.40311  -0.40102  -0.39998
 Alpha  occ. eigenvalues --   -0.39940  -0.39275  -0.39167  -0.38918  -0.38500
 Alpha  occ. eigenvalues --   -0.37844  -0.37696  -0.37396  -0.36845  -0.36520
 Alpha  occ. eigenvalues --   -0.36062  -0.35676  -0.35625  -0.35050  -0.34739
 Alpha  occ. eigenvalues --   -0.34508  -0.33511  -0.32476  -0.31694  -0.31271
 Alpha  occ. eigenvalues --   -0.30828  -0.30578  -0.28617  -0.27668  -0.27516
 Alpha  occ. eigenvalues --   -0.26365  -0.26304  -0.25726  -0.25606  -0.25207
 Alpha  occ. eigenvalues --   -0.24909  -0.24094  -0.23531  -0.22371  -0.18039
 Alpha virt. eigenvalues --   -0.10537  -0.07466  -0.06522  -0.00798  -0.00630
 Alpha virt. eigenvalues --   -0.00441   0.01307   0.02450   0.03432   0.03728
 Alpha virt. eigenvalues --    0.04082   0.04504   0.04736   0.05306   0.05814

 Mulliken charges:
               1
     1  O   -0.267387
     2  O   -0.166660
     3  O   -0.201120
     4  O   -0.079041
     5  O   -0.266621
     6  O   -0.209747
     7  N    0.042119
     8  N   -0.159357
     9  N   -0.026008
    10  N   -0.281376
    11  C    0.188463
    12  C    0.051127
    13  C   -0.092129
    14  C   -0.227615
    15  C   -0.035950
    16  C    0.016235
    17  C   -0.148009
    18  C    0.028395
    19  C   -0.036727
    20  C   -0.098999
    21  C    0.093026
    22  C    0.164807
    23  C   -0.142522
    24  C    0.147653
    25  C    0.098466
    26  C   -0.118245
    27  C    0.093296
    28  C    0.031735
    29  C    0.082884
    30  C    0.019084
    31  C    0.155558
    32  C    0.138542
    33  C   -0.086406
    34  C    0.086203
    35  C    0.080560
    36  C   -0.091698
    37  C    0.082066
    38  C    0.133383
    39  C   -0.254995
    40  C    0.154507
    41  C   -0.094068
    42  C    0.153338
    43  C   -0.066981
    44  H    0.018747
    45  H    0.007283
    46  H    0.033058
    47  H    0.109445
    48  H    0.037282
    49  H   -0.003384
    50  H    0.044131
    51  H   -0.020951
    52  H   -0.031066
    53  H    0.021769
    54  H    0.075997
    55  H    0.004371
    56  H    0.030541
    57  H    0.038277
    58  H    0.002483
    59  H    0.001099
    60  H    0.148772
    61  H    0.009232
    62  H    0.041206
    63  H    0.015586
    64  H    0.005047
    65  H    0.006340
    66  H   -0.000986
    67  H    0.043816
    68  H    0.011607
    69  H   -0.051163
    70  H    0.028195
    71  H    0.028782
    72  H    0.162932
    73  H    0.038952
    74  H    0.024952
    75  H    0.035051
    76  H   -0.007807
    77  H    0.124966
    78  H    0.052869
    79  H    0.022785
 Sum of Mulliken charges =  -0.00000

 Dipole moment (field-independent basis, Debye):
    X=              2.0979    Y=              2.1625    Z=              4.3609  Tot=              5.3005
 Quadrupole moment (field-independent basis, Debye-Ang):
   XX=           -202.1889   YY=           -251.7091   ZZ=           -263.2435
   XY=             -6.3990   XZ=             29.4437   YZ=              4.1204

 Normal termination of Gaussian 16 at Fri Oct  4 01:36:41 2019.
