 Gaussian 16, Revision A.03,
 Gaussian 16:  ES64L-G16RevA.03 25-Dec-2016

 --------------------------
 # td=(NStates=1) B3LYP/SVP
 --------------------------

 --
 TD
 --
 Symbolic Z-matrix:
 Charge =  0 Multiplicity = 1

                         Standard orientation:
 ---------------------------------------------------------------------
 Center     Atomic      Atomic             Coordinates (Angstroms)
 Number     Number       Type             X           Y           Z
 ---------------------------------------------------------------------
      1          8           0        5.350560   -0.023128   -3.223510
      2          8           0       -3.117911   -2.666169    3.265048
      3          8           0       -3.327085   -0.418092    2.905166
      4          8           0       -1.463692    7.166532    1.330525
      5          8           0       -0.713882    6.966748   -0.715772
      6          8           0       -1.651870   -3.964099    0.337564
      7          7           0        2.373076    1.053405    0.648814
      8          7           0        4.399703   -0.580487   -1.326023
      9          7           0       -1.884169    0.617554   -0.497104
     10          7           0       -2.483701   -1.852316   -0.439449
     11          6           0        4.791642   -1.196876    0.003480
     12          6           0        4.382299   -0.229819    1.239881
     13          6           0        2.867433    0.076626    1.382152
     14          6           0        1.907572   -0.441412    2.249801
     15          6           0        0.705200    0.172533    1.859118
     16          6           0        0.912628    1.093965    0.897211
     17          6           0        6.261824   -1.348350   -0.132887
     18          6           0       -0.685079   -0.089187    2.556861
     19          6           0        6.617496   -0.869126   -1.317279
     20          6           0        0.124660    2.046563    0.088842
     21          6           0       -1.180825    1.785958   -0.492827
     22          6           0        5.482407   -0.452911   -2.123289
     23          6           0       -2.064392    2.805370   -0.979915
     24          6           0        2.176048   -1.576704    3.154076
     25          6           0        6.992696   -1.968710    1.041187
     26          6           0       -3.215890    2.205854   -1.469567
     27          6           0       -1.219375   -1.540121    2.596451
     28          6           0       -3.115692    0.822595   -1.139338
     29          6           0       -1.740338    4.284471   -0.932787
     30          6           0        7.949706   -0.798554   -1.988210
     31          6           0       -1.688805    5.012797    0.434840
     32          6           0       -4.553422    2.849153   -1.974723
     33          6           0       -3.958087   -0.209423   -1.299666
     34          6           0       -2.679139   -1.375948    2.957168
     35          6           0       -3.582980   -1.602429   -1.057609
     36          6           0        9.269693   -0.939135   -1.452115
     37          6           0       -1.184235    6.466164    0.225586
     38          6           0       -4.448571   -2.818726   -1.444531
     39          6           0       -3.708739   -3.829393   -0.918682
     40          6           0       -2.578068   -3.334962   -0.257515
     41          6           0       -5.710622   -2.682042   -2.100513
     42          6           0       -3.918768   -5.375640   -1.192696
     43          6           0       -6.628899   -3.681808   -2.436779
     44          1           0        4.193009   -2.067567    0.251149
     45          1           0        4.869671    0.461604    1.114335
     46          1           0        4.611016   -0.788725    2.109309
     47          1           0        2.702213    1.586814    0.025221
     48          1           0        3.393382   -0.623821   -1.676174
     49          1           0       -0.640349    0.286915    3.596578
     50          1           0       -1.550192    0.475029    2.338652
     51          1           0        0.383002    3.082129   -0.183814
     52          1           0        3.263132   -1.605368    3.605719
     53          1           0        1.398159   -1.641861    4.015962
     54          1           0        1.863670   -2.627189    2.855297
     55          1           0        6.483214   -2.894963    1.383283
     56          1           0        7.240581   -1.062587    1.849356
     57          1           0        7.978518   -2.317303    0.576983
     58          1           0       -1.023460   -1.950500    1.718063
     59          1           0       -0.653465   -2.187615    3.412543
     60          1           0       -1.637451   -0.475402   -0.144116
     61          1           0       -2.565784    4.788796   -1.601161
     62          1           0       -0.716049    4.398806   -1.514594
     63          1           0        7.847121   -0.762637   -2.933302
     64          1           0       -1.064298    4.667542    1.162872
     65          1           0       -2.739098    5.059306    0.812905
     66          1           0       -4.440725    3.901467   -2.053342
     67          1           0       -5.246200    2.600930   -1.253373
     68          1           0       -4.636378    2.545096   -3.045120
     69          1           0       -4.740783   -0.034973   -2.050675
     70          1           0        9.379292   -0.921338   -0.520196
     71          1           0       10.088327   -0.908619   -2.383959
     72          1           0       -4.077026   -2.503303    3.287369
     73          1           0       -6.032838   -1.745522   -2.334858
     74          1           0       -4.842398   -5.877626   -0.703477
     75          1           0       -3.973371   -5.498253   -2.519909
     76          1           0       -2.987758   -5.892879   -0.888162
     77          1           0       -1.010468    7.930940    1.069848
     78          1           0       -7.713432   -3.373520   -2.876422
     79          1           0       -6.322378   -4.749864   -2.252981
 ---------------------------------------------------------------------

 SCF Done:  E(RB3LYP) =  -1947.74165004     A.U. after   17 cycles

 Excitation energies and oscillator strengths:

 Excited State   1:      Singlet-A      1.7998 eV  688.87 nm  f=0.3756  <S**2>=0.000
     155 ->156         0.70700
     155 <-156        -0.12123
 This state for optimization and/or second-order correction.
 Total Energy, E(TD-HF/TD-DFT) =  -1947.67550763
 Copying the excited state density for this state as the 1-particle RhoCI density.

 The electronic state is 1-A.
 Alpha  occ. eigenvalues --  -19.18331 -19.16600 -19.14029 -19.13766 -19.11417
 Alpha  occ. eigenvalues --  -19.08992 -14.36658 -14.34516 -14.34485 -14.30830
 Alpha  occ. eigenvalues --  -10.32313 -10.31075 -10.27664 -10.27215 -10.24404
 Alpha  occ. eigenvalues --  -10.23884 -10.23350 -10.23065 -10.23042 -10.22994
 Alpha  occ. eigenvalues --  -10.22711 -10.22636 -10.22293 -10.22161 -10.22126
 Alpha  occ. eigenvalues --  -10.21958 -10.21844 -10.21171 -10.21122 -10.20682
 Alpha  occ. eigenvalues --  -10.20657 -10.20547 -10.20313 -10.20308 -10.20099
 Alpha  occ. eigenvalues --  -10.19805 -10.19632 -10.19395 -10.19290 -10.18577
 Alpha  occ. eigenvalues --  -10.18473 -10.18048 -10.17882  -1.13388  -1.10035
 Alpha  occ. eigenvalues --   -1.03668  -1.03512  -1.01620  -1.00071  -0.98773
 Alpha  occ. eigenvalues --   -0.96502  -0.93106  -0.93066  -0.82017  -0.81942
 Alpha  occ. eigenvalues --   -0.81803  -0.81096  -0.80484  -0.79448  -0.77625
 Alpha  occ. eigenvalues --   -0.77241  -0.76459  -0.75686  -0.74257  -0.72224
 Alpha  occ. eigenvalues --   -0.71502  -0.71041  -0.69107  -0.68572  -0.67649
 Alpha  occ. eigenvalues --   -0.66215  -0.65650  -0.64402  -0.62053  -0.61266
 Alpha  occ. eigenvalues --   -0.59595  -0.59079  -0.58358  -0.58285  -0.56903
 Alpha  occ. eigenvalues --   -0.56509  -0.55201  -0.54608  -0.54283  -0.53784
 Alpha  occ. eigenvalues --   -0.52335  -0.51492  -0.50704  -0.50468  -0.50275
 Alpha  occ. eigenvalues --   -0.49805  -0.49300  -0.48679  -0.48546  -0.47928
 Alpha  occ. eigenvalues --   -0.47489  -0.47147  -0.46674  -0.46304  -0.45997
 Alpha  occ. eigenvalues --   -0.45442  -0.45082  -0.44215  -0.43961  -0.43509
 Alpha  occ. eigenvalues --   -0.43363  -0.43024  -0.42872  -0.42663  -0.42611
 Alpha  occ. eigenvalues --   -0.42142  -0.41974  -0.41761  -0.41192  -0.40703
 Alpha  occ. eigenvalues --   -0.40590  -0.40325  -0.40227  -0.40084  -0.40035
 Alpha  occ. eigenvalues --   -0.39636  -0.39335  -0.38589  -0.38304  -0.38163
 Alpha  occ. eigenvalues --   -0.38090  -0.37612  -0.37287  -0.36714  -0.36569
 Alpha  occ. eigenvalues --   -0.36063  -0.35905  -0.35489  -0.35354  -0.35211
 Alpha  occ. eigenvalues --   -0.34573  -0.34147  -0.33946  -0.32685  -0.32003
 Alpha  occ. eigenvalues --   -0.31577  -0.31203  -0.29666  -0.29428  -0.28921
 Alpha  occ. eigenvalues --   -0.28514  -0.25728  -0.25486  -0.25210  -0.25120
 Alpha  occ. eigenvalues --   -0.24799  -0.24112  -0.23905  -0.22967  -0.18468
 Alpha virt. eigenvalues --   -0.11482  -0.07347  -0.06245  -0.01244   0.00683
 Alpha virt. eigenvalues --    0.00821   0.01332   0.01730   0.03045   0.03617
 Alpha virt. eigenvalues --    0.04086   0.04352   0.05259   0.05677   0.05952

 Mulliken charges:
               1
     1  O   -0.190934
     2  O   -0.207583
     3  O   -0.160426
     4  O   -0.134741
     5  O   -0.179347
     6  O   -0.237260
     7  N    0.009853
     8  N   -0.219980
     9  N   -0.184542
    10  N   -0.297019
    11  C    0.033124
    12  C    0.441085
    13  C   -0.126934
    14  C   -0.075519
    15  C   -0.058872
    16  C    0.100052
    17  C   -0.143532
    18  C    0.038703
    19  C   -0.070230
    20  C   -0.064259
    21  C    0.042983
    22  C    0.130624
    23  C   -0.071590
    24  C    0.002699
    25  C    0.039797
    26  C   -0.155592
    27  C    0.018049
    28  C    0.109482
    29  C   -0.016471
    30  C    0.037515
    31  C    0.066150
    32  C    0.178383
    33  C   -0.097522
    34  C    0.136242
    35  C    0.015275
    36  C    0.045329
    37  C    0.078182
    38  C    0.119979
    39  C   -0.157986
    40  C    0.189329
    41  C   -0.014179
    42  C   -0.019172
    43  C   -0.056564
    44  H    0.011551
    45  H   -0.178378
    46  H   -0.026073
    47  H    0.031282
    48  H    0.146848
    49  H   -0.006932
    50  H    0.001286
    51  H   -0.009577
    52  H    0.035441
    53  H    0.011547
    54  H    0.034542
    55  H    0.043383
    56  H    0.076546
    57  H    0.034686
    58  H    0.016659
    59  H    0.036136
    60  H    0.237551
    61  H    0.026663
    62  H    0.052358
    63  H   -0.067812
    64  H    0.015209
    65  H    0.046863
    66  H   -0.018747
    67  H    0.028999
    68  H    0.031185
    69  H   -0.016540
    70  H   -0.057993
    71  H    0.067390
    72  H    0.158347
    73  H   -0.045043
    74  H    0.059748
    75  H    0.049684
    76  H    0.043382
    77  H    0.133502
    78  H    0.064474
    79  H    0.039251
 Sum of Mulliken charges =  -0.00000

 Dipole moment (field-independent basis, Debye):
    X=             -1.5042    Y=              0.7468    Z=              2.3345  Tot=              2.8758
 Quadrupole moment (field-independent basis, Debye-Ang):
   XX=           -217.6485   YY=           -247.8916   ZZ=           -264.0595
   XY=             -3.7714   XZ=             33.9009   YZ=              7.0338

 Normal termination of Gaussian 16 at Thu Sep 19 12:16:34 2019.
