 Gaussian 16, Revision A.03,
 Gaussian 16:  ES64L-G16RevA.03 25-Dec-2016

 --------------------------
 # td=(NStates=1) B3LYP/SVP
 --------------------------

 --
 TD
 --
 Symbolic Z-matrix:
 Charge =  0 Multiplicity = 1

                         Standard orientation:
 ---------------------------------------------------------------------
 Center     Atomic      Atomic             Coordinates (Angstroms)
 Number     Number       Type             X           Y           Z
 ---------------------------------------------------------------------
      1          8           0       -3.171867   -1.865218   -2.644240
      2          8           0        2.911266    3.708061    2.505991
      3          8           0        3.322813    2.336582    4.120857
      4          8           0        7.720808   -1.689904   -0.451553
      5          8           0        6.633491   -3.493276   -1.245828
      6          8           0       -2.569116    1.738196    1.029846
      7          7           0       -0.302048   -2.243820    1.333530
      8          7           0       -2.799377   -1.217773   -0.469082
      9          7           0        1.160338   -0.099449   -0.713882
     10          7           0       -0.890972    1.381535   -0.421629
     11          6           0       -3.500504   -1.174136    0.813424
     12          6           0       -2.737501   -1.991909    1.939511
     13          6           0       -1.272707   -1.622504    2.122082
     14          6           0       -0.690745   -0.675523    2.947088
     15          6           0        0.662054   -0.619325    2.657692
     16          6           0        0.811977   -1.616819    1.517963
     17          6           0       -4.718274   -1.887482    0.466834
     18          6           0        1.745319    0.242730    3.174476
     19          6           0       -4.840506   -2.214984   -0.830904
     20          6           0        2.003516   -1.869508    0.699611
     21          6           0        2.093395   -1.054741   -0.402888
     22          6           0       -3.504075   -1.761678   -1.498595
     23          6           0        3.094309   -1.030086   -1.654702
     24          6           0       -1.391294    0.168160    3.912413
     25          6           0       -5.798116   -1.826958    1.563005
     26          6           0        2.657549   -0.115574   -2.488531
     27          6           0        1.751225    1.647703    2.471866
     28          6           0        1.447914    0.585501   -1.899478
     29          6           0        4.259806   -1.922702   -1.611065
     30          6           0       -5.852069   -2.700089   -1.754348
     31          6           0        5.383496   -1.424909   -0.820411
     32          6           0        3.410746    0.286382   -3.722345
     33          6           0        0.642732    1.609631   -2.361354
     34          6           0        2.765797    2.594943    3.121760
     35          6           0       -0.411923    2.082832   -1.570392
     36          6           0       -6.899116   -3.417601   -1.447163
     37          6           0        6.630955   -2.353945   -0.840610
     38          6           0       -1.325361    3.288345   -1.834178
     39          6           0       -2.222121    3.336222   -0.783366
     40          6           0       -1.949804    2.122779    0.098965
     41          6           0       -0.955502    4.148362   -2.874481
     42          6           0       -3.273683    4.314857   -0.387709
     43          6           0       -1.570569    5.368565   -3.069714
     44          1           0       -3.685733   -0.321880    1.246472
     45          1           0       -2.867056   -3.168083    1.703588
     46          1           0       -3.212330   -1.908611    2.904458
     47          1           0       -0.649959   -2.780132    0.488063
     48          1           0       -2.008440   -0.589016   -0.647955
     49          1           0        1.524218    0.486664    4.205291
     50          1           0        2.529586   -0.326451    2.906107
     51          1           0        3.016978   -2.591541    1.074212
     52          1           0       -2.212080   -0.397553    4.464610
     53          1           0       -0.856168    0.646982    4.621191
     54          1           0       -2.020054    0.752987    3.417152
     55          1           0       -5.639149   -1.256951    2.420572
     56          1           0       -5.982298   -2.825464    2.092628
     57          1           0       -6.823434   -1.701384    1.063417
     58          1           0        2.095712    1.695937    1.333791
     59          1           0        0.803764    2.113796    2.354306
     60          1           0        0.294359    0.417515   -0.223493
     61          1           0        4.747761   -1.828432   -2.610041
     62          1           0        4.051776   -2.994757   -1.378076
     63          1           0       -5.681196   -2.665688   -2.643555
     64          1           0        5.237214   -1.371689    0.087953
     65          1           0        5.409532   -0.435797   -1.079215
     66          1           0        4.304497   -0.282391   -3.663993
     67          1           0        3.589752    1.507081   -3.837015
     68          1           0        2.691902    0.011318   -4.984873
     69          1           0        0.939984    2.034496   -3.391591
     70          1           0       -7.070841   -3.823438   -0.489080
     71          1           0       -7.705445   -3.492831   -2.123758
     72          1           0        3.325698    4.381928    3.080610
     73          1           0       -0.250400    3.840548   -3.574497
     74          1           0       -3.955001    4.593939   -1.206625
     75          1           0       -3.789365    3.760055    0.386119
     76          1           0       -2.693013    5.352093    0.036640
     77          1           0        8.552642   -2.467081   -0.277391
     78          1           0       -1.283015    6.080598   -3.912684
     79          1           0       -2.366675    5.835016   -2.393216
 ---------------------------------------------------------------------

 SCF Done:  E(RB3LYP) =  -1947.74373827     A.U. after   17 cycles

 Excitation energies and oscillator strengths:

 Excited State   1:      Singlet-A      0.8569 eV 1446.81 nm  f=0.0014  <S**2>=0.000
     155 ->156         0.70382
 This state for optimization and/or second-order correction.
 Total Energy, E(TD-HF/TD-DFT) =  -1947.71224601
 Copying the excited state density for this state as the 1-particle RhoCI density.

 The electronic state is 1-A.
 Alpha  occ. eigenvalues --  -19.20534 -19.18110 -19.13919 -19.12366 -19.10806
 Alpha  occ. eigenvalues --  -19.08279 -14.37228 -14.36486 -14.32686 -14.31485
 Alpha  occ. eigenvalues --  -10.33326 -10.30253 -10.28305 -10.26897 -10.26201
 Alpha  occ. eigenvalues --  -10.26126 -10.25412 -10.24731 -10.23119 -10.22711
 Alpha  occ. eigenvalues --  -10.22549 -10.22031 -10.21798 -10.21750 -10.21507
 Alpha  occ. eigenvalues --  -10.21237 -10.21210 -10.21114 -10.20867 -10.20793
 Alpha  occ. eigenvalues --  -10.20040 -10.19737 -10.19578 -10.19458 -10.19286
 Alpha  occ. eigenvalues --  -10.19072 -10.17965 -10.17774 -10.16794 -10.16793
 Alpha  occ. eigenvalues --  -10.16417 -10.16195 -10.15648  -1.11991  -1.09924
 Alpha  occ. eigenvalues --   -1.05460  -1.01438  -1.01328  -1.01067  -0.98248
 Alpha  occ. eigenvalues --   -0.97359  -0.92295  -0.91910  -0.85260  -0.82129
 Alpha  occ. eigenvalues --   -0.81839  -0.80504  -0.80344  -0.80111  -0.78380
 Alpha  occ. eigenvalues --   -0.77143  -0.76527  -0.75503  -0.73906  -0.71714
 Alpha  occ. eigenvalues --   -0.70750  -0.70276  -0.69366  -0.68433  -0.68057
 Alpha  occ. eigenvalues --   -0.67274  -0.65798  -0.63037  -0.61350  -0.61040
 Alpha  occ. eigenvalues --   -0.60236  -0.60115  -0.59221  -0.57127  -0.56447
 Alpha  occ. eigenvalues --   -0.55878  -0.55641  -0.54909  -0.53288  -0.53028
 Alpha  occ. eigenvalues --   -0.52523  -0.52396  -0.51141  -0.50970  -0.50551
 Alpha  occ. eigenvalues --   -0.49143  -0.49060  -0.48764  -0.48504  -0.47687
 Alpha  occ. eigenvalues --   -0.47468  -0.47128  -0.46883  -0.45904  -0.45409
 Alpha  occ. eigenvalues --   -0.45254  -0.44950  -0.44876  -0.44377  -0.44197
 Alpha  occ. eigenvalues --   -0.43860  -0.43557  -0.43237  -0.42367  -0.42255
 Alpha  occ. eigenvalues --   -0.41728  -0.41443  -0.41383  -0.41058  -0.40826
 Alpha  occ. eigenvalues --   -0.40559  -0.40375  -0.39853  -0.39509  -0.39248
 Alpha  occ. eigenvalues --   -0.38716  -0.38336  -0.38263  -0.38015  -0.37751
 Alpha  occ. eigenvalues --   -0.37567  -0.37473  -0.37335  -0.37131  -0.36989
 Alpha  occ. eigenvalues --   -0.36821  -0.36609  -0.36136  -0.35137  -0.35077
 Alpha  occ. eigenvalues --   -0.34478  -0.33679  -0.33442  -0.32840  -0.32300
 Alpha  occ. eigenvalues --   -0.32070  -0.29738  -0.29586  -0.29392  -0.28505
 Alpha  occ. eigenvalues --   -0.27249  -0.26933  -0.26532  -0.24872  -0.23720
 Alpha  occ. eigenvalues --   -0.23507  -0.23033  -0.22520  -0.22264  -0.17783
 Alpha virt. eigenvalues --   -0.12192  -0.07222  -0.03543  -0.02612  -0.01408
 Alpha virt. eigenvalues --   -0.00130   0.00409   0.00787   0.02730   0.02823
 Alpha virt. eigenvalues --    0.03593   0.03984   0.04514   0.04818   0.05391

 Mulliken charges:
               1
     1  O   -0.213227
     2  O   -0.131318
     3  O   -0.201998
     4  O   -0.249939
     5  O   -0.218195
     6  O   -0.165442
     7  N    0.003575
     8  N   -0.214334
     9  N   -0.153922
    10  N   -0.372070
    11  C    0.233681
    12  C    0.104468
    13  C   -0.125775
    14  C   -0.095709
    15  C   -0.187924
    16  C   -0.065940
    17  C   -0.164100
    18  C    0.287695
    19  C   -0.051066
    20  C   -0.191219
    21  C    0.127987
    22  C    0.119020
    23  C   -0.068422
    24  C    0.243651
    25  C    0.074382
    26  C   -0.064509
    27  C   -0.078977
    28  C    0.084978
    29  C    0.090056
    30  C    0.115267
    31  C    0.149175
    32  C   -0.042166
    33  C   -0.090824
    34  C    0.076717
    35  C    0.096043
    36  C    0.009984
    37  C    0.143732
    38  C    0.123361
    39  C   -0.227730
    40  C    0.180740
    41  C   -0.005455
    42  C    0.049968
    43  C   -0.064559
    44  H   -0.033249
    45  H   -0.003051
    46  H   -0.017524
    47  H    0.145835
    48  H    0.131309
    49  H    0.003091
    50  H   -0.036587
    51  H    0.063104
    52  H   -0.025014
    53  H   -0.028712
    54  H   -0.034916
    55  H   -0.000394
    56  H    0.014978
    57  H    0.033003
    58  H    0.029004
    59  H    0.025484
    60  H    0.242567
    61  H    0.003691
    62  H    0.041458
    63  H   -0.121012
    64  H   -0.063337
    65  H   -0.007147
    66  H    0.019310
    67  H    0.065165
    68  H    0.046656
    69  H    0.019260
    70  H   -0.006700
    71  H    0.006052
    72  H    0.182331
    73  H   -0.031802
    74  H    0.042776
    75  H    0.030357
    76  H    0.060215
    77  H    0.254483
    78  H    0.039581
    79  H    0.040077
 Sum of Mulliken charges =  -0.00000

 Dipole moment (field-independent basis, Debye):
    X=              3.2215    Y=              4.4001    Z=             -0.6173  Tot=              5.4882
 Quadrupole moment (field-independent basis, Debye-Ang):
   XX=           -227.5986   YY=           -237.4514   ZZ=           -264.3046
   XY=             -2.6750   XZ=            -17.3284   YZ=            -17.1700

 Normal termination of Gaussian 16 at Thu Jul 25 04:45:27 2019.
