 Gaussian 16, Revision A.03,
 Gaussian 16:  ES64L-G16RevA.03 25-Dec-2016

 --------------------------
 # td=(NStates=1) B3LYP/SVP
 --------------------------

 --
 TD
 --
 Symbolic Z-matrix:
 Charge =  0 Multiplicity = 1

                         Standard orientation:
 ---------------------------------------------------------------------
 Center     Atomic      Atomic             Coordinates (Angstroms)
 Number     Number       Type             X           Y           Z
 ---------------------------------------------------------------------
      1          8           0       -3.362657   -1.153143   -2.880180
      2          8           0        3.007797    3.105070    3.120713
      3          8           0        3.904455    1.300941    4.210919
      4          8           0        7.617422   -1.516111   -0.813747
      5          8           0        6.516173   -3.112536   -1.964114
      6          8           0       -2.853094    1.545441    1.532541
      7          7           0       -0.264251   -2.386001    0.826172
      8          7           0       -2.709850   -1.122022   -0.608422
      9          7           0        1.188302    0.073073   -0.766318
     10          7           0       -1.114069    1.449588   -0.087442
     11          6           0       -3.361713   -1.374136    0.572812
     12          6           0       -2.555979   -2.382554    1.506396
     13          6           0       -1.167633   -2.104907    1.668073
     14          6           0       -0.466295   -1.332469    2.780811
     15          6           0        0.907721   -1.192490    2.405196
     16          6           0        1.071940   -1.956157    1.154424
     17          6           0       -4.742602   -2.000303    0.279204
     18          6           0        2.020317   -0.514149    3.191739
     19          6           0       -4.778718   -2.059572   -1.094802
     20          6           0        2.126574   -1.876502    0.132242
     21          6           0        2.125021   -0.874738   -0.785361
     22          6           0       -3.519553   -1.448121   -1.666380
     23          6           0        3.042761   -0.540813   -1.836439
     24          6           0       -1.244100   -0.665638    3.804426
     25          6           0       -5.674053   -2.213602    1.290311
     26          6           0        2.476691    0.607549   -2.427077
     27          6           0        1.938597    0.964169    2.709279
     28          6           0        1.384410    1.053852   -1.676395
     29          6           0        4.271511   -1.360780   -2.112948
     30          6           0       -5.840049   -2.357607   -2.040888
     31          6           0        5.414652   -1.059068   -1.247009
     32          6           0        3.045529    1.402217   -3.657957
     33          6           0        0.541755    2.135451   -1.884398
     34          6           0        3.008525    1.749855    3.441255
     35          6           0       -0.654230    2.347892   -1.079136
     36          6           0       -6.766937   -3.348265   -1.812583
     37          6           0        6.559545   -1.988705   -1.355455
     38          6           0       -1.475428    3.544407   -1.033767
     39          6           0       -2.357678    3.360640    0.010949
     40          6           0       -2.138068    2.075623    0.597842
     41          6           0       -1.309807    4.654519   -2.005024
     42          6           0       -3.505345    4.237777    0.434694
     43          6           0       -1.929281    5.756082   -2.091447
     44          1           0       -3.375314   -0.300810    1.269688
     45          1           0       -2.772921   -3.332370    0.990564
     46          1           0       -3.075070   -2.465685    2.560713
     47          1           0       -0.456679   -2.820840   -0.086365
     48          1           0       -1.940909   -0.367006   -0.878272
     49          1           0        2.110753   -0.555526    4.262935
     50          1           0        2.865020   -0.871140    2.793711
     51          1           0        2.929536   -2.688646    0.196400
     52          1           0       -1.942366   -1.399298    4.242647
     53          1           0       -0.501059   -0.160872    4.638794
     54          1           0       -1.718546    0.193472    3.230832
     55          1           0       -5.568232   -1.738010    2.265881
     56          1           0       -5.612662   -3.279367    1.502062
     57          1           0       -6.758896   -2.264097    1.056696
     58          1           0        2.195563    1.186152    1.712705
     59          1           0        0.907871    1.273981    3.002806
     60          1           0        0.271909    0.122314   -0.103510
     61          1           0        4.666834   -1.118423   -3.091169
     62          1           0        4.204546   -2.410109   -2.092974
     63          1           0       -5.905251   -1.793605   -2.964471
     64          1           0        5.094012   -1.044346   -0.189860
     65          1           0        5.980482   -0.176023   -1.383775
     66          1           0        3.942567    0.790610   -4.101535
     67          1           0        3.152741    2.435866   -3.522935
     68          1           0        2.445666    1.299590   -4.618763
     69          1           0        0.669674    3.025869   -2.683308
     70          1           0       -6.863117   -3.893289   -0.811746
     71          1           0       -7.607368   -3.778306   -2.433183
     72          1           0        3.842768    3.326735    3.649494
     73          1           0       -0.463904    4.292787   -2.812951
     74          1           0       -4.208089    4.435637   -0.326438
     75          1           0       -4.295190    3.698983    0.984520
     76          1           0       -3.178732    5.270632    0.919947
     77          1           0        8.555968   -2.061992   -1.075814
     78          1           0       -1.792057    6.523766   -2.985074
     79          1           0       -2.829718    5.746872   -1.350751
 ---------------------------------------------------------------------

 SCF Done:  E(RB3LYP) =  -1947.82817429     A.U. after   30 cycles

 Excitation energies and oscillator strengths:

 Excited State   1:      Singlet-A      0.3426 eV 3618.61 nm  f=0.0003  <S**2>=0.000
     155 ->156         0.70442
 This state for optimization and/or second-order correction.
 Total Energy, E(TD-HF/TD-DFT) =  -1947.81558289
 Copying the excited state density for this state as the 1-particle RhoCI density.

 The electronic state is 1-A.
 Alpha  occ. eigenvalues --  -19.21580 -19.18271 -19.13098 -19.12441 -19.12438
 Alpha  occ. eigenvalues --  -19.07568 -14.38212 -14.37956 -14.33588 -14.31455
 Alpha  occ. eigenvalues --  -10.33071 -10.32296 -10.28202 -10.26880 -10.26261
 Alpha  occ. eigenvalues --  -10.26120 -10.25309 -10.23691 -10.23599 -10.23394
 Alpha  occ. eigenvalues --  -10.23257 -10.22574 -10.22250 -10.21936 -10.21787
 Alpha  occ. eigenvalues --  -10.21422 -10.21329 -10.21201 -10.21047 -10.21044
 Alpha  occ. eigenvalues --  -10.20522 -10.20452 -10.20362 -10.20014 -10.19725
 Alpha  occ. eigenvalues --  -10.18953 -10.18930 -10.18876 -10.18827 -10.18416
 Alpha  occ. eigenvalues --  -10.18346 -10.18253 -10.17037  -1.11666  -1.07768
 Alpha  occ. eigenvalues --   -1.02001  -1.00344  -0.98864  -0.98291  -0.98101
 Alpha  occ. eigenvalues --   -0.97861  -0.92830  -0.92267  -0.84794  -0.83566
 Alpha  occ. eigenvalues --   -0.81826  -0.81068  -0.81017  -0.80055  -0.78511
 Alpha  occ. eigenvalues --   -0.77207  -0.76376  -0.76008  -0.74898  -0.73235
 Alpha  occ. eigenvalues --   -0.71610  -0.70390  -0.70165  -0.69745  -0.68282
 Alpha  occ. eigenvalues --   -0.66518  -0.66170  -0.63614  -0.62004  -0.61107
 Alpha  occ. eigenvalues --   -0.59365  -0.58832  -0.58256  -0.57506  -0.56612
 Alpha  occ. eigenvalues --   -0.56487  -0.55693  -0.55516  -0.53331  -0.52671
 Alpha  occ. eigenvalues --   -0.52503  -0.52139  -0.51314  -0.51075  -0.50063
 Alpha  occ. eigenvalues --   -0.49247  -0.48986  -0.48781  -0.48374  -0.48095
 Alpha  occ. eigenvalues --   -0.47852  -0.47269  -0.47200  -0.46624  -0.45755
 Alpha  occ. eigenvalues --   -0.45170  -0.44951  -0.44676  -0.44564  -0.44229
 Alpha  occ. eigenvalues --   -0.43894  -0.43570  -0.43523  -0.42934  -0.42518
 Alpha  occ. eigenvalues --   -0.41903  -0.41689  -0.41633  -0.41422  -0.41123
 Alpha  occ. eigenvalues --   -0.40912  -0.40422  -0.40220  -0.40084  -0.39554
 Alpha  occ. eigenvalues --   -0.39202  -0.38771  -0.38343  -0.38125  -0.37847
 Alpha  occ. eigenvalues --   -0.37696  -0.37483  -0.36905  -0.36765  -0.36518
 Alpha  occ. eigenvalues --   -0.36159  -0.35860  -0.35376  -0.34801  -0.33708
 Alpha  occ. eigenvalues --   -0.33386  -0.32997  -0.32748  -0.32089  -0.31663
 Alpha  occ. eigenvalues --   -0.31462  -0.29650  -0.29058  -0.28671  -0.28377
 Alpha  occ. eigenvalues --   -0.28204  -0.27334  -0.26285  -0.24465  -0.23718
 Alpha  occ. eigenvalues --   -0.23235  -0.23103  -0.22489  -0.21655  -0.17865
 Alpha virt. eigenvalues --   -0.14045  -0.08612  -0.03570  -0.02233  -0.01201
 Alpha virt. eigenvalues --   -0.01072  -0.00226   0.01432   0.02012   0.02157
 Alpha virt. eigenvalues --    0.03466   0.04115   0.04230   0.04623   0.05237

 Mulliken charges:
               1
     1  O   -0.288074
     2  O   -0.222949
     3  O   -0.286664
     4  O   -0.194465
     5  O   -0.302468
     6  O   -0.272605
     7  N   -0.001877
     8  N   -0.183769
     9  N   -0.096820
    10  N   -0.357544
    11  C   -0.066139
    12  C    0.148210
    13  C   -0.096866
    14  C   -0.148312
    15  C   -0.132013
    16  C   -0.055898
    17  C   -0.084171
    18  C    0.236393
    19  C   -0.053692
    20  C   -0.140203
    21  C    0.122916
    22  C    0.121885
    23  C   -0.058770
    24  C    0.028009
    25  C    0.118609
    26  C   -0.132328
    27  C   -0.007962
    28  C    0.159987
    29  C    0.193220
    30  C    0.011427
    31  C    0.003382
    32  C    0.077488
    33  C   -0.128004
    34  C    0.156160
    35  C    0.062244
    36  C   -0.094939
    37  C    0.119914
    38  C    0.059745
    39  C   -0.175574
    40  C    0.204011
    41  C   -0.001626
    42  C    0.075073
    43  C   -0.073559
    44  H    0.110007
    45  H   -0.031782
    46  H    0.009906
    47  H    0.116485
    48  H    0.183135
    49  H    0.022100
    50  H   -0.058565
    51  H    0.040257
    52  H    0.018922
    53  H    0.013881
    54  H    0.067206
    55  H    0.026178
    56  H    0.011944
    57  H    0.014081
    58  H    0.029729
    59  H    0.063903
    60  H    0.234815
    61  H   -0.011066
    62  H    0.016195
    63  H    0.015997
    64  H    0.040641
    65  H    0.013604
    66  H    0.024385
    67  H    0.029296
    68  H    0.031691
    69  H    0.037136
    70  H    0.008823
    71  H    0.029720
    72  H    0.187774
    73  H    0.009941
    74  H    0.016280
    75  H    0.017211
    76  H    0.059869
    77  H    0.266817
    78  H    0.058819
    79  H    0.033282
 Sum of Mulliken charges =  -0.00000

 Dipole moment (field-independent basis, Debye):
    X=              4.5102    Y=              3.2159    Z=             -1.3699  Tot=              5.7062
 Quadrupole moment (field-independent basis, Debye-Ang):
   XX=           -221.4938   YY=           -243.0683   ZZ=           -269.7954
   XY=              5.7244   XZ=            -25.9237   YZ=            -18.1905

 Normal termination of Gaussian 16 at Fri Jul 26 09:12:57 2019.
