 Gaussian 16, Revision A.03,
 Gaussian 16:  ES64L-G16RevA.03 25-Dec-2016

 --------------------------
 # td=(NStates=1) B3LYP/SVP
 --------------------------

 --
 TD
 --
 Symbolic Z-matrix:
 Charge =  0 Multiplicity = 1

                         Standard orientation:
 ---------------------------------------------------------------------
 Center     Atomic      Atomic             Coordinates (Angstroms)
 Number     Number       Type             X           Y           Z
 ---------------------------------------------------------------------
      1          8           0       -3.134751   -1.353884   -2.889201
      2          8           0        2.817371    3.061254    3.298994
      3          8           0        3.403120    1.433463    4.723505
      4          8           0        7.624261   -1.630780   -0.511624
      5          8           0        6.700868   -2.766679   -2.296126
      6          8           0       -2.653227    1.515759    1.482399
      7          7           0       -0.185197   -2.465661    0.844055
      8          7           0       -2.525211   -1.283193   -0.609115
      9          7           0        1.097812    0.163061   -0.803890
     10          7           0       -1.013687    1.561286   -0.112274
     11          6           0       -3.276756   -1.519769    0.618331
     12          6           0       -2.630572   -2.490387    1.585354
     13          6           0       -1.134715   -2.155052    1.798608
     14          6           0       -0.469716   -1.312236    2.815560
     15          6           0        0.899155   -1.243764    2.380408
     16          6           0        0.959664   -1.895028    1.132112
     17          6           0       -4.586326   -1.950913    0.123589
     18          6           0        1.994825   -0.566114    3.056884
     19          6           0       -4.636684   -2.031030   -1.215114
     20          6           0        2.110828   -1.755331    0.212057
     21          6           0        2.082922   -0.782425   -0.781129
     22          6           0       -3.400761   -1.553132   -1.749690
     23          6           0        3.000728   -0.528715   -1.917123
     24          6           0       -1.114125   -0.708080    4.030521
     25          6           0       -5.681557   -2.478035    1.160078
     26          6           0        2.600937    0.687168   -2.564060
     27          6           0        1.906523    0.884602    2.912539
     28          6           0        1.412309    1.118948   -1.819461
     29          6           0        4.258573   -1.328974   -2.263855
     30          6           0       -5.705628   -2.391672   -2.131791
     31          6           0        5.455244   -0.960117   -1.313492
     32          6           0        3.174095    1.397091   -3.655754
     33          6           0        0.545718    2.228479   -1.902001
     34          6           0        2.811108    1.791498    3.715549
     35          6           0       -0.671893    2.492026   -0.991714
     36          6           0       -6.814336   -3.290218   -1.849041
     37          6           0        6.661598   -1.917200   -1.467844
     38          6           0       -1.469026    3.582366   -1.025516
     39          6           0       -2.458507    3.353843   -0.094518
     40          6           0       -2.041829    2.168105    0.562904
     41          6           0       -1.399859    4.617570   -2.042023
     42          6           0       -3.640284    4.226984    0.469703
     43          6           0       -2.285484    5.658330   -2.403504
     44          1           0       -3.475904   -0.431614    1.150338
     45          1           0       -2.673262   -3.455771    1.180380
     46          1           0       -3.159027   -2.557397    2.416952
     47          1           0       -0.534166   -2.950205   -0.027987
     48          1           0       -1.944910   -0.439979   -0.622032
     49          1           0        1.940070   -0.845254    4.172796
     50          1           0        2.979930   -1.082843    2.812149
     51          1           0        3.031689   -2.460761   -0.028665
     52          1           0       -1.864291   -1.287974    4.565435
     53          1           0       -0.370184   -0.360171    4.682412
     54          1           0       -1.530481    0.276255    3.653399
     55          1           0       -5.695967   -2.134375    2.266342
     56          1           0       -5.580789   -3.611193    1.365945
     57          1           0       -6.901695   -2.112692    0.960261
     58          1           0        2.151292    1.119392    1.840471
     59          1           0        0.599794    1.165245    2.881442
     60          1           0        0.337105    0.568942    0.060587
     61          1           0        4.620093   -1.087436   -3.216871
     62          1           0        4.035215   -2.496616   -2.246771
     63          1           0       -5.567590   -1.993078   -3.096240
     64          1           0        5.115523   -1.083363   -0.397303
     65          1           0        5.925979   -0.052893   -1.755653
     66          1           0        4.018930    0.706837   -3.950126
     67          1           0        3.758914    2.316582   -3.347251
     68          1           0        2.321088    1.529475   -4.478293
     69          1           0        0.637739    2.909512   -2.625954
     70          1           0       -6.898016   -3.757573   -0.988485
     71          1           0       -7.442578   -3.624209   -2.627941
     72          1           0        3.196645    3.553260    4.290599
     73          1           0       -0.397269    4.711020   -2.581857
     74          1           0       -4.558043    4.014919   -0.212078
     75          1           0       -3.991465    3.814985    1.516981
     76          1           0       -3.291478    5.450407    0.194691
     77          1           0        8.297283   -2.373052   -0.749661
     78          1           0       -2.144130    6.360956   -3.136003
     79          1           0       -3.360214    5.706237   -1.936431
 ---------------------------------------------------------------------

 SCF Done:  E(RB3LYP) =  -1947.76964082     A.U. after   18 cycles

 Excitation energies and oscillator strengths:

 Excited State   1:      Singlet-A      0.7787 eV 1592.28 nm  f=0.0005  <S**2>=0.000
     155 ->156         0.70384
 This state for optimization and/or second-order correction.
 Total Energy, E(TD-HF/TD-DFT) =  -1947.74102574
 Copying the excited state density for this state as the 1-particle RhoCI density.

 The electronic state is 1-A.
 Alpha  occ. eigenvalues --  -19.19943 -19.18883 -19.14790 -19.12079 -19.11955
 Alpha  occ. eigenvalues --  -19.09190 -14.37169 -14.35938 -14.31780 -14.31294
 Alpha  occ. eigenvalues --  -10.33231 -10.31388 -10.27757 -10.26524 -10.26020
 Alpha  occ. eigenvalues --  -10.25192 -10.24600 -10.23533 -10.23406 -10.23038
 Alpha  occ. eigenvalues --  -10.22770 -10.22575 -10.22423 -10.22332 -10.22199
 Alpha  occ. eigenvalues --  -10.22040 -10.21946 -10.21916 -10.21647 -10.21455
 Alpha  occ. eigenvalues --  -10.21286 -10.21057 -10.20845 -10.20729 -10.20254
 Alpha  occ. eigenvalues --  -10.19698 -10.18608 -10.18338 -10.18141 -10.18137
 Alpha  occ. eigenvalues --  -10.17372 -10.17087 -10.16631  -1.10431  -1.08269
 Alpha  occ. eigenvalues --   -1.02582  -1.02542  -1.01837  -0.98606  -0.97477
 Alpha  occ. eigenvalues --   -0.96534  -0.95132  -0.91570  -0.83076  -0.82017
 Alpha  occ. eigenvalues --   -0.81493  -0.80729  -0.79829  -0.78633  -0.77798
 Alpha  occ. eigenvalues --   -0.76167  -0.75213  -0.74638  -0.73172  -0.72465
 Alpha  occ. eigenvalues --   -0.71147  -0.70050  -0.68952  -0.68158  -0.66679
 Alpha  occ. eigenvalues --   -0.65775  -0.65473  -0.63406  -0.61628  -0.60388
 Alpha  occ. eigenvalues --   -0.59715  -0.58716  -0.56834  -0.56511  -0.55996
 Alpha  occ. eigenvalues --   -0.55376  -0.54507  -0.54195  -0.53728  -0.52935
 Alpha  occ. eigenvalues --   -0.52340  -0.51844  -0.50924  -0.49880  -0.49764
 Alpha  occ. eigenvalues --   -0.49248  -0.48780  -0.48352  -0.48032  -0.47543
 Alpha  occ. eigenvalues --   -0.47042  -0.46575  -0.46338  -0.46010  -0.45546
 Alpha  occ. eigenvalues --   -0.45416  -0.45071  -0.44097  -0.44025  -0.43826
 Alpha  occ. eigenvalues --   -0.43287  -0.42839  -0.42674  -0.41822  -0.41690
 Alpha  occ. eigenvalues --   -0.41432  -0.41398  -0.40916  -0.40701  -0.40657
 Alpha  occ. eigenvalues --   -0.40362  -0.39807  -0.39610  -0.39540  -0.39388
 Alpha  occ. eigenvalues --   -0.39193  -0.38778  -0.38591  -0.38320  -0.37961
 Alpha  occ. eigenvalues --   -0.37725  -0.37675  -0.37610  -0.37305  -0.37097
 Alpha  occ. eigenvalues --   -0.36168  -0.35903  -0.35670  -0.35206  -0.34966
 Alpha  occ. eigenvalues --   -0.34276  -0.33787  -0.32199  -0.31481  -0.31126
 Alpha  occ. eigenvalues --   -0.30747  -0.29972  -0.29615  -0.29490  -0.28752
 Alpha  occ. eigenvalues --   -0.27491  -0.26251  -0.25986  -0.24994  -0.24181
 Alpha  occ. eigenvalues --   -0.24050  -0.22368  -0.22154  -0.21383  -0.18760
 Alpha virt. eigenvalues --   -0.13543  -0.08242  -0.04919  -0.02966  -0.01625
 Alpha virt. eigenvalues --   -0.00186   0.00773   0.00888   0.01981   0.03019
 Alpha virt. eigenvalues --    0.03148   0.03238   0.03684   0.04608   0.04776

 Mulliken charges:
               1
     1  O   -0.185837
     2  O   -0.254602
     3  O   -0.246496
     4  O   -0.230154
     5  O   -0.191485
     6  O   -0.258306
     7  N   -0.002067
     8  N   -0.274979
     9  N   -0.225853
    10  N   -0.266588
    11  C    0.007591
    12  C    0.365237
    13  C   -0.161336
    14  C   -0.141342
    15  C   -0.149165
    16  C    0.024226
    17  C   -0.119229
    18  C    0.132200
    19  C   -0.029301
    20  C   -0.123055
    21  C    0.071488
    22  C    0.133225
    23  C   -0.057193
    24  C    0.131595
    25  C   -0.058242
    26  C   -0.099341
    27  C   -0.102846
    28  C    0.150321
    29  C    0.041062
    30  C   -0.021900
    31  C    0.095477
    32  C    0.057833
    33  C   -0.027895
    34  C    0.175941
    35  C    0.050166
    36  C    0.037656
    37  C    0.108714
    38  C    0.062680
    39  C   -0.151577
    40  C    0.156734
    41  C   -0.061612
    42  C   -0.014060
    43  C   -0.028367
    44  H    0.088912
    45  H   -0.056127
    46  H   -0.068555
    47  H    0.140052
    48  H    0.147602
    49  H    0.016709
    50  H    0.004116
    51  H    0.010551
    52  H    0.015292
    53  H   -0.024584
    54  H    0.033722
    55  H    0.027452
    56  H    0.050635
    57  H    0.058442
    58  H    0.027105
    59  H    0.094754
    60  H    0.280818
    61  H   -0.008492
    62  H    0.053184
    63  H   -0.009223
    64  H   -0.002936
    65  H    0.046256
    66  H    0.007412
    67  H    0.049904
    68  H    0.073423
    69  H   -0.092647
    70  H   -0.025624
    71  H    0.016165
    72  H    0.249923
    73  H    0.025586
    74  H    0.052325
    75  H    0.072343
    76  H    0.068521
    77  H    0.201038
    78  H    0.014176
    79  H    0.042456
 Sum of Mulliken charges =  -0.00000

 Dipole moment (field-independent basis, Debye):
    X=              2.1569    Y=              3.1040    Z=             -1.4946  Tot=              4.0646
 Quadrupole moment (field-independent basis, Debye-Ang):
   XX=           -232.7574   YY=           -230.3379   ZZ=           -268.1268
   XY=              1.0370   XZ=            -21.9341   YZ=            -14.1342

 Normal termination of Gaussian 16 at Sun Jul 28 19:22:59 2019.
