 Gaussian 16, Revision A.03,
 Gaussian 16:  ES64L-G16RevA.03 25-Dec-2016

 --------------------------
 # td=(NStates=1) B3LYP/SVP
 --------------------------

 --
 TD
 --
 Symbolic Z-matrix:
 Charge =  0 Multiplicity = 1

                         Standard orientation:
 ---------------------------------------------------------------------
 Center     Atomic      Atomic             Coordinates (Angstroms)
 Number     Number       Type             X           Y           Z
 ---------------------------------------------------------------------
      1          8           0       -3.291619   -0.845255   -3.072556
      2          8           0        3.536981    2.308634    3.442858
      3          8           0        3.949986    0.275579    4.534560
      4          8           0        7.765867   -1.388884   -1.059170
      5          8           0        6.705002   -2.290659   -2.748560
      6          8           0       -2.778462    1.250882    1.711912
      7          7           0       -0.342544   -2.582476    0.409764
      8          7           0       -2.596753   -1.273284   -0.887678
      9          7           0        1.149254    0.221476   -0.631864
     10          7           0       -1.035572    1.476839    0.164850
     11          6           0       -3.401587   -1.475084    0.426823
     12          6           0       -2.606616   -2.627149    1.160047
     13          6           0       -1.199240   -2.371321    1.402687
     14          6           0       -0.514701   -1.756941    2.605323
     15          6           0        0.820233   -1.664465    2.148835
     16          6           0        0.897726   -1.994723    0.818637
     17          6           0       -4.737840   -1.755411   -0.085330
     18          6           0        1.922338   -1.040695    3.023001
     19          6           0       -4.784605   -1.677657   -1.422751
     20          6           0        2.037500   -1.927842   -0.071274
     21          6           0        2.122864   -0.752788   -0.827926
     22          6           0       -3.494934   -1.114900   -1.913969
     23          6           0        3.003677   -0.217273   -1.913219
     24          6           0       -1.190688   -1.425577    3.717873
     25          6           0       -5.784287   -2.374233    0.791254
     26          6           0        2.432071    1.049362   -2.317661
     27          6           0        2.085541    0.492120    2.989637
     28          6           0        1.288016    1.263429   -1.574032
     29          6           0        4.182101   -0.976746   -2.294517
     30          6           0       -5.973437   -1.855513   -2.325131
     31          6           0        5.457185   -0.617717   -1.455223
     32          6           0        3.083917    1.786854   -3.442720
     33          6           0        0.385392    2.344483   -1.541275
     34          6           0        3.294217    1.026204    3.807651
     35          6           0       -0.650548    2.484610   -0.661269
     36          6           0       -7.081030   -2.701471   -2.149886
     37          6           0        6.610494   -1.530233   -1.799938
     38          6           0       -1.556399    3.686344   -0.495545
     39          6           0       -2.416750    3.352365    0.529251
     40          6           0       -2.137308    1.967696    0.913855
     41          6           0       -1.381940    4.823008   -1.262103
     42          6           0       -3.575863    4.064405    1.119781
     43          6           0       -2.021196    6.018150   -1.188197
     44          1           0       -3.478007   -0.436130    1.167721
     45          1           0       -2.939838   -3.468665    0.601889
     46          1           0       -3.104961   -2.726304    2.174736
     47          1           0       -0.247370   -2.804220   -0.648579
     48          1           0       -2.179530   -0.497040   -0.760115
     49          1           0        1.903571   -1.305811    4.115660
     50          1           0        2.932017   -1.468728    3.124945
     51          1           0        2.822761   -2.673567   -0.140092
     52          1           0       -1.877381   -2.368440    4.030915
     53          1           0       -0.584396   -1.207903    4.765458
     54          1           0       -1.960197   -0.583665    3.723131
     55          1           0       -5.773594   -1.808315    1.859729
     56          1           0       -5.857495   -3.458092    0.903748
     57          1           0       -6.723858   -1.987442    0.430860
     58          1           0        2.085383    0.594452    1.860712
     59          1           0        1.294599    0.967286    3.465093
     60          1           0        0.299506    0.223731    0.018697
     61          1           0        4.513275   -0.885141   -3.419172
     62          1           0        3.909164   -2.035155   -2.307714
     63          1           0       -5.922931   -1.200686   -3.285204
     64          1           0        5.323598   -0.679614   -0.132130
     65          1           0        5.749680    0.332815   -1.922754
     66          1           0        4.205201    1.309248   -3.763364
     67          1           0        3.288095    3.003431   -3.176714
     68          1           0        2.790733    1.912696   -4.628795
     69          1           0        0.615204    3.122119   -2.149502
     70          1           0       -6.779759   -3.435485   -1.212437
     71          1           0       -8.029040   -2.669997   -2.886603
     72          1           0        4.091972    2.597799    3.962218
     73          1           0       -0.567993    4.757735   -2.208463
     74          1           0       -4.330287    4.362828    0.463955
     75          1           0       -4.059107    3.627178    2.110860
     76          1           0       -3.158666    5.246335    1.527821
     77          1           0        8.592982   -1.747793   -1.455393
     78          1           0       -1.933348    6.822891   -1.885749
     79          1           0       -2.918546    6.179649   -0.459353
 ---------------------------------------------------------------------

 SCF Done:  E(RB3LYP) =  -1947.70508123     A.U. after   20 cycles

 Excitation energies and oscillator strengths:

 Excited State   1:      Singlet-A      0.5928 eV 2091.43 nm  f=0.0003  <S**2>=0.000
     155 ->156         0.70431
 This state for optimization and/or second-order correction.
 Total Energy, E(TD-HF/TD-DFT) =  -1947.68329554
 Copying the excited state density for this state as the 1-particle RhoCI density.

 The electronic state is 1-A.
 Alpha  occ. eigenvalues --  -19.18564 -19.17733 -19.13686 -19.13388 -19.12112
 Alpha  occ. eigenvalues --  -19.08811 -14.37662 -14.37043 -14.31394 -14.30669
 Alpha  occ. eigenvalues --  -10.33567 -10.32958 -10.28116 -10.26692 -10.26270
 Alpha  occ. eigenvalues --  -10.25958 -10.25553 -10.25361 -10.24578 -10.24408
 Alpha  occ. eigenvalues --  -10.24004 -10.23175 -10.23029 -10.22460 -10.22273
 Alpha  occ. eigenvalues --  -10.21779 -10.21765 -10.21461 -10.21393 -10.21161
 Alpha  occ. eigenvalues --  -10.20754 -10.20200 -10.20004 -10.20004 -10.19667
 Alpha  occ. eigenvalues --  -10.19424 -10.19074 -10.18947 -10.18814 -10.18231
 Alpha  occ. eigenvalues --  -10.18044 -10.18013 -10.17167  -1.12747  -1.09161
 Alpha  occ. eigenvalues --   -1.01897  -1.01733  -1.01611  -0.99649  -0.98569
 Alpha  occ. eigenvalues --   -0.96438  -0.92838  -0.92635  -0.83966  -0.83024
 Alpha  occ. eigenvalues --   -0.81925  -0.81053  -0.80212  -0.79000  -0.78739
 Alpha  occ. eigenvalues --   -0.76881  -0.76297  -0.75396  -0.73599  -0.72455
 Alpha  occ. eigenvalues --   -0.70894  -0.70439  -0.69762  -0.69201  -0.67967
 Alpha  occ. eigenvalues --   -0.67442  -0.65849  -0.63328  -0.61794  -0.61287
 Alpha  occ. eigenvalues --   -0.60487  -0.59280  -0.58035  -0.57009  -0.56819
 Alpha  occ. eigenvalues --   -0.55649  -0.55057  -0.54687  -0.53583  -0.53104
 Alpha  occ. eigenvalues --   -0.51680  -0.51366  -0.50666  -0.50248  -0.49406
 Alpha  occ. eigenvalues --   -0.49150  -0.48786  -0.48402  -0.48071  -0.47867
 Alpha  occ. eigenvalues --   -0.47640  -0.47322  -0.46219  -0.45977  -0.45628
 Alpha  occ. eigenvalues --   -0.45209  -0.45127  -0.44842  -0.44245  -0.43785
 Alpha  occ. eigenvalues --   -0.43461  -0.43143  -0.42718  -0.42561  -0.41991
 Alpha  occ. eigenvalues --   -0.41772  -0.41507  -0.41084  -0.40684  -0.40553
 Alpha  occ. eigenvalues --   -0.40305  -0.40238  -0.40109  -0.39369  -0.39198
 Alpha  occ. eigenvalues --   -0.38657  -0.38259  -0.38144  -0.37760  -0.37431
 Alpha  occ. eigenvalues --   -0.37367  -0.36964  -0.36647  -0.36489  -0.36223
 Alpha  occ. eigenvalues --   -0.35879  -0.35767  -0.34461  -0.34275  -0.33806
 Alpha  occ. eigenvalues --   -0.33498  -0.32594  -0.32488  -0.32210  -0.31513
 Alpha  occ. eigenvalues --   -0.29864  -0.29327  -0.29002  -0.28906  -0.28520
 Alpha  occ. eigenvalues --   -0.28347  -0.26837  -0.26396  -0.25700  -0.24084
 Alpha  occ. eigenvalues --   -0.23863  -0.23563  -0.22380  -0.22021  -0.18222
 Alpha virt. eigenvalues --   -0.13480  -0.08833  -0.03981  -0.02077  -0.01964
 Alpha virt. eigenvalues --   -0.00779   0.00874   0.01117   0.01602   0.02662
 Alpha virt. eigenvalues --    0.02849   0.03346   0.04160   0.04332   0.04594

 Mulliken charges:
               1
     1  O   -0.211190
     2  O   -0.062100
     3  O   -0.236587
     4  O   -0.232125
     5  O   -0.230372
     6  O   -0.237830
     7  N   -0.056550
     8  N   -0.125733
     9  N   -0.159144
    10  N   -0.322619
    11  C   -0.096466
    12  C    0.235411
    13  C   -0.080559
    14  C    0.033757
    15  C    0.006580
    16  C   -0.058584
    17  C   -0.139510
    18  C    0.022352
    19  C   -0.078442
    20  C   -0.108625
    21  C    0.116460
    22  C    0.113890
    23  C   -0.036667
    24  C   -0.089184
    25  C    0.053196
    26  C    0.003161
    27  C    0.011280
    28  C    0.142228
    29  C    0.008194
    30  C   -0.044112
    31  C   -0.020433
    32  C   -0.121694
    33  C   -0.041886
    34  C    0.129912
    35  C    0.115266
    36  C   -0.104984
    37  C    0.141924
    38  C    0.145978
    39  C   -0.145218
    40  C    0.186782
    41  C   -0.106309
    42  C   -0.004916
    43  C   -0.051026
    44  H    0.128509
    45  H   -0.034005
    46  H   -0.018503
    47  H    0.169238
    48  H    0.073947
    49  H   -0.015890
    50  H   -0.012560
    51  H    0.006096
    52  H    0.023809
    53  H    0.021191
    54  H    0.046048
    55  H    0.019274
    56  H    0.054826
    57  H    0.021330
    58  H    0.050761
    59  H    0.016396
    60  H    0.222516
    61  H    0.043241
    62  H    0.030484
    63  H    0.031695
    64  H    0.102378
    65  H    0.055043
    66  H    0.039272
    67  H    0.052439
    68  H    0.073700
    69  H   -0.090027
    70  H    0.048717
    71  H    0.065047
    72  H    0.080715
    73  H    0.041374
    74  H    0.032182
    75  H    0.062188
    76  H    0.033056
    77  H    0.201659
    78  H    0.025172
    79  H    0.035176
 Sum of Mulliken charges =  -0.00000

 Dipole moment (field-independent basis, Debye):
    X=              3.5695    Y=              4.3054    Z=             -0.8979  Tot=              5.6643
 Quadrupole moment (field-independent basis, Debye-Ang):
   XX=           -233.5774   YY=           -234.2186   ZZ=           -268.9150
   XY=              6.8469   XZ=            -20.1825   YZ=             -5.9956

 Normal termination of Gaussian 16 at Sun Jul 28 21:04:58 2019.
