 Gaussian 16, Revision A.03,
 Gaussian 16:  ES64L-G16RevA.03 25-Dec-2016

 --------------------------
 # td=(NStates=1) B3LYP/SVP
 --------------------------

 --
 TD
 --
 Symbolic Z-matrix:
 Charge =  0 Multiplicity = 1

                         Standard orientation:
 ---------------------------------------------------------------------
 Center     Atomic      Atomic             Coordinates (Angstroms)
 Number     Number       Type             X           Y           Z
 ---------------------------------------------------------------------
      1          8           0       -3.027781   -1.661418   -2.726764
      2          8           0        2.996992    3.438999    2.987063
      3          8           0        3.770145    1.754272    4.192575
      4          8           0        7.837759   -1.267371   -0.888621
      5          8           0        6.727369   -3.170773   -1.718551
      6          8           0       -2.765746    1.745038    1.392712
      7          7           0       -0.248166   -2.315711    1.130500
      8          7           0       -2.639549   -1.270846   -0.494419
      9          7           0        1.062872   -0.045069   -0.761328
     10          7           0       -1.141383    1.430633   -0.339576
     11          6           0       -3.346953   -1.213088    0.722307
     12          6           0       -2.640749   -2.144835    1.845136
     13          6           0       -1.194039   -1.878215    2.036462
     14          6           0       -0.551774   -0.951348    2.952364
     15          6           0        0.791933   -0.908792    2.491957
     16          6           0        0.956979   -1.832406    1.444214
     17          6           0       -4.718942   -1.913857    0.381556
     18          6           0        1.842879   -0.165366    3.152977
     19          6           0       -4.703965   -2.269802   -0.991461
     20          6           0        2.103918   -1.885474    0.484552
     21          6           0        2.151834   -1.032173   -0.582568
     22          6           0       -3.310607   -1.758260   -1.558040
     23          6           0        3.050179   -0.749832   -1.735133
     24          6           0       -1.247021   -0.053589    3.897257
     25          6           0       -5.742238   -2.040246    1.470855
     26          6           0        2.539013    0.278855   -2.418656
     27          6           0        1.912070    1.355174    2.711570
     28          6           0        1.398066    0.695686   -1.859734
     29          6           0        4.265685   -1.655475   -1.812300
     30          6           0       -5.734411   -2.729256   -1.859272
     31          6           0        5.456856   -1.211010   -1.059354
     32          6           0        3.109321    0.863651   -3.804717
     33          6           0        0.465953    1.784976   -2.142967
     34          6           0        2.977194    2.177210    3.361323
     35          6           0       -0.675944    2.131259   -1.335523
     36          6           0       -6.920520   -3.461564   -1.576331
     37          6           0        6.691630   -2.070596   -1.250074
     38          6           0       -1.480317    3.392036   -1.470479
     39          6           0       -2.412277    3.355318   -0.418318
     40          6           0       -2.129110    2.128535    0.373737
     41          6           0       -1.360014    4.366184   -2.611570
     42          6           0       -3.642934    4.247212   -0.035344
     43          6           0       -2.068758    5.454504   -2.890923
     44          1           0       -3.361307   -0.284491    1.166624
     45          1           0       -2.911997   -3.081197    1.499391
     46          1           0       -3.093719   -1.957015    2.887429
     47          1           0       -0.560628   -3.126573    0.463411
     48          1           0       -1.806324   -0.721477   -0.556008
     49          1           0        1.629612   -0.295928    4.325870
     50          1           0        2.892251   -0.563963    3.000876
     51          1           0        2.930269   -2.760874    0.347930
     52          1           0       -2.093980   -0.760169    4.445058
     53          1           0       -0.391941    0.129228    4.841858
     54          1           0       -1.783567    0.918900    3.593119
     55          1           0       -5.336169   -1.397687    2.323529
     56          1           0       -5.697935   -2.972595    1.874985
     57          1           0       -6.664895   -1.769710    1.189824
     58          1           0        2.144607    1.527101    1.525749
     59          1           0        0.901994    1.849338    2.906288
     60          1           0        0.543181    0.505995   -0.016869
     61          1           0        4.400526   -1.743716   -3.029461
     62          1           0        3.751291   -2.654381   -1.543943
     63          1           0       -5.175835   -2.409275   -2.827737
     64          1           0        5.219646   -1.287715   -0.017594
     65          1           0        5.664909   -0.075548   -1.152840
     66          1           0        3.859035    0.394641   -4.020106
     67          1           0        3.505658    1.950601   -3.780127
     68          1           0        2.293883    1.104927   -4.703358
     69          1           0        0.534791    2.317366   -3.064915
     70          1           0       -7.341117   -3.709447   -0.631658
     71          1           0       -7.447911   -3.572779   -2.529444
     72          1           0        3.649760    4.008376    3.650201
     73          1           0       -0.667018    4.089097   -3.353317
     74          1           0       -4.343187    4.322623   -1.042124
     75          1           0       -4.176650    3.845839    0.717211
     76          1           0       -3.283104    5.382392    0.413305
     77          1           0        8.573065   -1.898833   -0.894206
     78          1           0       -1.966995    5.846544   -3.888157
     79          1           0       -2.934149    5.714899   -2.255355
 ---------------------------------------------------------------------

 SCF Done:  E(RB3LYP) =  -1947.79494537     A.U. after   16 cycles

 Excitation energies and oscillator strengths:

 Excited State   1:      Singlet-A      1.1174 eV 1109.60 nm  f=0.0031  <S**2>=0.000
     155 ->156         0.69866
 This state for optimization and/or second-order correction.
 Total Energy, E(TD-HF/TD-DFT) =  -1947.75388250
 Copying the excited state density for this state as the 1-particle RhoCI density.

 The electronic state is 1-A.
 Alpha  occ. eigenvalues --  -19.18800 -19.18756 -19.16033 -19.12801 -19.11282
 Alpha  occ. eigenvalues --  -19.08652 -14.38316 -14.36923 -14.32912 -14.30521
 Alpha  occ. eigenvalues --  -10.34472 -10.31264 -10.28679 -10.26909 -10.26319
 Alpha  occ. eigenvalues --  -10.26052 -10.25250 -10.24447 -10.24342 -10.24287
 Alpha  occ. eigenvalues --  -10.23404 -10.23171 -10.22298 -10.22039 -10.21894
 Alpha  occ. eigenvalues --  -10.21885 -10.21653 -10.21369 -10.21342 -10.21233
 Alpha  occ. eigenvalues --  -10.20973 -10.20875 -10.20689 -10.20614 -10.20304
 Alpha  occ. eigenvalues --  -10.19816 -10.19373 -10.19284 -10.18657 -10.18416
 Alpha  occ. eigenvalues --  -10.18114 -10.17793 -10.17627  -1.09644  -1.09141
 Alpha  occ. eigenvalues --   -1.02263  -1.01563  -1.01454  -0.99165  -0.98654
 Alpha  occ. eigenvalues --   -0.97703  -0.93970  -0.92769  -0.84958  -0.82354
 Alpha  occ. eigenvalues --   -0.80584  -0.80377  -0.79987  -0.79472  -0.77847
 Alpha  occ. eigenvalues --   -0.76293  -0.75505  -0.75067  -0.74088  -0.73198
 Alpha  occ. eigenvalues --   -0.71108  -0.70128  -0.69565  -0.69122  -0.67296
 Alpha  occ. eigenvalues --   -0.66389  -0.66173  -0.63533  -0.61434  -0.61086
 Alpha  occ. eigenvalues --   -0.59798  -0.59263  -0.58808  -0.57952  -0.56296
 Alpha  occ. eigenvalues --   -0.55476  -0.54794  -0.54345  -0.53376  -0.53146
 Alpha  occ. eigenvalues --   -0.52200  -0.51814  -0.51043  -0.50738  -0.49573
 Alpha  occ. eigenvalues --   -0.49395  -0.48909  -0.48572  -0.48424  -0.47683
 Alpha  occ. eigenvalues --   -0.47252  -0.46833  -0.46264  -0.45989  -0.45477
 Alpha  occ. eigenvalues --   -0.45150  -0.44716  -0.44264  -0.44208  -0.43993
 Alpha  occ. eigenvalues --   -0.43592  -0.43480  -0.43376  -0.42838  -0.42678
 Alpha  occ. eigenvalues --   -0.42293  -0.41968  -0.41536  -0.41225  -0.40976
 Alpha  occ. eigenvalues --   -0.40745  -0.40564  -0.40178  -0.40025  -0.39502
 Alpha  occ. eigenvalues --   -0.38956  -0.38812  -0.38599  -0.38197  -0.37888
 Alpha  occ. eigenvalues --   -0.37782  -0.37351  -0.37065  -0.36801  -0.36578
 Alpha  occ. eigenvalues --   -0.36216  -0.35720  -0.35626  -0.35397  -0.34660
 Alpha  occ. eigenvalues --   -0.34201  -0.33025  -0.32387  -0.31735  -0.31410
 Alpha  occ. eigenvalues --   -0.31372  -0.30827  -0.30030  -0.29558  -0.28903
 Alpha  occ. eigenvalues --   -0.28366  -0.26982  -0.25477  -0.24706  -0.24046
 Alpha  occ. eigenvalues --   -0.23771  -0.23412  -0.22221  -0.21242  -0.19602
 Alpha virt. eigenvalues --   -0.13096  -0.08300  -0.04678  -0.02299  -0.01282
 Alpha virt. eigenvalues --    0.00305   0.00699   0.01583   0.01979   0.02583
 Alpha virt. eigenvalues --    0.03081   0.03729   0.03833   0.04228   0.04481

 Mulliken charges:
               1
     1  O   -0.230405
     2  O   -0.221242
     3  O   -0.252023
     4  O   -0.248568
     5  O   -0.175197
     6  O   -0.243944
     7  N   -0.070964
     8  N   -0.139576
     9  N   -0.162244
    10  N   -0.282077
    11  C    0.080493
    12  C    0.195686
    13  C   -0.116989
    14  C   -0.051266
    15  C   -0.101519
    16  C    0.046414
    17  C   -0.189345
    18  C    0.049972
    19  C   -0.133033
    20  C   -0.128844
    21  C    0.079628
    22  C    0.142701
    23  C   -0.066214
    24  C   -0.049725
    25  C    0.203864
    26  C   -0.116404
    27  C   -0.078217
    28  C    0.110150
    29  C    0.007688
    30  C   -0.048322
    31  C    0.060668
    32  C    0.163818
    33  C   -0.056523
    34  C    0.128016
    35  C    0.068281
    36  C   -0.021538
    37  C    0.165308
    38  C    0.043256
    39  C   -0.194845
    40  C    0.204871
    41  C   -0.010146
    42  C    0.052622
    43  C    0.003035
    44  H    0.005484
    45  H   -0.057641
    46  H    0.004283
    47  H    0.160150
    48  H    0.128745
    49  H    0.045626
    50  H    0.007675
    51  H    0.034778
    52  H    0.023649
    53  H    0.017370
    54  H    0.084804
    55  H    0.011705
    56  H   -0.002147
    57  H    0.004650
    58  H    0.051977
    59  H    0.063271
    60  H    0.204097
    61  H    0.045903
    62  H    0.051837
    63  H    0.036496
    64  H    0.031156
    65  H    0.061462
    66  H   -0.076762
    67  H    0.027115
    68  H    0.062598
    69  H   -0.034115
    70  H    0.018091
    71  H    0.031550
    72  H    0.238837
    73  H   -0.033736
    74  H    0.060640
    75  H   -0.003965
    76  H    0.054427
    77  H    0.178492
    78  H    0.023158
    79  H    0.021040
 Sum of Mulliken charges =  -0.00000

 Dipole moment (field-independent basis, Debye):
    X=              4.0740    Y=              2.5988    Z=             -0.8452  Tot=              4.9057
 Quadrupole moment (field-independent basis, Debye-Ang):
   XX=           -241.7295   YY=           -242.1069   ZZ=           -263.6139
   XY=              0.1916   XZ=            -23.1005   YZ=            -14.6441

 Normal termination of Gaussian 16 at Thu Jul 25 09:44:46 2019.
