 Gaussian 16, Revision A.03,
 Gaussian 16:  ES64L-G16RevA.03 25-Dec-2016

 --------------------------
 # td=(NStates=1) B3LYP/SVP
 --------------------------

 --
 TD
 --
 Symbolic Z-matrix:
 Charge =  0 Multiplicity = 1

                         Standard orientation:
 ---------------------------------------------------------------------
 Center     Atomic      Atomic             Coordinates (Angstroms)
 Number     Number       Type             X           Y           Z
 ---------------------------------------------------------------------
      1          8           0       -3.061985   -1.302447   -2.941573
      2          8           0        2.752122    3.160561    3.481040
      3          8           0        3.505244    1.364835    4.625084
      4          8           0        7.828418   -1.286096   -1.095051
      5          8           0        6.675511   -2.809113   -2.375306
      6          8           0       -2.623540    1.594850    1.592754
      7          7           0       -0.053378   -2.411449    0.950030
      8          7           0       -2.505591   -1.148717   -0.608100
      9          7           0        1.292467    0.336647   -0.620013
     10          7           0       -1.028565    1.550049   -0.089466
     11          6           0       -3.225664   -1.459395    0.553175
     12          6           0       -2.473853   -2.546343    1.518697
     13          6           0       -1.089142   -2.154063    1.815680
     14          6           0       -0.455688   -1.452172    2.853613
     15          6           0        0.796988   -1.251376    2.555408
     16          6           0        1.127394   -1.857565    1.271991
     17          6           0       -4.539081   -2.064955    0.193347
     18          6           0        1.746067   -0.468245    3.375382
     19          6           0       -4.564269   -2.082618   -1.197408
     20          6           0        2.205681   -1.731027    0.277230
     21          6           0        2.174301   -0.724006   -0.692094
     22          6           0       -3.322089   -1.474149   -1.739264
     23          6           0        3.114361   -0.424362   -1.811480
     24          6           0       -1.252818   -0.817039    4.075662
     25          6           0       -5.601133   -2.474623    1.137999
     26          6           0        2.531812    0.661799   -2.423399
     27          6           0        1.829502    1.006129    2.996676
     28          6           0        1.312495    1.110972   -1.679231
     29          6           0        4.292236   -1.231137   -2.151189
     30          6           0       -5.665560   -2.513285   -2.145689
     31          6           0        5.454607   -1.012195   -1.238153
     32          6           0        3.007552    1.247237   -3.659337
     33          6           0        0.387074    2.056327   -1.905297
     34          6           0        2.793818    1.839937    3.743241
     35          6           0       -0.732956    2.305768   -1.173298
     36          6           0       -6.808460   -3.196103   -1.943918
     37          6           0        6.650554   -1.968561   -1.553363
     38          6           0       -1.674373    3.451137   -1.270979
     39          6           0       -2.583212    3.281899   -0.225907
     40          6           0       -2.148035    2.065985    0.590941
     41          6           0       -1.612229    4.458585   -2.269932
     42          6           0       -3.621243    4.131902    0.204292
     43          6           0       -2.329623    5.654428   -2.360761
     44          1           0       -3.392757   -0.546945    1.231312
     45          1           0       -2.273519   -3.560359    0.971894
     46          1           0       -3.041104   -2.646157    2.461438
     47          1           0       -0.125484   -2.973613    0.005542
     48          1           0       -1.989096   -0.341016   -0.790340
     49          1           0        1.409780   -0.398125    4.488710
     50          1           0        2.821509   -1.066039    3.197308
     51          1           0        2.796205   -2.560522    0.143032
     52          1           0       -2.061323   -1.411757    4.335065
     53          1           0       -0.375088   -0.494817    4.835341
     54          1           0       -1.888371    0.138697    3.582500
     55          1           0       -5.785265   -1.843411    2.096250
     56          1           0       -5.399315   -3.508024    1.643905
     57          1           0       -6.513390   -2.561747    0.432093
     58          1           0        2.081040    0.982340    1.971871
     59          1           0        0.898956    1.663260    3.227687
     60          1           0        0.547570    0.432598    0.112274
     61          1           0        4.561246   -1.123864   -3.192691
     62          1           0        3.919915   -2.343085   -2.154227
     63          1           0       -5.429396   -2.257833   -3.294632
     64          1           0        4.945728   -1.050884   -0.242055
     65          1           0        5.785573    0.168473   -1.205398
     66          1           0        4.069637    0.830520   -3.901095
     67          1           0        3.121824    2.338543   -3.575050
     68          1           0        2.338587    1.029877   -4.589593
     69          1           0        0.822675    2.751839   -2.721246
     70          1           0       -7.125709   -3.694216   -0.990501
     71          1           0       -7.573883   -3.493458   -2.646847
     72          1           0        3.196360    3.593734    4.308759
     73          1           0       -0.823719    4.301698   -3.117908
     74          1           0       -4.450976    4.465525   -0.509255
     75          1           0       -4.107689    3.470635    0.958940
     76          1           0       -3.375869    5.071020    0.793708
     77          1           0        8.613585   -1.889407   -1.366517
     78          1           0       -1.955147    6.422025   -3.110443
     79          1           0       -3.133872    5.824738   -1.448389
 ---------------------------------------------------------------------

 SCF Done:  E(RB3LYP) =  -1947.87694055     A.U. after   17 cycles

 Excitation energies and oscillator strengths:

 Excited State   1:      Singlet-A      0.9587 eV 1293.21 nm  f=0.0036  <S**2>=0.000
     155 ->156         0.70281
 This state for optimization and/or second-order correction.
 Total Energy, E(TD-HF/TD-DFT) =  -1947.84170775
 Copying the excited state density for this state as the 1-particle RhoCI density.

 The electronic state is 1-A.
 Alpha  occ. eigenvalues --  -19.18370 -19.18265 -19.16018 -19.13038 -19.11251
 Alpha  occ. eigenvalues --  -19.09267 -14.37910 -14.37573 -14.33184 -14.30286
 Alpha  occ. eigenvalues --  -10.34225 -10.30852 -10.28534 -10.27431 -10.26301
 Alpha  occ. eigenvalues --  -10.26142 -10.25097 -10.23557 -10.23071 -10.22920
 Alpha  occ. eigenvalues --  -10.22841 -10.22302 -10.22275 -10.22272 -10.22022
 Alpha  occ. eigenvalues --  -10.21892 -10.21401 -10.21361 -10.21318 -10.20898
 Alpha  occ. eigenvalues --  -10.20818 -10.20561 -10.20534 -10.20498 -10.19841
 Alpha  occ. eigenvalues --  -10.19830 -10.19675 -10.19627 -10.19528 -10.19286
 Alpha  occ. eigenvalues --  -10.18775 -10.16109 -10.15925  -1.10310  -1.08432
 Alpha  occ. eigenvalues --   -1.04308  -1.01369  -1.01153  -1.00101  -0.98649
 Alpha  occ. eigenvalues --   -0.97382  -0.93304  -0.92918  -0.85007  -0.82894
 Alpha  occ. eigenvalues --   -0.81382  -0.80671  -0.80496  -0.79442  -0.78810
 Alpha  occ. eigenvalues --   -0.76851  -0.76009  -0.75623  -0.74240  -0.72663
 Alpha  occ. eigenvalues --   -0.70592  -0.70262  -0.69465  -0.68819  -0.67392
 Alpha  occ. eigenvalues --   -0.66340  -0.65996  -0.63602  -0.61000  -0.59941
 Alpha  occ. eigenvalues --   -0.59462  -0.58936  -0.58300  -0.57456  -0.56954
 Alpha  occ. eigenvalues --   -0.56149  -0.55824  -0.54706  -0.52992  -0.52429
 Alpha  occ. eigenvalues --   -0.52286  -0.51736  -0.51158  -0.50500  -0.50125
 Alpha  occ. eigenvalues --   -0.49786  -0.49229  -0.48908  -0.47950  -0.47346
 Alpha  occ. eigenvalues --   -0.47282  -0.47068  -0.46590  -0.46322  -0.45698
 Alpha  occ. eigenvalues --   -0.45553  -0.44910  -0.44458  -0.44346  -0.44055
 Alpha  occ. eigenvalues --   -0.43875  -0.43611  -0.43068  -0.42722  -0.42304
 Alpha  occ. eigenvalues --   -0.41575  -0.41408  -0.41102  -0.40827  -0.40706
 Alpha  occ. eigenvalues --   -0.40464  -0.40354  -0.40115  -0.40099  -0.39567
 Alpha  occ. eigenvalues --   -0.39292  -0.39070  -0.38773  -0.38665  -0.38586
 Alpha  occ. eigenvalues --   -0.38347  -0.37963  -0.37692  -0.36941  -0.36355
 Alpha  occ. eigenvalues --   -0.36213  -0.35094  -0.35016  -0.34802  -0.34248
 Alpha  occ. eigenvalues --   -0.33484  -0.32808  -0.32542  -0.31817  -0.31470
 Alpha  occ. eigenvalues --   -0.31327  -0.30837  -0.29961  -0.29213  -0.28943
 Alpha  occ. eigenvalues --   -0.27500  -0.26540  -0.25774  -0.25371  -0.24464
 Alpha  occ. eigenvalues --   -0.23559  -0.23390  -0.22948  -0.22237  -0.18652
 Alpha virt. eigenvalues --   -0.12689  -0.07868  -0.05022  -0.03339  -0.02166
 Alpha virt. eigenvalues --    0.00614   0.01376   0.01924   0.02311   0.03307
 Alpha virt. eigenvalues --    0.03842   0.04232   0.04297   0.04644   0.04674

 Mulliken charges:
               1
     1  O   -0.251607
     2  O   -0.216583
     3  O   -0.250236
     4  O   -0.274123
     5  O   -0.161142
     6  O   -0.177113
     7  N   -0.069066
     8  N   -0.167470
     9  N   -0.051619
    10  N   -0.342103
    11  C    0.051166
    12  C    0.161431
    13  C   -0.104611
    14  C   -0.094714
    15  C   -0.092756
    16  C   -0.055056
    17  C   -0.107288
    18  C    0.017994
    19  C   -0.061214
    20  C   -0.056252
    21  C    0.084620
    22  C    0.134991
    23  C   -0.052881
    24  C    0.047976
    25  C    0.004328
    26  C   -0.110010
    27  C    0.028952
    28  C    0.067739
    29  C    0.083624
    30  C   -0.006554
    31  C   -0.074343
    32  C    0.021694
    33  C   -0.119442
    34  C    0.120394
    35  C    0.152953
    36  C   -0.076387
    37  C    0.211794
    38  C    0.114994
    39  C   -0.188789
    40  C    0.184522
    41  C   -0.090704
    42  C    0.003303
    43  C   -0.065777
    44  H    0.058402
    45  H   -0.001011
    46  H   -0.004388
    47  H    0.140088
    48  H    0.117894
    49  H    0.016652
    50  H    0.031967
    51  H   -0.021081
    52  H   -0.016191
    53  H    0.036109
    54  H    0.059476
    55  H    0.041870
    56  H    0.048054
    57  H    0.051517
    58  H    0.005190
    59  H    0.058749
    60  H    0.190271
    61  H    0.003231
    62  H    0.042323
    63  H    0.046140
    64  H    0.045453
    65  H    0.071672
    66  H    0.031831
    67  H    0.030890
    68  H    0.060391
    69  H   -0.002177
    70  H    0.015223
    71  H    0.017909
    72  H    0.210645
    73  H    0.015816
    74  H    0.046055
    75  H    0.021942
    76  H    0.050767
    77  H    0.199828
    78  H    0.049909
    79  H    0.053948
 Sum of Mulliken charges =  -0.00000

 Dipole moment (field-independent basis, Debye):
    X=              2.1063    Y=              2.1630    Z=             -1.3891  Tot=              3.3234
 Quadrupole moment (field-independent basis, Debye-Ang):
   XX=           -237.1957   YY=           -233.5037   ZZ=           -270.4551
   XY=              3.1172   XZ=            -25.8875   YZ=             -8.6940

 Normal termination of Gaussian 16 at Sat Jul 27 03:17:47 2019.
