 Gaussian 16, Revision A.03,
 Gaussian 16:  ES64L-G16RevA.03 25-Dec-2016

 --------------------------
 # td=(NStates=1) B3LYP/SVP
 --------------------------

 --
 TD
 --
 Symbolic Z-matrix:
 Charge =  0 Multiplicity = 1

                         Standard orientation:
 ---------------------------------------------------------------------
 Center     Atomic      Atomic             Coordinates (Angstroms)
 Number     Number       Type             X           Y           Z
 ---------------------------------------------------------------------
      1          8           0        5.482660    0.057875   -3.289213
      2          8           0       -3.130451   -2.945118    3.020973
      3          8           0       -3.425463   -0.582299    3.038730
      4          8           0       -1.286980    7.340587    1.478238
      5          8           0       -0.550262    7.025411   -0.638009
      6          8           0       -1.826253   -4.002204   -0.057994
      7          7           0        2.334755    0.903184    0.676577
      8          7           0        4.424749   -0.583687   -1.208048
      9          7           0       -1.788239    0.707298   -0.321230
     10          7           0       -2.582084   -1.914751   -0.525883
     11          6           0        4.801179   -1.240570   -0.006021
     12          6           0        4.336996   -0.492107    1.304630
     13          6           0        2.843895   -0.122256    1.392044
     14          6           0        1.921986   -0.562921    2.274337
     15          6           0        0.611344   -0.039118    1.885083
     16          6           0        0.948554    0.929836    0.841809
     17          6           0        6.282114   -1.450712   -0.178954
     18          6           0       -0.616355   -0.130924    2.593019
     19          6           0        6.767297   -0.975487   -1.257237
     20          6           0        0.198353    1.941104    0.226024
     21          6           0       -1.022708    1.887192   -0.253424
     22          6           0        5.491872   -0.393153   -2.120309
     23          6           0       -1.839575    2.992317   -0.909694
     24          6           0        2.108820   -1.688340    3.170140
     25          6           0        7.038075   -2.215256    0.896690
     26          6           0       -2.993277    2.432520   -1.297545
     27          6           0       -1.235732   -1.542156    2.569807
     28          6           0       -2.975113    0.954633   -1.044089
     29          6           0       -1.465449    4.397954   -0.893796
     30          6           0        8.020104   -0.873838   -2.011146
     31          6           0       -1.850412    5.164040    0.306888
     32          6           0       -4.210353    2.832963   -2.028542
     33          6           0       -3.938913   -0.087487   -1.269113
     34          6           0       -2.707626   -1.574548    2.887101
     35          6           0       -3.753084   -1.462684   -1.108696
     36          6           0        9.178378   -0.910436   -1.428733
     37          6           0       -1.186860    6.568217    0.297544
     38          6           0       -4.680154   -2.562286   -1.370761
     39          6           0       -3.921877   -3.759664   -1.119244
     40          6           0       -2.634730   -3.302531   -0.523232
     41          6           0       -5.951544   -2.432271   -1.940838
     42          6           0       -4.303398   -5.263471   -1.320194
     43          6           0       -6.806254   -3.343227   -2.421138
     44          1           0        4.198750   -2.262145   -0.230255
     45          1           0        5.064391    0.341253    1.462054
     46          1           0        4.541598   -1.302567    2.214769
     47          1           0        2.727468    1.441011   -0.073352
     48          1           0        3.373015   -0.342721   -1.498936
     49          1           0       -0.344788    0.156167    3.577895
     50          1           0       -1.476044    0.462021    2.138838
     51          1           0        0.637511    3.019960   -0.139913
     52          1           0        3.141679   -1.541976    3.561134
     53          1           0        1.417985   -1.420657    4.106529
     54          1           0        1.784675   -2.645422    2.840279
     55          1           0        6.200388   -2.871801    1.377549
     56          1           0        7.428947   -1.550534    1.714655
     57          1           0        7.788516   -2.956101    0.450259
     58          1           0       -1.242924   -2.197244    1.595628
     59          1           0       -0.728408   -2.198407    3.381082
     60          1           0       -1.373003   -0.389869   -0.288613
     61          1           0       -1.920962    4.890085   -1.783267
     62          1           0       -0.417750    4.464562   -1.239299
     63          1           0        7.971198   -0.753397   -2.994148
     64          1           0       -1.694953    4.378986    1.324837
     65          1           0       -2.944205    5.274690    0.397573
     66          1           0       -4.298296    3.923480   -1.967624
     67          1           0       -5.303900    2.536338   -1.544645
     68          1           0       -4.197424    2.392125   -3.034625
     69          1           0       -4.853439    0.548077   -1.855880
     70          1           0        9.356896   -1.016990   -0.427712
     71          1           0       10.136074   -0.860632   -1.951428
     72          1           0       -4.056631   -2.774799    3.423706
     73          1           0       -6.109720   -1.437174   -2.184593
     74          1           0       -4.958132   -5.592007   -0.299928
     75          1           0       -4.958442   -5.249056   -2.348940
     76          1           0       -3.319599   -6.056921   -1.334312
     77          1           0       -0.646091    8.194865    1.209630
     78          1           0       -7.769553   -3.084930   -2.899819
     79          1           0       -6.718433   -4.508594   -2.305305
 ---------------------------------------------------------------------

 SCF Done:  E(RB3LYP) =  -1947.81199415     A.U. after   17 cycles

 Excitation energies and oscillator strengths:

 Excited State   1:      Singlet-A      2.0461 eV  605.95 nm  f=0.2615  <S**2>=0.000
     154 ->156         0.29467
     155 ->156         0.64000
 This state for optimization and/or second-order correction.
 Total Energy, E(TD-HF/TD-DFT) =  -1947.73680129
 Copying the excited state density for this state as the 1-particle RhoCI density.

 The electronic state is 1-A.
 Alpha  occ. eigenvalues --  -19.19141 -19.16828 -19.14744 -19.12651 -19.10919
 Alpha  occ. eigenvalues --  -19.09847 -14.38733 -14.36843 -14.36519 -14.28440
 Alpha  occ. eigenvalues --  -10.34114 -10.31274 -10.29446 -10.25897 -10.25404
 Alpha  occ. eigenvalues --  -10.25313 -10.24435 -10.23934 -10.23832 -10.23764
 Alpha  occ. eigenvalues --  -10.23410 -10.23393 -10.22923 -10.22153 -10.22083
 Alpha  occ. eigenvalues --  -10.21758 -10.21685 -10.21681 -10.21442 -10.20996
 Alpha  occ. eigenvalues --  -10.20762 -10.20439 -10.20116 -10.20091 -10.20034
 Alpha  occ. eigenvalues --  -10.19913 -10.19912 -10.19849 -10.19029 -10.18963
 Alpha  occ. eigenvalues --  -10.18945 -10.18760 -10.18379  -1.08502  -1.05302
 Alpha  occ. eigenvalues --   -1.03831  -1.00472  -0.99418  -0.99404  -0.98132
 Alpha  occ. eigenvalues --   -0.96103  -0.94000  -0.90946  -0.84103  -0.82722
 Alpha  occ. eigenvalues --   -0.82499  -0.82368  -0.80120  -0.79571  -0.78250
 Alpha  occ. eigenvalues --   -0.77709  -0.76255  -0.75338  -0.73509  -0.72437
 Alpha  occ. eigenvalues --   -0.71795  -0.70502  -0.69488  -0.68516  -0.67605
 Alpha  occ. eigenvalues --   -0.67363  -0.65213  -0.63573  -0.61364  -0.60195
 Alpha  occ. eigenvalues --   -0.58758  -0.58109  -0.57994  -0.57039  -0.56114
 Alpha  occ. eigenvalues --   -0.55989  -0.55388  -0.53950  -0.53346  -0.53099
 Alpha  occ. eigenvalues --   -0.51928  -0.51166  -0.50670  -0.50157  -0.49720
 Alpha  occ. eigenvalues --   -0.48831  -0.48654  -0.48216  -0.47932  -0.47554
 Alpha  occ. eigenvalues --   -0.47240  -0.46823  -0.46578  -0.45918  -0.45633
 Alpha  occ. eigenvalues --   -0.44784  -0.44432  -0.44302  -0.43989  -0.43553
 Alpha  occ. eigenvalues --   -0.43483  -0.43388  -0.43150  -0.42977  -0.42669
 Alpha  occ. eigenvalues --   -0.42259  -0.42068  -0.41669  -0.41565  -0.41245
 Alpha  occ. eigenvalues --   -0.41054  -0.40544  -0.40141  -0.39623  -0.39445
 Alpha  occ. eigenvalues --   -0.39371  -0.39151  -0.38728  -0.37983  -0.37726
 Alpha  occ. eigenvalues --   -0.37262  -0.37168  -0.37116  -0.37045  -0.36493
 Alpha  occ. eigenvalues --   -0.35893  -0.35447  -0.35374  -0.35200  -0.34536
 Alpha  occ. eigenvalues --   -0.34085  -0.33358  -0.32783  -0.32668  -0.32168
 Alpha  occ. eigenvalues --   -0.31518  -0.30970  -0.29989  -0.29082  -0.27537
 Alpha  occ. eigenvalues --   -0.27346  -0.27002  -0.25889  -0.25615  -0.25086
 Alpha  occ. eigenvalues --   -0.24609  -0.23866  -0.23524  -0.21320  -0.19403
 Alpha virt. eigenvalues --   -0.10873  -0.06599  -0.04334  -0.02822  -0.01237
 Alpha virt. eigenvalues --    0.00363   0.00455   0.01312   0.01772   0.02176
 Alpha virt. eigenvalues --    0.02679   0.02941   0.03905   0.04240   0.05075

 Mulliken charges:
               1
     1  O   -0.254833
     2  O   -0.263518
     3  O   -0.244822
     4  O   -0.284710
     5  O   -0.232215
     6  O   -0.149051
     7  N   -0.050858
     8  N   -0.280347
     9  N   -0.191461
    10  N   -0.331314
    11  C    0.090413
    12  C    0.109671
    13  C   -0.020956
    14  C   -0.169027
    15  C   -0.067887
    16  C    0.067434
    17  C   -0.217285
    18  C    0.119188
    19  C   -0.015276
    20  C   -0.127118
    21  C    0.056022
    22  C    0.178386
    23  C   -0.093517
    24  C    0.089657
    25  C    0.036840
    26  C   -0.061831
    27  C   -0.097927
    28  C    0.021337
    29  C    0.096334
    30  C    0.079175
    31  C   -0.040992
    32  C    0.032293
    33  C   -0.111357
    34  C    0.181184
    35  C    0.142987
    36  C    0.010971
    37  C    0.206257
    38  C    0.050576
    39  C   -0.170346
    40  C    0.127401
    41  C    0.030006
    42  C   -0.070847
    43  C   -0.080948
    44  H    0.042486
    45  H    0.018860
    46  H    0.026655
    47  H    0.109401
    48  H    0.163609
    49  H    0.010148
    50  H    0.044504
    51  H    0.015605
    52  H    0.015435
    53  H    0.010455
    54  H    0.048643
    55  H    0.025162
    56  H    0.047534
    57  H    0.051160
    58  H    0.100552
    59  H    0.038264
    60  H    0.223653
    61  H    0.010284
    62  H    0.021611
    63  H   -0.045059
    64  H    0.081941
    65  H    0.046821
    66  H    0.008448
    67  H    0.056896
    68  H    0.054449
    69  H    0.020579
    70  H   -0.017143
    71  H    0.016713
    72  H    0.193278
    73  H   -0.048140
    74  H    0.070619
    75  H    0.068074
    76  H    0.071857
    77  H    0.235789
    78  H    0.025372
    79  H    0.037792
 Sum of Mulliken charges =  -0.00000

 Dipole moment (field-independent basis, Debye):
    X=              0.4959    Y=              2.5011    Z=              2.5052  Tot=              3.5746
 Quadrupole moment (field-independent basis, Debye-Ang):
   XX=           -228.4058   YY=           -249.1872   ZZ=           -264.1479
   XY=            -10.4958   XZ=             32.5688   YZ=              0.5718

 Normal termination of Gaussian 16 at Mon Sep 16 11:46:45 2019.
