 Gaussian 16, Revision A.03,
 Gaussian 16:  ES64L-G16RevA.03 25-Dec-2016

 --------------------------
 # td=(NStates=1) B3LYP/SVP
 --------------------------

 --
 TD
 --
 Symbolic Z-matrix:
 Charge =  0 Multiplicity = 1

                         Standard orientation:
 ---------------------------------------------------------------------
 Center     Atomic      Atomic             Coordinates (Angstroms)
 Number     Number       Type             X           Y           Z
 ---------------------------------------------------------------------
      1          8           0       -3.329227   -1.647831   -2.721082
      2          8           0        3.014615    3.544367    2.658649
      3          8           0        3.639584    1.825764    4.185854
      4          8           0        7.805034   -1.779679   -0.401129
      5          8           0        6.694865   -3.348321   -1.614980
      6          8           0       -2.628429    1.807972    1.224936
      7          7           0       -0.321847   -2.274523    1.140582
      8          7           0       -2.736183   -1.307908   -0.498145
      9          7           0        1.097848   -0.008173   -0.776521
     10          7           0       -0.977698    1.372177   -0.324232
     11          6           0       -3.486664   -1.294754    0.760708
     12          6           0       -2.632526   -2.144664    1.893977
     13          6           0       -1.211735   -1.801821    1.831796
     14          6           0       -0.623767   -0.945836    2.846399
     15          6           0        0.763309   -0.906058    2.490799
     16          6           0        0.913649   -1.797574    1.390143
     17          6           0       -4.767070   -1.843531    0.460371
     18          6           0        1.864349    0.005962    3.041007
     19          6           0       -4.859164   -2.122698   -0.965646
     20          6           0        2.047911   -1.879818    0.485904
     21          6           0        2.051860   -1.075219   -0.644985
     22          6           0       -3.534030   -1.711210   -1.556232
     23          6           0        3.043940   -0.855163   -1.582138
     24          6           0       -1.285321   -0.102268    3.817007
     25          6           0       -5.872060   -2.016946    1.461193
     26          6           0        2.621944    0.247112   -2.403546
     27          6           0        1.912382    1.482244    2.550446
     28          6           0        1.361934    0.718024   -1.877640
     29          6           0        4.210822   -1.732112   -1.809965
     30          6           0       -5.837631   -2.692239   -1.731229
     31          6           0        5.472950   -1.225282   -1.112953
     32          6           0        3.336895    0.794041   -3.612870
     33          6           0        0.477984    1.754684   -2.294640
     34          6           0        2.960890    2.264862    3.238209
     35          6           0       -0.623134    2.084067   -1.526673
     36          6           0       -7.031791   -3.300947   -1.410375
     37          6           0        6.668707   -2.208543   -1.077921
     38          6           0       -1.358192    3.477872   -1.510473
     39          6           0       -2.209270    3.398761   -0.484161
     40          6           0       -1.964132    2.177891    0.228065
     41          6           0       -1.268901    4.391313   -2.648245
     42          6           0       -3.284545    4.247625    0.081979
     43          6           0       -1.859834    5.498471   -2.660523
     44          1           0       -3.433598   -0.158777    1.114168
     45          1           0       -2.785110   -3.262274    1.568346
     46          1           0       -3.210893   -2.183531    2.788446
     47          1           0       -0.430563   -2.775645    0.321436
     48          1           0       -1.822319   -0.661689   -0.694686
     49          1           0        2.014628   -0.037676    4.259906
     50          1           0        2.794180   -0.517559    2.714059
     51          1           0        2.682694   -2.701063    0.503498
     52          1           0       -2.021319   -0.437243    4.482536
     53          1           0       -0.628898    0.615190    4.553307
     54          1           0       -2.064573    0.632573    3.438631
     55          1           0       -5.943314   -1.198458    2.000085
     56          1           0       -5.831998   -2.981653    2.159016
     57          1           0       -6.849705   -1.957463    1.004774
     58          1           0        1.808812    1.580956    1.410188
     59          1           0        1.096587    2.009029    2.995625
     60          1           0        0.447313    0.459774   -0.367243
     61          1           0        4.449994   -1.712775   -2.783042
     62          1           0        3.942273   -2.775393   -1.538909
     63          1           0       -5.489433   -2.895874   -2.872010
     64          1           0        5.343151   -1.155636    0.006023
     65          1           0        5.843020   -0.154101   -1.654212
     66          1           0        4.295034    0.339407   -3.761739
     67          1           0        3.387836    2.053083   -3.462346
     68          1           0        2.902116    0.502420   -4.749947
     69          1           0        0.679904    2.457177   -3.030534
     70          1           0       -7.582476   -3.232212   -0.294533
     71          1           0       -7.589810   -3.988720   -2.160024
     72          1           0        3.669590    3.997190    3.081228
     73          1           0       -0.376451    4.115111   -3.200678
     74          1           0       -4.003137    4.510079   -0.614650
     75          1           0       -3.706744    3.957675    0.962209
     76          1           0       -2.784147    5.261657    0.206885
     77          1           0        8.316856   -2.790739   -0.467857
     78          1           0       -1.612971    6.179471   -3.422729
     79          1           0       -2.511447    5.901026   -1.951717
 ---------------------------------------------------------------------

 SCF Done:  E(RB3LYP) =  -1947.74725612     A.U. after   22 cycles

 Excitation energies and oscillator strengths:

 Excited State   1:      Singlet-A      0.6856 eV 1808.34 nm  f=0.0003  <S**2>=0.000
     154 ->156        -0.10802
     155 ->156         0.69536
 This state for optimization and/or second-order correction.
 Total Energy, E(TD-HF/TD-DFT) =  -1947.72205992
 Copying the excited state density for this state as the 1-particle RhoCI density.

 The electronic state is 1-A.
 Alpha  occ. eigenvalues --  -19.20327 -19.17948 -19.14639 -19.13241 -19.11028
 Alpha  occ. eigenvalues --  -19.07540 -14.37665 -14.36954 -14.32686 -14.30951
 Alpha  occ. eigenvalues --  -10.34438 -10.32607 -10.27271 -10.26957 -10.26848
 Alpha  occ. eigenvalues --  -10.25623 -10.25519 -10.25476 -10.24621 -10.24094
 Alpha  occ. eigenvalues --  -10.23804 -10.23750 -10.22312 -10.22184 -10.21459
 Alpha  occ. eigenvalues --  -10.21169 -10.20415 -10.20291 -10.20227 -10.20216
 Alpha  occ. eigenvalues --  -10.20189 -10.20034 -10.20026 -10.20008 -10.19751
 Alpha  occ. eigenvalues --  -10.19071 -10.18769 -10.18456 -10.18445 -10.17909
 Alpha  occ. eigenvalues --  -10.17676 -10.17263 -10.16507  -1.08448  -1.08433
 Alpha  occ. eigenvalues --   -1.02256  -1.01525  -1.01424  -1.00920  -1.00288
 Alpha  occ. eigenvalues --   -0.98940  -0.91475  -0.90871  -0.86413  -0.83110
 Alpha  occ. eigenvalues --   -0.82779  -0.80202  -0.80038  -0.79303  -0.79249
 Alpha  occ. eigenvalues --   -0.77911  -0.77098  -0.76271  -0.74941  -0.73077
 Alpha  occ. eigenvalues --   -0.71454  -0.70711  -0.70138  -0.68883  -0.68586
 Alpha  occ. eigenvalues --   -0.67573  -0.66676  -0.63992  -0.62790  -0.61352
 Alpha  occ. eigenvalues --   -0.59761  -0.59454  -0.58446  -0.57910  -0.57044
 Alpha  occ. eigenvalues --   -0.56695  -0.56500  -0.54055  -0.53648  -0.53405
 Alpha  occ. eigenvalues --   -0.52974  -0.51708  -0.50920  -0.50008  -0.49512
 Alpha  occ. eigenvalues --   -0.49391  -0.49222  -0.48896  -0.48422  -0.47621
 Alpha  occ. eigenvalues --   -0.47343  -0.47118  -0.46925  -0.46757  -0.46065
 Alpha  occ. eigenvalues --   -0.45820  -0.45406  -0.44758  -0.44641  -0.44258
 Alpha  occ. eigenvalues --   -0.44202  -0.43194  -0.42864  -0.42843  -0.42605
 Alpha  occ. eigenvalues --   -0.42157  -0.41629  -0.41546  -0.41122  -0.40781
 Alpha  occ. eigenvalues --   -0.40534  -0.40098  -0.39823  -0.39657  -0.39611
 Alpha  occ. eigenvalues --   -0.39420  -0.39238  -0.38943  -0.38587  -0.38331
 Alpha  occ. eigenvalues --   -0.38052  -0.37840  -0.37346  -0.37157  -0.36652
 Alpha  occ. eigenvalues --   -0.35988  -0.35932  -0.35411  -0.35275  -0.34460
 Alpha  occ. eigenvalues --   -0.33487  -0.33446  -0.32882  -0.32566  -0.31214
 Alpha  occ. eigenvalues --   -0.30525  -0.30248  -0.29997  -0.29481  -0.28785
 Alpha  occ. eigenvalues --   -0.28108  -0.27415  -0.25573  -0.24706  -0.23904
 Alpha  occ. eigenvalues --   -0.23158  -0.22953  -0.22555  -0.20567  -0.18661
 Alpha virt. eigenvalues --   -0.13504  -0.08264  -0.05226  -0.03144  -0.01953
 Alpha virt. eigenvalues --   -0.00524   0.00271   0.01418   0.02604   0.02843
 Alpha virt. eigenvalues --    0.02989   0.03930   0.04327   0.04443   0.05574

 Mulliken charges:
               1
     1  O   -0.204818
     2  O   -0.180514
     3  O   -0.245761
     4  O   -0.274195
     5  O   -0.280658
     6  O   -0.244027
     7  N    0.196688
     8  N   -0.291815
     9  N    0.028637
    10  N   -0.345454
    11  C    0.024852
    12  C    0.143488
    13  C   -0.156322
    14  C   -0.047060
    15  C   -0.079832
    16  C   -0.069748
    17  C   -0.142342
    18  C    0.026198
    19  C   -0.031782
    20  C   -0.030202
    21  C    0.121218
    22  C    0.133050
    23  C   -0.068116
    24  C    0.036100
    25  C    0.153243
    26  C   -0.092183
    27  C    0.042132
    28  C    0.056146
    29  C    0.186128
    30  C   -0.064338
    31  C   -0.065744
    32  C   -0.010175
    33  C   -0.014142
    34  C    0.148832
    35  C    0.065956
    36  C   -0.126365
    37  C    0.180944
    38  C   -0.025079
    39  C   -0.175725
    40  C    0.171340
    41  C    0.051151
    42  C    0.195750
    43  C    0.036485
    44  H    0.094625
    45  H   -0.017397
    46  H   -0.004448
    47  H    0.078506
    48  H    0.182915
    49  H    0.046001
    50  H   -0.008813
    51  H   -0.012935
    52  H   -0.038666
    53  H    0.015200
    54  H    0.016920
    55  H   -0.032720
    56  H    0.048653
    57  H   -0.000774
    58  H    0.048638
    59  H    0.032789
    60  H    0.052713
    61  H   -0.024161
    62  H    0.034457
    63  H    0.036718
    64  H    0.061604
    65  H    0.087595
    66  H    0.009736
    67  H    0.066977
    68  H    0.067474
    69  H   -0.050004
    70  H    0.038697
    71  H    0.040039
    72  H    0.139782
    73  H   -0.012471
    74  H    0.000038
    75  H    0.003739
    76  H    0.017184
    77  H    0.247679
    78  H    0.005913
    79  H   -0.004140
 Sum of Mulliken charges =  -0.00000

 Dipole moment (field-independent basis, Debye):
    X=              4.3219    Y=              3.3961    Z=             -1.7048  Tot=              5.7549
 Quadrupole moment (field-independent basis, Debye-Ang):
   XX=           -247.2277   YY=           -233.1737   ZZ=           -266.9925
   XY=             -2.4651   XZ=            -27.3725   YZ=            -15.5819

 Normal termination of Gaussian 16 at Wed Jul 24 11:54:30 2019.
