 Gaussian 16, Revision A.03,
 Gaussian 16:  ES64L-G16RevA.03 25-Dec-2016

 --------------------------
 # td=(NStates=1) B3LYP/SVP
 --------------------------

 --
 TD
 --
 Symbolic Z-matrix:
 Charge =  0 Multiplicity = 1

                         Standard orientation:
 ---------------------------------------------------------------------
 Center     Atomic      Atomic             Coordinates (Angstroms)
 Number     Number       Type             X           Y           Z
 ---------------------------------------------------------------------
      1          8           0       -3.235303   -1.761526   -2.699178
      2          8           0        2.753825    3.697268    2.911095
      3          8           0        3.607146    1.981039    4.184418
      4          8           0        7.715827   -1.647177   -0.470957
      5          8           0        6.820827   -3.293751   -1.692345
      6          8           0       -2.557725    1.844609    1.262584
      7          7           0       -0.300222   -2.234070    1.147606
      8          7           0       -2.646030   -1.353300   -0.441620
      9          7           0        1.120506   -0.012217   -0.755373
     10          7           0       -1.069751    1.422694   -0.394821
     11          6           0       -3.416467   -1.295744    0.756804
     12          6           0       -2.704766   -2.070313    1.840742
     13          6           0       -1.262816   -1.783002    2.111081
     14          6           0       -0.559489   -0.852483    2.966797
     15          6           0        0.792124   -0.831930    2.597581
     16          6           0        0.940551   -1.700916    1.486151
     17          6           0       -4.669843   -1.892375    0.501370
     18          6           0        1.913789    0.048683    3.091653
     19          6           0       -4.758285   -2.182553   -0.914105
     20          6           0        1.984295   -1.933204    0.499722
     21          6           0        2.021267   -1.054697   -0.567339
     22          6           0       -3.516702   -1.770070   -1.506381
     23          6           0        2.960104   -0.973795   -1.741970
     24          6           0       -1.304865   -0.077615    4.025038
     25          6           0       -5.792815   -1.961745    1.513644
     26          6           0        2.605136    0.114753   -2.474578
     27          6           0        1.844715    1.546493    2.631897
     28          6           0        1.340481    0.648742   -1.909551
     29          6           0        4.204250   -1.792027   -1.901098
     30          6           0       -5.852233   -2.736676   -1.641239
     31          6           0        5.449890   -1.431927   -0.914325
     32          6           0        3.074611    0.702840   -3.768789
     33          6           0        0.601208    1.738831   -2.278717
     34          6           0        2.810827    2.418686    3.313890
     35          6           0       -0.551142    2.178020   -1.485079
     36          6           0       -6.923091   -3.503259   -1.411439
     37          6           0        6.628447   -2.273448   -1.017596
     38          6           0       -1.373712    3.363471   -1.653316
     39          6           0       -2.169637    3.452407   -0.594719
     40          6           0       -2.049490    2.255134    0.274150
     41          6           0       -1.059590    4.207927   -2.768954
     42          6           0       -3.280515    4.468009   -0.370516
     43          6           0       -1.792421    5.202370   -3.101458
     44          1           0       -3.434021   -0.246228    1.157456
     45          1           0       -2.588257   -3.119064    1.578623
     46          1           0       -3.229889   -1.828910    2.906017
     47          1           0       -0.521202   -2.771916    0.295347
     48          1           0       -1.910987   -0.653468   -0.644224
     49          1           0        1.940718    0.172202    4.234108
     50          1           0        2.876102   -0.237868    2.899742
     51          1           0        2.773510   -2.587986    0.617076
     52          1           0       -2.044949   -0.720045    4.663878
     53          1           0       -0.592596    0.583296    4.659122
     54          1           0       -1.944564    0.602016    3.399547
     55          1           0       -5.728168   -1.131572    2.279020
     56          1           0       -5.933423   -3.019853    2.059207
     57          1           0       -6.743388   -1.747170    1.129580
     58          1           0        2.235710    1.618669    1.616688
     59          1           0        0.954417    2.001663    2.806481
     60          1           0        0.291064    0.243958   -0.128902
     61          1           0        4.630485   -1.683989   -2.939089
     62          1           0        4.053551   -2.772756   -1.785793
     63          1           0       -5.482835   -2.401962   -2.651228
     64          1           0        5.066073   -1.434496    0.107239
     65          1           0        5.710802   -0.269961   -1.204367
     66          1           0        4.020959    0.268037   -4.326246
     67          1           0        3.164454    1.818690   -3.589033
     68          1           0        2.392307    0.599145   -4.648482
     69          1           0        0.735921    2.262120   -3.297292
     70          1           0       -7.069327   -3.851977   -0.346030
     71          1           0       -7.582172   -3.779181   -2.161671
     72          1           0        3.414252    4.012088    3.624303
     73          1           0       -0.249162    3.873916   -3.295331
     74          1           0       -4.215573    4.494014   -0.953495
     75          1           0       -3.768510    4.346503    0.708357
     76          1           0       -2.750873    5.436425   -0.317881
     77          1           0        8.507619   -2.505197   -0.459174
     78          1           0       -1.474423    6.179593   -3.908608
     79          1           0       -2.874812    5.554289   -2.476532
 ---------------------------------------------------------------------

 SCF Done:  E(RB3LYP) =  -1947.84974211     A.U. after   16 cycles

 Excitation energies and oscillator strengths:

 Excited State   1:      Singlet-A      1.0443 eV 1187.30 nm  f=0.0022  <S**2>=0.000
     155 ->156         0.70390
 This state for optimization and/or second-order correction.
 Total Energy, E(TD-HF/TD-DFT) =  -1947.81136644
 Copying the excited state density for this state as the 1-particle RhoCI density.

 The electronic state is 1-A.
 Alpha  occ. eigenvalues --  -19.19764 -19.19232 -19.13673 -19.13599 -19.12400
 Alpha  occ. eigenvalues --  -19.08579 -14.37445 -14.36516 -14.32638 -14.30687
 Alpha  occ. eigenvalues --  -10.33070 -10.31807 -10.28933 -10.26693 -10.26376
 Alpha  occ. eigenvalues --  -10.25718 -10.25702 -10.23604 -10.23484 -10.23074
 Alpha  occ. eigenvalues --  -10.22915 -10.22577 -10.21903 -10.21679 -10.21636
 Alpha  occ. eigenvalues --  -10.21598 -10.21565 -10.21482 -10.21339 -10.21047
 Alpha  occ. eigenvalues --  -10.20972 -10.20589 -10.20538 -10.20261 -10.20088
 Alpha  occ. eigenvalues --  -10.19047 -10.19003 -10.18964 -10.18692 -10.18517
 Alpha  occ. eigenvalues --  -10.18330 -10.17848 -10.17595  -1.10119  -1.08252
 Alpha  occ. eigenvalues --   -1.05910  -1.00443  -0.99667  -0.98897  -0.98645
 Alpha  occ. eigenvalues --   -0.94814  -0.92574  -0.92301  -0.83596  -0.82638
 Alpha  occ. eigenvalues --   -0.82242  -0.80407  -0.80267  -0.78860  -0.78634
 Alpha  occ. eigenvalues --   -0.77327  -0.76754  -0.76025  -0.74281  -0.73022
 Alpha  occ. eigenvalues --   -0.71172  -0.70698  -0.70176  -0.69288  -0.67381
 Alpha  occ. eigenvalues --   -0.66561  -0.66428  -0.63558  -0.61035  -0.60154
 Alpha  occ. eigenvalues --   -0.59497  -0.58307  -0.57665  -0.56987  -0.56773
 Alpha  occ. eigenvalues --   -0.56175  -0.55451  -0.55267  -0.52696  -0.52319
 Alpha  occ. eigenvalues --   -0.51613  -0.51022  -0.50466  -0.50305  -0.50131
 Alpha  occ. eigenvalues --   -0.49542  -0.49464  -0.49198  -0.48954  -0.48124
 Alpha  occ. eigenvalues --   -0.47899  -0.47249  -0.46884  -0.46651  -0.46138
 Alpha  occ. eigenvalues --   -0.45721  -0.45299  -0.44896  -0.44507  -0.44333
 Alpha  occ. eigenvalues --   -0.44090  -0.43154  -0.42974  -0.42431  -0.42347
 Alpha  occ. eigenvalues --   -0.41955  -0.41857  -0.41584  -0.41213  -0.40846
 Alpha  occ. eigenvalues --   -0.40631  -0.40306  -0.40120  -0.39913  -0.39670
 Alpha  occ. eigenvalues --   -0.39390  -0.38685  -0.38455  -0.38376  -0.38182
 Alpha  occ. eigenvalues --   -0.38060  -0.37508  -0.37458  -0.37400  -0.36776
 Alpha  occ. eigenvalues --   -0.36536  -0.36257  -0.35984  -0.35165  -0.34107
 Alpha  occ. eigenvalues --   -0.33905  -0.33610  -0.32265  -0.32169  -0.31961
 Alpha  occ. eigenvalues --   -0.31436  -0.30145  -0.29451  -0.29362  -0.28810
 Alpha  occ. eigenvalues --   -0.27786  -0.27548  -0.26450  -0.24858  -0.24491
 Alpha  occ. eigenvalues --   -0.24048  -0.22935  -0.22282  -0.22172  -0.18891
 Alpha virt. eigenvalues --   -0.12700  -0.07617  -0.05700  -0.02683  -0.01706
 Alpha virt. eigenvalues --   -0.00384   0.00119   0.01357   0.02076   0.02665
 Alpha virt. eigenvalues --    0.03395   0.03853   0.04015   0.04149   0.04671

 Mulliken charges:
               1
     1  O   -0.240601
     2  O   -0.186258
     3  O   -0.289201
     4  O   -0.283876
     5  O   -0.250440
     6  O   -0.141665
     7  N   -0.135571
     8  N   -0.253543
     9  N   -0.102386
    10  N   -0.400822
    11  C    0.111154
    12  C    0.144230
    13  C   -0.081670
    14  C   -0.118846
    15  C   -0.044517
    16  C    0.021076
    17  C   -0.126701
    18  C    0.107712
    19  C   -0.086687
    20  C   -0.076505
    21  C    0.096745
    22  C    0.162470
    23  C   -0.073345
    24  C    0.025223
    25  C    0.065976
    26  C   -0.078429
    27  C    0.082266
    28  C    0.133689
    29  C    0.150235
    30  C   -0.013338
    31  C   -0.062996
    32  C    0.015434
    33  C   -0.135853
    34  C    0.109850
    35  C    0.072078
    36  C   -0.004487
    37  C    0.182648
    38  C    0.093006
    39  C   -0.218224
    40  C    0.202863
    41  C    0.102753
    42  C    0.020042
    43  C   -0.141258
    44  H    0.050434
    45  H   -0.021356
    46  H    0.016170
    47  H    0.128768
    48  H    0.142839
    49  H    0.015311
    50  H   -0.039848
    51  H   -0.028143
    52  H    0.035540
    53  H    0.017327
    54  H    0.043904
    55  H    0.023215
    56  H    0.054666
    57  H    0.008488
    58  H    0.027267
    59  H    0.009489
    60  H    0.205430
    61  H    0.019298
    62  H   -0.016875
    63  H    0.009422
    64  H    0.048668
    65  H    0.079625
    66  H    0.038596
    67  H    0.038633
    68  H    0.047219
    69  H    0.028734
    70  H    0.015555
    71  H    0.008744
    72  H    0.191941
    73  H   -0.057520
    74  H    0.057066
    75  H    0.027570
    76  H    0.035896
    77  H    0.256036
    78  H    0.059411
    79  H    0.070247
 Sum of Mulliken charges =  -0.00000

 Dipole moment (field-independent basis, Debye):
    X=              1.7426    Y=              4.0555    Z=             -0.9269  Tot=              4.5103
 Quadrupole moment (field-independent basis, Debye-Ang):
   XX=           -240.1240   YY=           -239.9611   ZZ=           -264.8893
   XY=             -2.3474   XZ=            -19.4182   YZ=            -17.2138

 Normal termination of Gaussian 16 at Wed Jul 24 02:56:17 2019.
