 Gaussian 16, Revision A.03,
 Gaussian 16:  ES64L-G16RevA.03 25-Dec-2016

 --------------------------
 # td=(NStates=1) B3LYP/SVP
 --------------------------

 --
 TD
 --
 Symbolic Z-matrix:
 Charge =  0 Multiplicity = 1

                         Standard orientation:
 ---------------------------------------------------------------------
 Center     Atomic      Atomic             Coordinates (Angstroms)
 Number     Number       Type             X           Y           Z
 ---------------------------------------------------------------------
      1          8           0        5.181843   -0.380893   -3.347834
      2          8           0       -2.892073   -3.101836    3.013652
      3          8           0       -3.297507   -0.851112    3.216369
      4          8           0       -1.633266    7.103350    1.583704
      5          8           0       -1.364823    7.152120   -0.839141
      6          8           0       -1.776356   -3.956453   -0.012642
      7          7           0        2.386516    1.042493    0.670963
      8          7           0        4.383076   -0.577979   -1.194687
      9          7           0       -1.915846    0.655717   -0.356837
     10          7           0       -2.475280   -1.892453   -0.501817
     11          6           0        4.896368   -1.083721    0.122577
     12          6           0        4.513646   -0.123295    1.361226
     13          6           0        2.996369    0.090975    1.479108
     14          6           0        2.052200   -0.524399    2.237385
     15          6           0        0.768321    0.077315    1.887382
     16          6           0        1.022986    1.002884    0.836970
     17          6           0        6.382874   -1.152495   -0.121449
     18          6           0       -0.531593   -0.284026    2.546252
     19          6           0        6.673755   -0.823863   -1.462635
     20          6           0        0.128867    1.919735    0.101677
     21          6           0       -1.137183    1.831306   -0.416641
     22          6           0        5.372597   -0.540673   -2.180721
     23          6           0       -1.967310    2.918906   -0.970565
     24          6           0        2.364875   -1.530203    3.313927
     25          6           0        7.371276   -1.494092    1.007008
     26          6           0       -3.149468    2.194071   -1.350033
     27          6           0       -1.074214   -1.702684    2.427283
     28          6           0       -3.094145    0.884911   -1.035746
     29          6           0       -1.566923    4.326399   -0.948507
     30          6           0        7.901026   -0.718880   -2.281287
     31          6           0       -1.793444    4.998341    0.402933
     32          6           0       -4.413591    2.943138   -1.810269
     33          6           0       -4.009990   -0.154101   -1.364552
     34          6           0       -2.584378   -1.789100    2.935913
     35          6           0       -3.659155   -1.524576   -1.081460
     36          6           0        9.147406   -0.788804   -1.791886
     37          6           0       -1.531652    6.477198    0.295736
     38          6           0       -4.563555   -2.726600   -1.432588
     39          6           0       -3.866074   -3.784119   -1.045120
     40          6           0       -2.562677   -3.292656   -0.507101
     41          6           0       -5.865098   -2.534481   -2.004347
     42          6           0       -4.248026   -5.232072   -1.005777
     43          6           0       -6.657711   -3.488688   -2.522713
     44          1           0        4.411874   -2.131251    0.290875
     45          1           0        5.154336    0.807708    1.300586
     46          1           0        4.841100   -0.644117    2.216553
     47          1           0        2.916673    1.196488   -0.128213
     48          1           0        3.437828   -0.836446   -1.470501
     49          1           0       -0.434617    0.019386    3.520815
     50          1           0       -1.325143    0.267479    2.330372
     51          1           0        0.489762    2.873871    0.228799
     52          1           0        3.418104   -1.488321    3.473291
     53          1           0        2.060046   -1.325170    4.344686
     54          1           0        1.974877   -2.497216    3.034921
     55          1           0        6.749407   -1.930049    1.773302
     56          1           0        7.749870   -0.513769    1.586800
     57          1           0        8.062347   -2.218060    0.800342
     58          1           0       -1.197895   -2.243259    1.319468
     59          1           0       -0.470841   -2.674096    3.095784
     60          1           0       -1.501152   -0.387529   -0.117196
     61          1           0       -2.157578    4.894640   -1.557130
     62          1           0       -0.632448    4.589933   -1.232374
     63          1           0        7.620250   -0.786434   -3.361698
     64          1           0       -1.170338    4.540936    1.215241
     65          1           0       -2.637040    4.973381    0.762135
     66          1           0       -4.239024    4.000543   -1.857126
     67          1           0       -5.196894    3.009027   -1.004059
     68          1           0       -4.766859    2.520365   -2.809366
     69          1           0       -4.910677    0.341490   -1.831628
     70          1           0        9.393731   -0.543502   -0.647813
     71          1           0       10.107517   -0.976681   -2.438469
     72          1           0       -3.836182   -3.135073    3.157849
     73          1           0       -6.129042   -1.555398   -1.990093
     74          1           0       -5.235769   -5.401918   -0.658017
     75          1           0       -4.323130   -5.805717   -1.987474
     76          1           0       -3.595170   -5.848752   -0.305205
     77          1           0       -1.191270    8.087902    1.427616
     78          1           0       -7.752195   -3.236043   -2.751622
     79          1           0       -5.974535   -4.490114   -2.699560
 ---------------------------------------------------------------------

 SCF Done:  E(RB3LYP) =  -1947.83232390     A.U. after   16 cycles

 Excitation energies and oscillator strengths:

 Excited State   1:      Singlet-A      2.1540 eV  575.60 nm  f=0.4169  <S**2>=0.000
     153 ->156         0.10369
     155 ->156         0.69597
     155 <-156        -0.10377
 This state for optimization and/or second-order correction.
 Total Energy, E(TD-HF/TD-DFT) =  -1947.75316604
 Copying the excited state density for this state as the 1-particle RhoCI density.

 The electronic state is 1-A.
 Alpha  occ. eigenvalues --  -19.20450 -19.17263 -19.14799 -19.11988 -19.10763
 Alpha  occ. eigenvalues --  -19.10377 -14.36904 -14.35845 -14.35303 -14.29611
 Alpha  occ. eigenvalues --  -10.34794 -10.30952 -10.28575 -10.26175 -10.25832
 Alpha  occ. eigenvalues --  -10.24324 -10.24086 -10.23853 -10.23143 -10.23109
 Alpha  occ. eigenvalues --  -10.22360 -10.22302 -10.22196 -10.21367 -10.21346
 Alpha  occ. eigenvalues --  -10.21298 -10.21252 -10.21156 -10.21061 -10.21039
 Alpha  occ. eigenvalues --  -10.20848 -10.20705 -10.20649 -10.19962 -10.19792
 Alpha  occ. eigenvalues --  -10.19771 -10.19375 -10.19197 -10.19181 -10.19160
 Alpha  occ. eigenvalues --  -10.18640 -10.18630 -10.17070  -1.08566  -1.06076
 Alpha  occ. eigenvalues --   -1.05496  -1.03956  -1.00029  -0.98160  -0.97189
 Alpha  occ. eigenvalues --   -0.97033  -0.93157  -0.91639  -0.84088  -0.81397
 Alpha  occ. eigenvalues --   -0.81312  -0.81226  -0.80690  -0.79300  -0.78478
 Alpha  occ. eigenvalues --   -0.76946  -0.76021  -0.75310  -0.74266  -0.72452
 Alpha  occ. eigenvalues --   -0.71329  -0.71147  -0.69693  -0.69106  -0.68716
 Alpha  occ. eigenvalues --   -0.66922  -0.66108  -0.64059  -0.61047  -0.60309
 Alpha  occ. eigenvalues --   -0.59141  -0.58851  -0.58091  -0.57167  -0.57095
 Alpha  occ. eigenvalues --   -0.55746  -0.55301  -0.55238  -0.54190  -0.53024
 Alpha  occ. eigenvalues --   -0.51946  -0.51188  -0.50679  -0.50556  -0.49947
 Alpha  occ. eigenvalues --   -0.48711  -0.47984  -0.47878  -0.47604  -0.47306
 Alpha  occ. eigenvalues --   -0.46964  -0.46362  -0.46146  -0.46036  -0.45402
 Alpha  occ. eigenvalues --   -0.44901  -0.44712  -0.44162  -0.43857  -0.43704
 Alpha  occ. eigenvalues --   -0.43472  -0.43369  -0.42965  -0.42880  -0.42303
 Alpha  occ. eigenvalues --   -0.42254  -0.41814  -0.41756  -0.41715  -0.41114
 Alpha  occ. eigenvalues --   -0.41027  -0.40728  -0.40435  -0.40283  -0.39937
 Alpha  occ. eigenvalues --   -0.39568  -0.39296  -0.39195  -0.38898  -0.38725
 Alpha  occ. eigenvalues --   -0.38536  -0.38243  -0.37781  -0.37434  -0.36971
 Alpha  occ. eigenvalues --   -0.36830  -0.36475  -0.35569  -0.35235  -0.34902
 Alpha  occ. eigenvalues --   -0.34688  -0.34171  -0.32273  -0.31673  -0.31670
 Alpha  occ. eigenvalues --   -0.31213  -0.30942  -0.29136  -0.28733  -0.28298
 Alpha  occ. eigenvalues --   -0.27253  -0.26835  -0.26029  -0.25543  -0.24517
 Alpha  occ. eigenvalues --   -0.24312  -0.24129  -0.23559  -0.22729  -0.19548
 Alpha virt. eigenvalues --   -0.10974  -0.06673  -0.06281  -0.04477  -0.00469
 Alpha virt. eigenvalues --    0.00706   0.00955   0.01487   0.01635   0.03244
 Alpha virt. eigenvalues --    0.03860   0.04561   0.04867   0.04995   0.05778

 Mulliken charges:
               1
     1  O   -0.190542
     2  O   -0.161740
     3  O   -0.229944
     4  O   -0.285072
     5  O   -0.312769
     6  O   -0.117007
     7  N   -0.039038
     8  N   -0.230534
     9  N   -0.171186
    10  N   -0.318847
    11  C    0.052620
    12  C    0.208898
    13  C   -0.126899
    14  C   -0.129201
    15  C   -0.098564
    16  C    0.038738
    17  C   -0.183038
    18  C    0.275399
    19  C   -0.088908
    20  C   -0.075422
    21  C    0.082088
    22  C    0.144995
    23  C   -0.044075
    24  C    0.137641
    25  C    0.120277
    26  C   -0.155693
    27  C   -0.200107
    28  C    0.105700
    29  C    0.223171
    30  C    0.028283
    31  C    0.109772
    32  C    0.077133
    33  C   -0.128071
    34  C    0.151079
    35  C    0.125413
    36  C   -0.096911
    37  C    0.205010
    38  C    0.066374
    39  C   -0.207151
    40  C    0.119799
    41  C    0.019513
    42  C    0.060402
    43  C   -0.047202
    44  H    0.047043
    45  H    0.014179
    46  H   -0.030466
    47  H    0.092265
    48  H    0.132372
    49  H   -0.031190
    50  H   -0.057478
    51  H   -0.022367
    52  H   -0.029805
    53  H    0.009114
    54  H    0.032152
    55  H   -0.008740
    56  H    0.054475
    57  H    0.020865
    58  H    0.120185
    59  H    0.046437
    60  H    0.226999
    61  H   -0.024736
    62  H   -0.016720
    63  H    0.030989
    64  H    0.044138
    65  H   -0.053657
    66  H   -0.008111
    67  H    0.035656
    68  H    0.049643
    69  H   -0.007985
    70  H    0.050230
    71  H    0.050777
    72  H    0.161378
    73  H   -0.059546
    74  H    0.002983
    75  H    0.036740
    76  H    0.033057
    77  H    0.243332
    78  H    0.047402
    79  H    0.054006
 Sum of Mulliken charges =  -0.00000

 Dipole moment (field-independent basis, Debye):
    X=              0.8692    Y=              1.5280    Z=              3.3281  Tot=              3.7639
 Quadrupole moment (field-independent basis, Debye-Ang):
   XX=           -213.9848   YY=           -245.9391   ZZ=           -267.4454
   XY=             -1.6254   XZ=             30.6362   YZ=              8.3372

 Normal termination of Gaussian 16 at Thu Sep 19 23:04:21 2019.
