 Gaussian 16, Revision A.03,
 Gaussian 16:  ES64L-G16RevA.03 25-Dec-2016

 --------------------------
 # td=(NStates=1) B3LYP/SVP
 --------------------------

 --
 TD
 --
 Symbolic Z-matrix:
 Charge =  0 Multiplicity = 1

                         Standard orientation:
 ---------------------------------------------------------------------
 Center     Atomic      Atomic             Coordinates (Angstroms)
 Number     Number       Type             X           Y           Z
 ---------------------------------------------------------------------
      1          8           0        5.180331   -0.128111   -3.237808
      2          8           0       -2.767614   -3.084613    3.375647
      3          8           0       -3.310506   -0.851631    3.061937
      4          8           0       -2.232874    7.124155    1.464485
      5          8           0       -0.990958    7.082865   -0.505964
      6          8           0       -1.396248   -3.996433    0.043857
      7          7           0        2.250498    1.075632    0.523302
      8          7           0        4.361158   -0.466242   -1.107005
      9          7           0       -1.787684    0.613406   -0.556769
     10          7           0       -2.459544   -1.921482   -0.443532
     11          6           0        4.809031   -0.977642    0.175171
     12          6           0        4.363807   -0.040173    1.232864
     13          6           0        2.957956    0.208638    1.316915
     14          6           0        1.960623   -0.547642    2.107891
     15          6           0        0.690503    0.061192    1.850237
     16          6           0        0.959464    1.037544    0.858120
     17          6           0        6.271480   -1.061788   -0.193006
     18          6           0       -0.646310   -0.197757    2.496292
     19          6           0        6.607599   -0.630439   -1.350630
     20          6           0        0.051604    2.007944    0.211954
     21          6           0       -1.234269    1.835108   -0.418536
     22          6           0        5.273156   -0.410986   -2.038780
     23          6           0       -2.091578    2.859846   -0.941919
     24          6           0        2.259082   -1.625614    3.110626
     25          6           0        7.225267   -1.620450    0.895099
     26          6           0       -3.201240    2.248481   -1.394757
     27          6           0       -1.064734   -1.713180    2.531871
     28          6           0       -3.030671    0.775686   -1.247523
     29          6           0       -1.796265    4.358770   -0.965896
     30          6           0        7.784725   -0.530755   -2.010398
     31          6           0       -2.087890    5.061848    0.414919
     32          6           0       -4.520515    2.803556   -1.929421
     33          6           0       -3.855887   -0.314335   -1.447350
     34          6           0       -2.566005   -1.759895    2.972517
     35          6           0       -3.477227   -1.611196   -1.080618
     36          6           0        9.076996   -0.476590   -1.501180
     37          6           0       -1.709215    6.556767    0.367335
     38          6           0       -4.357526   -2.827824   -1.409415
     39          6           0       -3.562428   -3.871461   -0.966745
     40          6           0       -2.303310   -3.430451   -0.450573
     41          6           0       -5.622455   -2.827396   -2.137112
     42          6           0       -3.760308   -5.363513   -1.097551
     43          6           0       -6.222394   -3.896415   -2.476772
     44          1           0        4.301064   -2.041581    0.454812
     45          1           0        4.690190    1.000979    0.930626
     46          1           0        4.712168   -0.523778    2.193241
     47          1           0        2.803206    1.616252   -0.141769
     48          1           0        3.414894   -0.232041   -1.723165
     49          1           0       -0.616480   -0.107110    3.640640
     50          1           0       -1.354954    0.378516    2.078769
     51          1           0        0.438902    3.084670    0.288748
     52          1           0        3.270949   -1.588738    3.542402
     53          1           0        1.694536   -1.432211    3.995146
     54          1           0        1.854288   -2.610551    2.835292
     55          1           0        6.601914   -2.317685    1.453948
     56          1           0        7.747582   -1.029900    1.455304
     57          1           0        8.016705   -2.222446    0.687545
     58          1           0       -0.995774   -2.053418    1.580788
     59          1           0       -0.439581   -2.243489    3.062842
     60          1           0       -1.695206   -0.403461   -0.362818
     61          1           0       -2.112880    5.013435   -1.715682
     62          1           0       -0.774136    4.313266   -1.121924
     63          1           0        7.773556   -0.301049   -2.988272
     64          1           0       -1.455458    4.640099    1.176616
     65          1           0       -3.361984    4.964054    0.458380
     66          1           0       -4.263974    3.787158   -2.512020
     67          1           0       -5.113314    3.142922   -1.186120
     68          1           0       -5.111049    2.057100   -2.798092
     69          1           0       -4.772717   -0.081780   -2.080708
     70          1           0        9.469517   -0.472198   -0.522311
     71          1           0        9.807759   -0.347963   -2.222660
     72          1           0       -3.745233   -2.809440    3.538090
     73          1           0       -6.033339   -1.897644   -2.364422
     74          1           0       -4.702409   -5.805385   -0.731695
     75          1           0       -3.572041   -5.712721   -2.257328
     76          1           0       -2.947719   -5.843527   -0.420979
     77          1           0       -1.963035    8.144086    1.352516
     78          1           0       -7.320420   -3.909459   -2.869655
     79          1           0       -5.739946   -4.913279   -2.137064
 ---------------------------------------------------------------------

 SCF Done:  E(RB3LYP) =  -1947.77698327     A.U. after   16 cycles

 Excitation energies and oscillator strengths:

 Excited State   1:      Singlet-A      1.8748 eV  661.30 nm  f=0.3454  <S**2>=0.000
     155 ->156         0.70144
     155 <-156        -0.10154
 This state for optimization and/or second-order correction.
 Total Energy, E(TD-HF/TD-DFT) =  -1947.70808407
 Copying the excited state density for this state as the 1-particle RhoCI density.

 The electronic state is 1-A.
 Alpha  occ. eigenvalues --  -19.20861 -19.17574 -19.14102 -19.13939 -19.12892
 Alpha  occ. eigenvalues --  -19.09115 -14.38682 -14.36182 -14.35066 -14.29137
 Alpha  occ. eigenvalues --  -10.33468 -10.31459 -10.27985 -10.27133 -10.26042
 Alpha  occ. eigenvalues --  -10.24649 -10.24131 -10.22911 -10.22867 -10.22434
 Alpha  occ. eigenvalues --  -10.21935 -10.21842 -10.21813 -10.21549 -10.21117
 Alpha  occ. eigenvalues --  -10.21116 -10.21052 -10.20885 -10.20530 -10.20349
 Alpha  occ. eigenvalues --  -10.19907 -10.19821 -10.19667 -10.19165 -10.18950
 Alpha  occ. eigenvalues --  -10.18902 -10.18881 -10.18619 -10.18598 -10.18036
 Alpha  occ. eigenvalues --  -10.17953 -10.17904 -10.16434  -1.09893  -1.09395
 Alpha  occ. eigenvalues --   -1.05326  -1.02259  -1.01129  -1.00571  -0.99183
 Alpha  occ. eigenvalues --   -0.97471  -0.94951  -0.93912  -0.83103  -0.82688
 Alpha  occ. eigenvalues --   -0.81866  -0.81773  -0.80717  -0.79626  -0.77813
 Alpha  occ. eigenvalues --   -0.76901  -0.76207  -0.76017  -0.74530  -0.72338
 Alpha  occ. eigenvalues --   -0.72285  -0.70839  -0.69518  -0.69046  -0.68226
 Alpha  occ. eigenvalues --   -0.66238  -0.66124  -0.64121  -0.62264  -0.60018
 Alpha  occ. eigenvalues --   -0.59559  -0.57896  -0.57817  -0.57439  -0.57023
 Alpha  occ. eigenvalues --   -0.56493  -0.55828  -0.55333  -0.54618  -0.53924
 Alpha  occ. eigenvalues --   -0.52470  -0.51576  -0.51392  -0.50256  -0.49586
 Alpha  occ. eigenvalues --   -0.49559  -0.49138  -0.49048  -0.48741  -0.47778
 Alpha  occ. eigenvalues --   -0.47297  -0.47029  -0.46836  -0.46273  -0.45681
 Alpha  occ. eigenvalues --   -0.45228  -0.45089  -0.44873  -0.44301  -0.44212
 Alpha  occ. eigenvalues --   -0.43863  -0.43151  -0.43020  -0.42925  -0.42462
 Alpha  occ. eigenvalues --   -0.42373  -0.42085  -0.41845  -0.41627  -0.41128
 Alpha  occ. eigenvalues --   -0.40851  -0.40437  -0.40247  -0.39899  -0.39667
 Alpha  occ. eigenvalues --   -0.39465  -0.39067  -0.38889  -0.38882  -0.38408
 Alpha  occ. eigenvalues --   -0.37780  -0.37681  -0.37341  -0.37048  -0.36915
 Alpha  occ. eigenvalues --   -0.36581  -0.36159  -0.35742  -0.35355  -0.34629
 Alpha  occ. eigenvalues --   -0.33924  -0.33675  -0.33391  -0.33299  -0.32760
 Alpha  occ. eigenvalues --   -0.32625  -0.32357  -0.29475  -0.29058  -0.28668
 Alpha  occ. eigenvalues --   -0.28423  -0.26333  -0.26277  -0.24917  -0.24748
 Alpha  occ. eigenvalues --   -0.23904  -0.23660  -0.23528  -0.22236  -0.18429
 Alpha virt. eigenvalues --   -0.10879  -0.06586  -0.05608  -0.01529   0.00318
 Alpha virt. eigenvalues --    0.01187   0.01494   0.01775   0.01824   0.02312
 Alpha virt. eigenvalues --    0.02586   0.03802   0.04596   0.04823   0.05393

 Mulliken charges:
               1
     1  O   -0.259949
     2  O   -0.223719
     3  O   -0.186967
     4  O   -0.201312
     5  O   -0.257536
     6  O   -0.133485
     7  N   -0.021372
     8  N   -0.220207
     9  N   -0.095624
    10  N   -0.300086
    11  C    0.096638
    12  C    0.236502
    13  C   -0.156147
    14  C   -0.159951
    15  C   -0.054920
    16  C    0.034266
    17  C   -0.182467
    18  C    0.137768
    19  C    0.094461
    20  C   -0.162018
    21  C    0.108228
    22  C    0.078630
    23  C   -0.065781
    24  C    0.118913
    25  C    0.187807
    26  C   -0.104643
    27  C    0.095025
    28  C    0.046337
    29  C    0.164421
    30  C   -0.031085
    31  C   -0.051834
    32  C    0.060008
    33  C   -0.121669
    34  C    0.148299
    35  C    0.086248
    36  C    0.001373
    37  C    0.158447
    38  C    0.053484
    39  C   -0.221362
    40  C    0.190231
    41  C    0.043243
    42  C    0.009550
    43  C   -0.048171
    44  H    0.050256
    45  H   -0.015572
    46  H    0.005838
    47  H    0.118353
    48  H    0.177627
    49  H    0.004856
    50  H   -0.029643
    51  H    0.011302
    52  H    0.000700
    53  H   -0.010185
    54  H    0.040716
    55  H   -0.005028
    56  H   -0.022675
    57  H   -0.024224
    58  H    0.015762
    59  H   -0.041722
    60  H    0.147317
    61  H   -0.005292
    62  H   -0.017565
    63  H   -0.037820
    64  H    0.046647
    65  H    0.072481
    66  H    0.023718
    67  H    0.011701
    68  H    0.059476
    69  H   -0.012216
    70  H   -0.002604
    71  H    0.004790
    72  H    0.164299
    73  H   -0.046005
    74  H    0.039260
    75  H    0.057766
    76  H    0.039112
    77  H    0.218150
    78  H    0.040815
    79  H    0.030038
 Sum of Mulliken charges =  -0.00000

 Dipole moment (field-independent basis, Debye):
    X=             -1.6827    Y=              2.4008    Z=              2.8326  Tot=              4.0766
 Quadrupole moment (field-independent basis, Debye-Ang):
   XX=           -217.7461   YY=           -239.3698   ZZ=           -265.0471
   XY=             -5.6634   XZ=             33.3027   YZ=              6.3102

 Normal termination of Gaussian 16 at Sat Sep 14 17:43:45 2019.
