 Gaussian 16, Revision A.03,
 Gaussian 16:  ES64L-G16RevA.03 25-Dec-2016

 --------------------------
 # td=(NStates=1) B3LYP/SVP
 --------------------------

 --
 TD
 --
 Symbolic Z-matrix:
 Charge =  0 Multiplicity = 1

                         Standard orientation:
 ---------------------------------------------------------------------
 Center     Atomic      Atomic             Coordinates (Angstroms)
 Number     Number       Type             X           Y           Z
 ---------------------------------------------------------------------
      1          8           0        5.284291    0.262695   -3.239952
      2          8           0       -3.061631   -3.100097    2.837409
      3          8           0       -3.387629   -0.896720    3.171985
      4          8           0       -1.099192    7.307124    1.664737
      5          8           0       -0.641977    7.143092   -0.582559
      6          8           0       -1.913861   -3.968228    0.093844
      7          7           0        2.432698    0.793492    0.730911
      8          7           0        4.322603   -0.370228   -1.189504
      9          7           0       -1.738849    0.736264   -0.319400
     10          7           0       -2.529968   -1.875930   -0.730433
     11          6           0        4.658037   -1.269992   -0.034097
     12          6           0        4.346554   -0.647976    1.255187
     13          6           0        2.926204   -0.269212    1.508152
     14          6           0        1.907426   -0.890512    2.193130
     15          6           0        0.694645   -0.170659    1.893592
     16          6           0        1.065033    0.897645    0.933979
     17          6           0        6.139783   -1.469564   -0.349653
     18          6           0       -0.637186   -0.443047    2.480724
     19          6           0        6.541014   -0.828658   -1.460943
     20          6           0        0.215306    1.910441    0.376912
     21          6           0       -0.995695    1.863340   -0.202672
     22          6           0        5.393165   -0.196839   -2.147046
     23          6           0       -1.839048    2.962857   -0.725426
     24          6           0        2.069443   -2.046764    3.154590
     25          6           0        6.977115   -2.259472    0.748225
     26          6           0       -3.000232    2.498572   -1.253088
     27          6           0       -1.300695   -1.858168    2.480235
     28          6           0       -2.999052    1.031872   -0.893743
     29          6           0       -1.300845    4.359633   -0.775145
     30          6           0        7.910463   -0.734427   -2.061977
     31          6           0       -1.464775    5.035242    0.622100
     32          6           0       -4.223998    3.198617   -1.784823
     33          6           0       -3.887922    0.112149   -1.299180
     34          6           0       -2.676676   -1.834333    2.810047
     35          6           0       -3.696065   -1.366544   -1.158378
     36          6           0        9.107976   -1.079747   -1.605545
     37          6           0       -1.042480    6.601354    0.461690
     38          6           0       -4.679254   -2.439484   -1.559071
     39          6           0       -3.999277   -3.588391   -1.240363
     40          6           0       -2.756987   -3.327105   -0.536605
     41          6           0       -5.994957   -2.110693   -2.161058
     42          6           0       -4.386580   -5.057867   -1.323084
     43          6           0       -6.847475   -2.985731   -2.778292
     44          1           0        3.966812   -2.256908   -0.120355
     45          1           0        4.874383    0.369762    1.385413
     46          1           0        4.655111   -1.151110    2.297658
     47          1           0        3.040382    1.535171    0.049184
     48          1           0        3.505283   -0.363413   -1.616022
     49          1           0       -0.525222   -0.375053    3.682645
     50          1           0       -1.265770    0.323183    2.138207
     51          1           0        0.720458    2.885195    0.380827
     52          1           0        3.199326   -2.040896    3.596373
     53          1           0        1.310061   -1.967891    4.037223
     54          1           0        2.027121   -3.033838    2.627874
     55          1           0        6.244443   -2.894090    1.222063
     56          1           0        7.464347   -1.620327    1.424409
     57          1           0        7.753733   -2.813136    0.433712
     58          1           0       -0.917579   -2.419148    1.555610
     59          1           0       -0.875059   -2.445950    3.432549
     60          1           0       -1.567370   -0.252383   -0.203885
     61          1           0       -1.908139    4.976651   -1.355926
     62          1           0       -0.242147    4.560959   -1.107361
     63          1           0        7.907176   -0.211472   -2.969617
     64          1           0       -0.809335    4.654491    1.455814
     65          1           0       -2.576536    5.135309    1.064980
     66          1           0       -3.713848    4.224200   -2.058351
     67          1           0       -5.001301    3.507444   -0.909821
     68          1           0       -4.909020    2.670657   -2.478277
     69          1           0       -4.632324    0.545912   -1.881609
     70          1           0        9.309145   -1.702746   -0.558826
     71          1           0        9.864779   -1.117232   -2.418625
     72          1           0       -4.051913   -3.222730    3.007482
     73          1           0       -6.232203   -1.059553   -2.136535
     74          1           0       -5.398703   -5.268053   -0.725765
     75          1           0       -4.715394   -5.564553   -2.390455
     76          1           0       -3.750366   -5.562176   -0.674448
     77          1           0       -0.666277    8.153849    1.458716
     78          1           0       -7.724509   -2.652335   -3.124585
     79          1           0       -6.542738   -4.095131   -2.935250
 ---------------------------------------------------------------------

 SCF Done:  E(RB3LYP) =  -1947.86303237     A.U. after   16 cycles

 Excitation energies and oscillator strengths:

 Excited State   1:      Singlet-A      1.6920 eV  732.77 nm  f=0.2784  <S**2>=0.000
     155 ->156         0.70393
     155 <-156        -0.10562
 This state for optimization and/or second-order correction.
 Total Energy, E(TD-HF/TD-DFT) =  -1947.80085316
 Copying the excited state density for this state as the 1-particle RhoCI density.

 The electronic state is 1-A.
 Alpha  occ. eigenvalues --  -19.18829 -19.16568 -19.14138 -19.12457 -19.11771
 Alpha  occ. eigenvalues --  -19.10438 -14.38478 -14.35466 -14.33819 -14.29505
 Alpha  occ. eigenvalues --  -10.33550 -10.29935 -10.29125 -10.27887 -10.26171
 Alpha  occ. eigenvalues --  -10.24345 -10.23963 -10.23677 -10.23624 -10.22920
 Alpha  occ. eigenvalues --  -10.22650 -10.22617 -10.22019 -10.21916 -10.21813
 Alpha  occ. eigenvalues --  -10.21726 -10.21534 -10.21430 -10.21105 -10.20973
 Alpha  occ. eigenvalues --  -10.20936 -10.20758 -10.20717 -10.20611 -10.20527
 Alpha  occ. eigenvalues --  -10.20290 -10.19986 -10.19851 -10.19059 -10.18879
 Alpha  occ. eigenvalues --  -10.18874 -10.18505 -10.18429  -1.08548  -1.07914
 Alpha  occ. eigenvalues --   -1.04596  -1.01989  -1.00004  -0.97800  -0.97331
 Alpha  occ. eigenvalues --   -0.95970  -0.93435  -0.91373  -0.82687  -0.81881
 Alpha  occ. eigenvalues --   -0.81538  -0.80188  -0.79962  -0.79627  -0.77171
 Alpha  occ. eigenvalues --   -0.77159  -0.76274  -0.75812  -0.74766  -0.72698
 Alpha  occ. eigenvalues --   -0.71756  -0.70498  -0.69904  -0.68222  -0.67550
 Alpha  occ. eigenvalues --   -0.66519  -0.65609  -0.64083  -0.60633  -0.59967
 Alpha  occ. eigenvalues --   -0.59593  -0.58953  -0.58679  -0.57836  -0.56640
 Alpha  occ. eigenvalues --   -0.55998  -0.55021  -0.54158  -0.53440  -0.52964
 Alpha  occ. eigenvalues --   -0.51495  -0.51148  -0.50309  -0.49446  -0.48992
 Alpha  occ. eigenvalues --   -0.48677  -0.48435  -0.48117  -0.47936  -0.47651
 Alpha  occ. eigenvalues --   -0.47129  -0.46636  -0.46299  -0.45908  -0.45486
 Alpha  occ. eigenvalues --   -0.45253  -0.44354  -0.44106  -0.43853  -0.43704
 Alpha  occ. eigenvalues --   -0.43665  -0.43354  -0.42889  -0.42387  -0.42143
 Alpha  occ. eigenvalues --   -0.41967  -0.41907  -0.41737  -0.41062  -0.40863
 Alpha  occ. eigenvalues --   -0.40606  -0.40469  -0.40294  -0.39836  -0.39668
 Alpha  occ. eigenvalues --   -0.39345  -0.39029  -0.38895  -0.38184  -0.37951
 Alpha  occ. eigenvalues --   -0.37588  -0.37546  -0.37441  -0.36506  -0.36206
 Alpha  occ. eigenvalues --   -0.36086  -0.35869  -0.35745  -0.34854  -0.34721
 Alpha  occ. eigenvalues --   -0.34598  -0.32961  -0.32817  -0.32265  -0.31436
 Alpha  occ. eigenvalues --   -0.31145  -0.30262  -0.28957  -0.28720  -0.28249
 Alpha  occ. eigenvalues --   -0.27392  -0.26480  -0.26281  -0.26040  -0.25070
 Alpha  occ. eigenvalues --   -0.24996  -0.24008  -0.23232  -0.22280  -0.18289
 Alpha virt. eigenvalues --   -0.11404  -0.06532  -0.06208  -0.01527  -0.01457
 Alpha virt. eigenvalues --    0.00643   0.00924   0.01156   0.02500   0.02843
 Alpha virt. eigenvalues --    0.03150   0.03896   0.04154   0.04661   0.04897

 Mulliken charges:
               1
     1  O   -0.175386
     2  O   -0.192584
     3  O   -0.251141
     4  O   -0.208305
     5  O   -0.254191
     6  O   -0.185595
     7  N   -0.169365
     8  N   -0.227677
     9  N   -0.083789
    10  N   -0.316040
    11  C    0.114864
    12  C    0.128403
    13  C   -0.094799
    14  C   -0.098546
    15  C   -0.085784
    16  C    0.072109
    17  C   -0.180138
    18  C    0.054730
    19  C   -0.044749
    20  C   -0.139762
    21  C    0.135320
    22  C    0.149660
    23  C   -0.053895
    24  C    0.026196
    25  C    0.165873
    26  C   -0.096520
    27  C   -0.056748
    28  C    0.079128
    29  C    0.137819
    30  C    0.024723
    31  C   -0.100345
    32  C    0.008554
    33  C   -0.037961
    34  C    0.143137
    35  C    0.070974
    36  C   -0.066340
    37  C    0.164034
    38  C    0.078639
    39  C   -0.213744
    40  C    0.195844
    41  C   -0.025848
    42  C    0.046012
    43  C    0.031819
    44  H    0.053489
    45  H   -0.001648
    46  H    0.023036
    47  H    0.189347
    48  H    0.078077
    49  H    0.013574
    50  H   -0.000998
    51  H   -0.023579
    52  H    0.017379
    53  H    0.042057
    54  H    0.038865
    55  H    0.012008
    56  H    0.020820
    57  H   -0.007297
    58  H    0.096963
    59  H    0.049935
    60  H    0.132990
    61  H   -0.016526
    62  H    0.043106
    63  H   -0.009450
    64  H    0.062570
    65  H    0.069534
    66  H    0.043652
    67  H    0.052064
    68  H    0.047486
    69  H   -0.069211
    70  H    0.039489
    71  H    0.038305
    72  H    0.193826
    73  H   -0.006495
    74  H    0.019979
    75  H    0.061084
    76  H    0.006745
    77  H    0.182150
    78  H   -0.005642
    79  H    0.043728
 Sum of Mulliken charges =  -0.00000

 Dipole moment (field-independent basis, Debye):
    X=             -0.3560    Y=              0.0707    Z=              1.5466  Tot=              1.5887
 Quadrupole moment (field-independent basis, Debye-Ang):
   XX=           -212.8373   YY=           -243.3334   ZZ=           -266.2238
   XY=             -5.0935   XZ=             32.5404   YZ=              5.5176

 Normal termination of Gaussian 16 at Sat Sep 21 20:48:21 2019.
