 Gaussian 16, Revision A.03,
 Gaussian 16:  ES64L-G16RevA.03 25-Dec-2016

 --------------------------
 # td=(NStates=1) B3LYP/SVP
 --------------------------

 --
 TD
 --
 Symbolic Z-matrix:
 Charge =  0 Multiplicity = 1

                         Standard orientation:
 ---------------------------------------------------------------------
 Center     Atomic      Atomic             Coordinates (Angstroms)
 Number     Number       Type             X           Y           Z
 ---------------------------------------------------------------------
      1          8           0       -3.386836   -1.284611   -2.922761
      2          8           0        3.146738    2.975729    3.294342
      3          8           0        3.668457    1.248172    4.573884
      4          8           0        7.900320   -1.254414   -1.036974
      5          8           0        6.685467   -3.055949   -1.927690
      6          8           0       -2.595206    1.541750    1.526553
      7          7           0       -0.307387   -2.454673    0.842286
      8          7           0       -2.694827   -1.228905   -0.694636
      9          7           0        1.190931    0.098423   -0.661046
     10          7           0       -0.978511    1.494799   -0.095005
     11          6           0       -3.310254   -1.310514    0.478942
     12          6           0       -2.701105   -2.389951    1.453912
     13          6           0       -1.319508   -2.070429    1.687908
     14          6           0       -0.630444   -1.308918    2.738166
     15          6           0        0.754788   -1.275678    2.440670
     16          6           0        0.940783   -1.967412    1.199641
     17          6           0       -4.748434   -1.831053    0.216616
     18          6           0        1.794073   -0.570914    3.234425
     19          6           0       -4.856554   -1.973505   -1.140759
     20          6           0        2.125343   -1.962928    0.310957
     21          6           0        2.131640   -0.896147   -0.639872
     22          6           0       -3.621556   -1.429717   -1.781918
     23          6           0        2.956732   -0.646924   -1.793213
     24          6           0       -1.294314   -0.630034    3.825547
     25          6           0       -5.763372   -1.971523    1.259037
     26          6           0        2.563143    0.441085   -2.435455
     27          6           0        1.891694    0.975688    2.916261
     28          6           0        1.321830    0.955097   -1.697491
     29          6           0        4.247415   -1.450194   -2.029841
     30          6           0       -5.811678   -2.381342   -1.955794
     31          6           0        5.555419   -0.869901   -1.374741
     32          6           0        3.125762    1.134512   -3.650252
     33          6           0        0.500294    1.992685   -1.985583
     34          6           0        2.970991    1.696408    3.738853
     35          6           0       -0.566883    2.276552   -1.123410
     36          6           0       -6.910648   -3.141705   -1.703483
     37          6           0        6.788456   -1.903355   -1.527826
     38          6           0       -1.450922    3.474108   -1.255861
     39          6           0       -2.332727    3.336599   -0.116023
     40          6           0       -2.012790    2.109503    0.594681
     41          6           0       -1.289681    4.527195   -2.197198
     42          6           0       -3.451402    4.298894    0.305433
     43          6           0       -1.851897    5.810066   -2.221161
     44          1           0       -3.344403   -0.399383    1.381609
     45          1           0       -2.797804   -3.176022    0.931849
     46          1           0       -3.372407   -2.473645    2.301311
     47          1           0       -0.823393   -2.427881   -0.281632
     48          1           0       -2.133446   -0.368708   -0.823213
     49          1           0        1.560901   -0.808942    4.186639
     50          1           0        2.918754   -0.976640    2.841471
     51          1           0        2.976676   -2.686506    0.290231
     52          1           0       -2.110302   -1.347236    4.184762
     53          1           0       -0.683901   -0.296444    4.593974
     54          1           0       -1.950154    0.120993    3.452258
     55          1           0       -5.720320   -1.299434    2.078286
     56          1           0       -5.642879   -2.979058    1.756434
     57          1           0       -6.871507   -1.953954    0.782687
     58          1           0        1.986056    1.185343    1.948045
     59          1           0        0.988410    1.573923    3.137339
     60          1           0        0.406493    0.164360   -0.108609
     61          1           0        4.554763   -1.463221   -3.080111
     62          1           0        4.257872   -2.614539   -1.611991
     63          1           0       -5.813397   -1.890065   -2.997087
     64          1           0        5.369143   -0.909575   -0.376205
     65          1           0        5.610049    0.244274   -1.830439
     66          1           0        3.990320    0.568520   -4.178055
     67          1           0        3.582445    2.125220   -3.314674
     68          1           0        2.258538    1.232109   -4.261883
     69          1           0        0.568614    2.755910   -2.761409
     70          1           0       -7.027821   -3.673346   -0.892575
     71          1           0       -7.609815   -3.267395   -2.634631
     72          1           0        3.798472    3.467687    3.733675
     73          1           0       -0.626890    4.232726   -3.003869
     74          1           0       -3.871146    4.693957   -0.678705
     75          1           0       -4.236994    3.745193    1.112600
     76          1           0       -2.775647    5.186663    0.832391
     77          1           0        8.519973   -2.029094   -0.881798
     78          1           0       -1.787612    6.757908   -2.934224
     79          1           0       -2.435767    5.975900   -1.321474
 ---------------------------------------------------------------------

 SCF Done:  E(RB3LYP) =  -1947.79779725     A.U. after   20 cycles

 Excitation energies and oscillator strengths:

 Excited State   1:      Singlet-A      0.7260 eV 1707.71 nm  f=0.0012  <S**2>=0.000
     155 ->156         0.70385
 This state for optimization and/or second-order correction.
 Total Energy, E(TD-HF/TD-DFT) =  -1947.77111628
 Copying the excited state density for this state as the 1-particle RhoCI density.

 The electronic state is 1-A.
 Alpha  occ. eigenvalues --  -19.20655 -19.16181 -19.15686 -19.12359 -19.11910
 Alpha  occ. eigenvalues --  -19.11008 -14.37637 -14.36433 -14.33935 -14.30143
 Alpha  occ. eigenvalues --  -10.34748 -10.31065 -10.28049 -10.27836 -10.26970
 Alpha  occ. eigenvalues --  -10.25375 -10.25130 -10.23183 -10.23039 -10.22506
 Alpha  occ. eigenvalues --  -10.22454 -10.22405 -10.22391 -10.22363 -10.22238
 Alpha  occ. eigenvalues --  -10.22218 -10.22133 -10.22043 -10.21826 -10.21034
 Alpha  occ. eigenvalues --  -10.20867 -10.20604 -10.20551 -10.19552 -10.19489
 Alpha  occ. eigenvalues --  -10.19106 -10.18144 -10.17821 -10.17739 -10.17396
 Alpha  occ. eigenvalues --  -10.17026 -10.16256 -10.15954  -1.10162  -1.09247
 Alpha  occ. eigenvalues --   -1.04937  -1.02597  -1.02516  -1.01023  -1.00663
 Alpha  occ. eigenvalues --   -0.95711  -0.94200  -0.93142  -0.83859  -0.82510
 Alpha  occ. eigenvalues --   -0.82436  -0.81104  -0.79829  -0.78918  -0.78196
 Alpha  occ. eigenvalues --   -0.76918  -0.75705  -0.75324  -0.74741  -0.73184
 Alpha  occ. eigenvalues --   -0.70959  -0.70633  -0.70054  -0.68149  -0.66870
 Alpha  occ. eigenvalues --   -0.65640  -0.65186  -0.63517  -0.61620  -0.61289
 Alpha  occ. eigenvalues --   -0.60738  -0.60246  -0.60059  -0.58371  -0.56633
 Alpha  occ. eigenvalues --   -0.56224  -0.55992  -0.53599  -0.53457  -0.53075
 Alpha  occ. eigenvalues --   -0.51705  -0.50958  -0.50669  -0.50423  -0.49989
 Alpha  occ. eigenvalues --   -0.49410  -0.48717  -0.48370  -0.47813  -0.47797
 Alpha  occ. eigenvalues --   -0.47324  -0.47115  -0.46774  -0.46490  -0.45616
 Alpha  occ. eigenvalues --   -0.45280  -0.44957  -0.44677  -0.44575  -0.44497
 Alpha  occ. eigenvalues --   -0.44006  -0.43897  -0.43301  -0.43124  -0.42885
 Alpha  occ. eigenvalues --   -0.42637  -0.42258  -0.42043  -0.41459  -0.40947
 Alpha  occ. eigenvalues --   -0.40921  -0.40484  -0.40169  -0.40064  -0.39701
 Alpha  occ. eigenvalues --   -0.39369  -0.38853  -0.38631  -0.38449  -0.38361
 Alpha  occ. eigenvalues --   -0.37463  -0.37275  -0.36836  -0.36787  -0.36649
 Alpha  occ. eigenvalues --   -0.36011  -0.35840  -0.35514  -0.35093  -0.34727
 Alpha  occ. eigenvalues --   -0.34699  -0.34446  -0.32976  -0.32048  -0.32013
 Alpha  occ. eigenvalues --   -0.31491  -0.30977  -0.30316  -0.28847  -0.28363
 Alpha  occ. eigenvalues --   -0.27811  -0.27437  -0.26480  -0.26046  -0.25335
 Alpha  occ. eigenvalues --   -0.23227  -0.22322  -0.22239  -0.21885  -0.17998
 Alpha virt. eigenvalues --   -0.12959  -0.07911  -0.05150  -0.02589  -0.02165
 Alpha virt. eigenvalues --    0.00299   0.01796   0.02024   0.02152   0.03446
 Alpha virt. eigenvalues --    0.03730   0.04316   0.04763   0.05110   0.05486

 Mulliken charges:
               1
     1  O   -0.153800
     2  O   -0.192367
     3  O   -0.182293
     4  O   -0.200543
     5  O   -0.216476
     6  O   -0.211961
     7  N   -0.148277
     8  N   -0.165843
     9  N    0.003723
    10  N   -0.317013
    11  C   -0.136917
    12  C    0.351134
    13  C   -0.108700
    14  C   -0.132183
    15  C   -0.103179
    16  C   -0.017182
    17  C   -0.108179
    18  C    0.122529
    19  C    0.004296
    20  C   -0.057526
    21  C    0.045323
    22  C    0.123876
    23  C   -0.022939
    24  C    0.166272
    25  C    0.058114
    26  C   -0.134121
    27  C    0.060436
    28  C    0.148639
    29  C   -0.024377
    30  C   -0.109230
    31  C   -0.003136
    32  C    0.085413
    33  C   -0.101446
    34  C    0.103392
    35  C    0.047385
    36  C   -0.000815
    37  C    0.176100
    38  C    0.069222
    39  C   -0.211390
    40  C    0.184044
    41  C   -0.047162
    42  C   -0.022534
    43  C   -0.048038
    44  H    0.099165
    45  H   -0.120944
    46  H   -0.023630
    47  H    0.188303
    48  H    0.157644
    49  H   -0.010366
    50  H    0.019523
    51  H    0.020461
    52  H   -0.014670
    53  H   -0.018696
    54  H    0.009460
    55  H    0.016384
    56  H    0.038635
    57  H    0.048524
    58  H   -0.028301
    59  H    0.030455
    60  H    0.126956
    61  H    0.015320
    62  H    0.054611
    63  H    0.022783
    64  H    0.010485
    65  H    0.061733
    66  H    0.037128
    67  H    0.046405
    68  H    0.039179
    69  H   -0.024387
    70  H   -0.038635
    71  H    0.035137
    72  H    0.153812
    73  H   -0.010920
    74  H    0.060455
    75  H    0.079355
    76  H    0.070799
    77  H    0.193963
    78  H    0.072915
    79  H    0.008689
 Sum of Mulliken charges =  -0.00000

 Dipole moment (field-independent basis, Debye):
    X=              2.5381    Y=              4.2708    Z=             -1.7662  Tot=              5.2727
 Quadrupole moment (field-independent basis, Debye-Ang):
   XX=           -230.2558   YY=           -240.4075   ZZ=           -267.3926
   XY=              3.4120   XZ=            -20.2832   YZ=            -13.0299

 Normal termination of Gaussian 16 at Fri Jul 26 16:05:28 2019.
