 Gaussian 16, Revision A.03,
 Gaussian 16:  ES64L-G16RevA.03 25-Dec-2016

 --------------------------
 # td=(NStates=1) B3LYP/SVP
 --------------------------

 --
 TD
 --
 Symbolic Z-matrix:
 Charge =  0 Multiplicity = 1

                         Standard orientation:
 ---------------------------------------------------------------------
 Center     Atomic      Atomic             Coordinates (Angstroms)
 Number     Number       Type             X           Y           Z
 ---------------------------------------------------------------------
      1          8           0       -3.115388   -1.971949   -2.637555
      2          8           0        3.183013    3.516309    2.501753
      3          8           0        3.432956    2.172974    4.400921
      4          8           0        7.864295   -1.679539   -0.686638
      5          8           0        6.575090   -3.370033   -1.498607
      6          8           0       -2.674780    1.806151    1.256943
      7          7           0       -0.357694   -2.252821    1.355175
      8          7           0       -2.620836   -1.397944   -0.508052
      9          7           0        1.018074   -0.102090   -0.735312
     10          7           0       -1.031251    1.341014   -0.419100
     11          6           0       -3.372728   -1.280878    0.738751
     12          6           0       -2.699809   -1.959670    1.938893
     13          6           0       -1.308166   -1.712339    2.147202
     14          6           0       -0.657520   -0.741775    2.925135
     15          6           0        0.722912   -0.744869    2.602777
     16          6           0        0.935511   -1.657187    1.475609
     17          6           0       -4.614918   -1.898160    0.464865
     18          6           0        1.831571    0.131084    3.202972
     19          6           0       -4.614940   -2.249091   -0.862263
     20          6           0        2.062052   -1.821616    0.685328
     21          6           0        2.078571   -1.032853   -0.428816
     22          6           0       -3.324222   -1.806711   -1.559627
     23          6           0        3.067640   -0.937500   -1.572739
     24          6           0       -1.424883    0.079140    4.009558
     25          6           0       -5.851823   -1.942326    1.327980
     26          6           0        2.638291    0.018099   -2.483465
     27          6           0        1.932555    1.553502    2.583517
     28          6           0        1.332404    0.633520   -1.890924
     29          6           0        4.259304   -1.762469   -1.623456
     30          6           0       -5.729853   -2.758132   -1.734285
     31          6           0        5.512358   -1.163841   -1.074330
     32          6           0        3.241831    0.529454   -3.750553
     33          6           0        0.527124    1.657030   -2.242310
     34          6           0        2.981624    2.486586    3.304770
     35          6           0       -0.612636    2.087682   -1.543002
     36          6           0       -6.967101   -3.178885   -1.282266
     37          6           0        6.617024   -2.206614   -1.128063
     38          6           0       -1.370487    3.374100   -1.760712
     39          6           0       -2.289633    3.334769   -0.688092
     40          6           0       -2.108610    2.151042    0.152494
     41          6           0       -1.110075    4.146619   -2.943708
     42          6           0       -3.421448    4.198694   -0.304116
     43          6           0       -1.903114    5.345088   -3.080578
     44          1           0       -3.332388   -0.081709    1.034550
     45          1           0       -2.947286   -3.100232    2.064283
     46          1           0       -3.489222   -1.657375    2.905791
     47          1           0       -0.685719   -2.472123    0.288148
     48          1           0       -1.912254   -0.804495   -0.515507
     49          1           0        1.762620    0.362902    4.335718
     50          1           0        2.907431   -0.215795    2.905360
     51          1           0        2.880433   -2.548663    0.991699
     52          1           0       -2.154500   -0.581205    4.632416
     53          1           0       -0.656395    0.649951    4.754080
     54          1           0       -1.925725    0.832088    3.493931
     55          1           0       -5.602776   -1.156556    2.093947
     56          1           0       -6.162276   -2.876503    1.771606
     57          1           0       -6.690213   -1.748758    0.801742
     58          1           0        2.020389    1.528528    1.539713
     59          1           0        1.005040    2.134569    2.537106
     60          1           0        0.055041    0.192548    0.003062
     61          1           0        4.306295   -2.114012   -2.777131
     62          1           0        3.895457   -2.658350   -1.156732
     63          1           0       -5.432662   -2.917413   -2.599036
     64          1           0        5.363045   -0.659465    0.161616
     65          1           0        5.779285   -0.221459   -1.497650
     66          1           0        4.006461   -0.242018   -4.300807
     67          1           0        3.582624    1.436627   -3.462673
     68          1           0        2.477725    0.853616   -4.540846
     69          1           0        0.861329    2.231081   -2.920232
     70          1           0       -7.313740   -3.255973   -0.267680
     71          1           0       -7.673134   -3.263262   -2.155575
     72          1           0        3.681845    4.086536    2.979311
     73          1           0       -0.388807    3.975529   -3.494934
     74          1           0       -4.277711    3.840632   -1.047616
     75          1           0       -4.101262    3.673426    0.346507
     76          1           0       -3.318175    5.316934   -0.132502
     77          1           0        8.628550   -2.480729   -0.790378
     78          1           0       -1.672887    6.255413   -3.866053
     79          1           0       -2.808826    5.548330   -2.298018
 ---------------------------------------------------------------------

 SCF Done:  E(RB3LYP) =  -1947.66384621     A.U. after   18 cycles

 Excitation energies and oscillator strengths:

 Excited State   1:      Singlet-A      0.9218 eV 1345.05 nm  f=0.0007  <S**2>=0.000
     155 ->156         0.70186
 This state for optimization and/or second-order correction.
 Total Energy, E(TD-HF/TD-DFT) =  -1947.62997137
 Copying the excited state density for this state as the 1-particle RhoCI density.

 The electronic state is 1-A.
 Alpha  occ. eigenvalues --  -19.19836 -19.18383 -19.14545 -19.13100 -19.13069
 Alpha  occ. eigenvalues --  -19.08878 -14.36728 -14.36499 -14.32303 -14.32188
 Alpha  occ. eigenvalues --  -10.33826 -10.32453 -10.29358 -10.26856 -10.25865
 Alpha  occ. eigenvalues --  -10.25784 -10.25347 -10.24969 -10.24818 -10.23668
 Alpha  occ. eigenvalues --  -10.23548 -10.22681 -10.22660 -10.22570 -10.22529
 Alpha  occ. eigenvalues --  -10.22143 -10.22100 -10.22076 -10.20974 -10.20687
 Alpha  occ. eigenvalues --  -10.20530 -10.19515 -10.19514 -10.19454 -10.18816
 Alpha  occ. eigenvalues --  -10.18339 -10.18231 -10.18164 -10.18094 -10.18022
 Alpha  occ. eigenvalues --  -10.17414 -10.16906 -10.16552  -1.12458  -1.07570
 Alpha  occ. eigenvalues --   -1.06968  -1.01603  -1.00426  -0.98671  -0.96131
 Alpha  occ. eigenvalues --   -0.95344  -0.94413  -0.91619  -0.84192  -0.82676
 Alpha  occ. eigenvalues --   -0.81952  -0.80700  -0.79450  -0.78965  -0.78004
 Alpha  occ. eigenvalues --   -0.77322  -0.76292  -0.74720  -0.74074  -0.73309
 Alpha  occ. eigenvalues --   -0.70835  -0.70431  -0.69529  -0.68029  -0.67112
 Alpha  occ. eigenvalues --   -0.66351  -0.65494  -0.63576  -0.61429  -0.60764
 Alpha  occ. eigenvalues --   -0.60522  -0.59624  -0.58360  -0.57590  -0.56571
 Alpha  occ. eigenvalues --   -0.55652  -0.55448  -0.54073  -0.53466  -0.52593
 Alpha  occ. eigenvalues --   -0.52040  -0.51734  -0.50212  -0.49866  -0.49584
 Alpha  occ. eigenvalues --   -0.49232  -0.48994  -0.48460  -0.48151  -0.47890
 Alpha  occ. eigenvalues --   -0.47224  -0.47094  -0.46771  -0.46283  -0.46176
 Alpha  occ. eigenvalues --   -0.45807  -0.45324  -0.44543  -0.44338  -0.43662
 Alpha  occ. eigenvalues --   -0.43536  -0.43238  -0.42854  -0.42693  -0.42495
 Alpha  occ. eigenvalues --   -0.42230  -0.41653  -0.41567  -0.41276  -0.40977
 Alpha  occ. eigenvalues --   -0.40864  -0.40298  -0.40206  -0.39970  -0.39904
 Alpha  occ. eigenvalues --   -0.39630  -0.39099  -0.38801  -0.38419  -0.38123
 Alpha  occ. eigenvalues --   -0.37701  -0.37219  -0.36846  -0.35979  -0.35856
 Alpha  occ. eigenvalues --   -0.35582  -0.34789  -0.34580  -0.34221  -0.34094
 Alpha  occ. eigenvalues --   -0.33706  -0.33324  -0.32527  -0.32354  -0.31783
 Alpha  occ. eigenvalues --   -0.30881  -0.29665  -0.29594  -0.28661  -0.28602
 Alpha  occ. eigenvalues --   -0.27960  -0.26682  -0.26562  -0.25547  -0.24014
 Alpha  occ. eigenvalues --   -0.23646  -0.22729  -0.22506  -0.21513  -0.19009
 Alpha virt. eigenvalues --   -0.13251  -0.08170  -0.03944  -0.03610  -0.03339
 Alpha virt. eigenvalues --    0.00463   0.00651   0.01307   0.02237   0.02502
 Alpha virt. eigenvalues --    0.03050   0.03341   0.04412   0.04595   0.05004

 Mulliken charges:
               1
     1  O   -0.104527
     2  O   -0.086328
     3  O   -0.231979
     4  O   -0.311579
     5  O   -0.217685
     6  O   -0.263277
     7  N   -0.116010
     8  N   -0.137038
     9  N   -0.280456
    10  N   -0.387003
    11  C    0.015279
    12  C    0.032552
    13  C   -0.048456
    14  C   -0.110356
    15  C   -0.070242
    16  C   -0.009884
    17  C   -0.142868
    18  C    0.075210
    19  C   -0.166157
    20  C   -0.158620
    21  C    0.169042
    22  C    0.106126
    23  C   -0.117784
    24  C    0.064841
    25  C    0.146178
    26  C   -0.089131
    27  C   -0.027313
    28  C    0.154631
    29  C    0.090428
    30  C    0.100150
    31  C   -0.035382
    32  C    0.095693
    33  C   -0.017633
    34  C    0.134882
    35  C    0.110507
    36  C   -0.025756
    37  C    0.208737
    38  C    0.093499
    39  C   -0.199317
    40  C    0.246263
    41  C    0.112190
    42  C    0.075943
    43  C   -0.092961
    44  H    0.101933
    45  H    0.009562
    46  H    0.018042
    47  H    0.157806
    48  H    0.058545
    49  H    0.039200
    50  H    0.004582
    51  H    0.038403
    52  H    0.032420
    53  H    0.013456
    54  H    0.016527
    55  H    0.021758
    56  H    0.018544
    57  H   -0.011554
    58  H   -0.016223
    59  H    0.017476
    60  H    0.314255
    61  H    0.045876
    62  H    0.015629
    63  H   -0.097083
    64  H    0.083233
    65  H    0.032959
    66  H    0.062614
    67  H    0.005473
    68  H    0.032059
    69  H   -0.141773
    70  H    0.010459
    71  H    0.026148
    72  H    0.128832
    73  H   -0.114099
    74  H    0.030494
    75  H    0.003098
    76  H    0.072812
    77  H    0.241845
    78  H    0.071014
    79  H    0.071268
 Sum of Mulliken charges =  -0.00000

 Dipole moment (field-independent basis, Debye):
    X=              3.2689    Y=              6.0208    Z=             -3.5576  Tot=              7.7197
 Quadrupole moment (field-independent basis, Debye-Ang):
   XX=           -232.9875   YY=           -238.4239   ZZ=           -266.9279
   XY=             -1.6558   XZ=            -21.3197   YZ=            -18.2177

 Normal termination of Gaussian 16 at Sat Jul 27 16:36:24 2019.
