 Gaussian 16, Revision A.03,
 Gaussian 16:  ES64L-G16RevA.03 25-Dec-2016

 --------------------------
 # td=(NStates=1) B3LYP/SVP
 --------------------------

 --
 TD
 --
 Symbolic Z-matrix:
 Charge =  0 Multiplicity = 1

                         Standard orientation:
 ---------------------------------------------------------------------
 Center     Atomic      Atomic             Coordinates (Angstroms)
 Number     Number       Type             X           Y           Z
 ---------------------------------------------------------------------
      1          8           0       -3.282405   -1.501887   -2.849029
      2          8           0        3.073410    3.296719    2.847122
      3          8           0        3.745359    1.770741    4.346079
      4          8           0        7.755476   -1.538743   -0.763237
      5          8           0        6.427831   -3.446234   -1.448782
      6          8           0       -2.695435    1.708134    1.281432
      7          7           0       -0.296205   -2.255730    1.044409
      8          7           0       -2.743214   -1.232645   -0.518734
      9          7           0        1.265074   -0.014864   -0.688965
     10          7           0       -0.937366    1.481648   -0.287448
     11          6           0       -3.389448   -1.365721    0.702970
     12          6           0       -2.645358   -2.276381    1.736271
     13          6           0       -1.313877   -1.946392    1.928286
     14          6           0       -0.705398   -0.991345    2.836924
     15          6           0        0.669411   -0.968241    2.576037
     16          6           0        0.939308   -1.825997    1.384868
     17          6           0       -4.785050   -1.793222    0.401931
     18          6           0        1.729714   -0.277306    3.258876
     19          6           0       -4.748956   -2.012418   -0.955796
     20          6           0        2.084347   -1.840005    0.438703
     21          6           0        2.179715   -0.962370   -0.619406
     22          6           0       -3.577090   -1.577152   -1.671119
     23          6           0        3.052100   -0.856341   -1.775688
     24          6           0       -1.335072   -0.201976    3.910899
     25          6           0       -5.890955   -1.904008    1.438032
     26          6           0        2.571500    0.320704   -2.465148
     27          6           0        1.951455    1.196321    2.761534
     28          6           0        1.433648    0.790643   -1.853140
     29          6           0        4.264177   -1.692850   -1.975613
     30          6           0       -5.921281   -2.564981   -1.928693
     31          6           0        5.477800   -1.210771   -1.128693
     32          6           0        3.110248    0.735185   -3.828876
     33          6           0        0.534985    1.809106   -2.232114
     34          6           0        3.013581    2.036274    3.443412
     35          6           0       -0.496472    2.170249   -1.349542
     36          6           0       -7.077638   -3.216522   -1.489215
     37          6           0        6.553844   -2.157572   -1.219448
     38          6           0       -1.374452    3.415272   -1.451431
     39          6           0       -2.195168    3.427178   -0.358764
     40          6           0       -2.026155    2.082689    0.231723
     41          6           0       -1.140435    4.481437   -2.479869
     42          6           0       -3.236347    4.359414    0.039337
     43          6           0       -1.669148    5.748099   -2.454591
     44          1           0       -3.445579   -0.360673    1.286042
     45          1           0       -2.838224   -3.290360    1.330969
     46          1           0       -3.379278   -2.255040    2.570610
     47          1           0       -0.570497   -2.813147    0.257539
     48          1           0       -2.085309   -0.445562   -0.635015
     49          1           0        1.651342   -0.027619    4.163915
     50          1           0        2.747867   -0.820113    2.944452
     51          1           0        2.593084   -2.916650    0.523689
     52          1           0       -2.257808   -0.665623    4.205024
     53          1           0       -0.656951    0.306490    4.525171
     54          1           0       -1.867562    0.581917    3.396860
     55          1           0       -5.686801   -1.189408    2.302234
     56          1           0       -5.750962   -2.911172    1.764929
     57          1           0       -6.930861   -1.780305    1.105570
     58          1           0        2.174770    1.236558    1.672058
     59          1           0        1.119835    1.770297    2.815604
     60          1           0        0.254673    0.298560   -0.148159
     61          1           0        4.420181   -1.686133   -3.218277
     62          1           0        4.324919   -2.875043   -1.687364
     63          1           0       -5.945011   -2.431242   -3.025269
     64          1           0        5.300599   -1.259947   -0.066173
     65          1           0        5.755099   -0.284483   -1.485811
     66          1           0        4.107129    0.023506   -3.966291
     67          1           0        3.432499    1.918861   -3.726519
     68          1           0        2.455601    0.680090   -4.680832
     69          1           0        0.619762    2.272418   -3.154605
     70          1           0       -7.357511   -3.485381   -0.495076
     71          1           0       -7.694400   -3.558283   -2.325734
     72          1           0        3.731364    3.811942    3.342318
     73          1           0       -0.434640    4.192997   -3.430317
     74          1           0       -4.017521    4.505242   -0.738730
     75          1           0       -3.441972    3.859312    0.980335
     76          1           0       -2.796703    5.333983    0.364500
     77          1           0        8.648905   -1.992843   -0.967168
     78          1           0       -1.411604    6.152991   -3.444180
     79          1           0       -2.205537    6.359175   -1.625749
 ---------------------------------------------------------------------

 SCF Done:  E(RB3LYP) =  -1947.80188931     A.U. after   23 cycles

 Excitation energies and oscillator strengths:

 Excited State   1:      Singlet-A      0.5922 eV 2093.45 nm  f=0.0018  <S**2>=0.000
     155 ->156         0.70415
 This state for optimization and/or second-order correction.
 Total Energy, E(TD-HF/TD-DFT) =  -1947.78012460
 Copying the excited state density for this state as the 1-particle RhoCI density.

 The electronic state is 1-A.
 Alpha  occ. eigenvalues --  -19.19746 -19.16419 -19.14847 -19.12535 -19.11947
 Alpha  occ. eigenvalues --  -19.09714 -14.37285 -14.36732 -14.32241 -14.31977
 Alpha  occ. eigenvalues --  -10.34957 -10.31327 -10.28431 -10.27233 -10.26364
 Alpha  occ. eigenvalues --  -10.25985 -10.25619 -10.24327 -10.24051 -10.24025
 Alpha  occ. eigenvalues --  -10.23595 -10.23076 -10.22896 -10.22419 -10.21514
 Alpha  occ. eigenvalues --  -10.21497 -10.21421 -10.21358 -10.21278 -10.21208
 Alpha  occ. eigenvalues --  -10.20578 -10.20304 -10.20019 -10.19887 -10.19468
 Alpha  occ. eigenvalues --  -10.19390 -10.19057 -10.18813 -10.18217 -10.18080
 Alpha  occ. eigenvalues --  -10.17097 -10.17061 -10.16305  -1.08316  -1.06310
 Alpha  occ. eigenvalues --   -1.01025  -1.00572  -0.99695  -0.99628  -0.98300
 Alpha  occ. eigenvalues --   -0.96913  -0.94087  -0.92690  -0.83867  -0.83383
 Alpha  occ. eigenvalues --   -0.81426  -0.80990  -0.79864  -0.79437  -0.79106
 Alpha  occ. eigenvalues --   -0.77065  -0.76384  -0.75774  -0.74041  -0.73095
 Alpha  occ. eigenvalues --   -0.71072  -0.70601  -0.70456  -0.69203  -0.68117
 Alpha  occ. eigenvalues --   -0.67423  -0.66517  -0.63991  -0.61502  -0.60780
 Alpha  occ. eigenvalues --   -0.59736  -0.58305  -0.57450  -0.57031  -0.56686
 Alpha  occ. eigenvalues --   -0.55613  -0.55190  -0.54765  -0.53960  -0.53470
 Alpha  occ. eigenvalues --   -0.52725  -0.52156  -0.51415  -0.51071  -0.50173
 Alpha  occ. eigenvalues --   -0.49092  -0.48758  -0.48726  -0.47968  -0.47820
 Alpha  occ. eigenvalues --   -0.47305  -0.46713  -0.46477  -0.46220  -0.45669
 Alpha  occ. eigenvalues --   -0.45263  -0.45113  -0.44594  -0.44239  -0.44020
 Alpha  occ. eigenvalues --   -0.43121  -0.43095  -0.42658  -0.42358  -0.42164
 Alpha  occ. eigenvalues --   -0.41861  -0.41617  -0.41372  -0.41200  -0.41026
 Alpha  occ. eigenvalues --   -0.40763  -0.40596  -0.40015  -0.39982  -0.39672
 Alpha  occ. eigenvalues --   -0.39406  -0.39185  -0.38507  -0.38352  -0.37857
 Alpha  occ. eigenvalues --   -0.37782  -0.37437  -0.37270  -0.37083  -0.36896
 Alpha  occ. eigenvalues --   -0.35928  -0.35387  -0.35323  -0.34951  -0.34728
 Alpha  occ. eigenvalues --   -0.34063  -0.33171  -0.32678  -0.32234  -0.31842
 Alpha  occ. eigenvalues --   -0.31708  -0.29525  -0.29405  -0.29152  -0.28451
 Alpha  occ. eigenvalues --   -0.27728  -0.26395  -0.26135  -0.25047  -0.24015
 Alpha  occ. eigenvalues --   -0.23889  -0.22799  -0.22680  -0.21909  -0.18508
 Alpha virt. eigenvalues --   -0.13689  -0.08460  -0.04621  -0.04603  -0.02303
 Alpha virt. eigenvalues --    0.00932   0.01324   0.01489   0.01545   0.02042
 Alpha virt. eigenvalues --    0.03569   0.03972   0.04088   0.04735   0.05095

 Mulliken charges:
               1
     1  O   -0.214739
     2  O   -0.230144
     3  O   -0.199402
     4  O   -0.276850
     5  O   -0.297119
     6  O   -0.287967
     7  N   -0.028014
     8  N   -0.252807
     9  N   -0.188819
    10  N   -0.282335
    11  C   -0.006284
    12  C    0.154671
    13  C   -0.027998
    14  C   -0.165441
    15  C   -0.129033
    16  C   -0.037973
    17  C   -0.133594
    18  C    0.216674
    19  C   -0.108318
    20  C   -0.152748
    21  C    0.169496
    22  C    0.184723
    23  C   -0.004617
    24  C    0.263360
    25  C    0.101405
    26  C   -0.129367
    27  C   -0.010138
    28  C    0.156084
    29  C   -0.106047
    30  C   -0.016836
    31  C    0.126183
    32  C    0.006635
    33  C   -0.056255
    34  C    0.121852
    35  C    0.110083
    36  C   -0.045959
    37  C    0.200795
    38  C    0.045949
    39  C   -0.215934
    40  C    0.191098
    41  C   -0.083616
    42  C    0.103350
    43  C   -0.037910
    44  H    0.057807
    45  H   -0.033909
    46  H   -0.015317
    47  H    0.101860
    48  H    0.140667
    49  H   -0.079304
    50  H    0.014195
    51  H    0.058477
    52  H   -0.036550
    53  H   -0.015525
    54  H   -0.007886
    55  H    0.039450
    56  H    0.029216
    57  H    0.042485
    58  H    0.024165
    59  H   -0.000402
    60  H    0.274051
    61  H    0.056596
    62  H    0.084300
    63  H    0.021751
    64  H    0.062277
    65  H    0.014275
    66  H    0.041898
    67  H    0.045526
    68  H    0.051032
    69  H   -0.044661
    70  H    0.002050
    71  H    0.020210
    72  H    0.172057
    73  H    0.038978
    74  H    0.054436
    75  H    0.021329
    76  H    0.022160
    77  H    0.224661
    78  H    0.029893
    79  H    0.061655
 Sum of Mulliken charges =  -0.00000

 Dipole moment (field-independent basis, Debye):
    X=              3.4560    Y=              3.0737    Z=             -2.3241  Tot=              5.1762
 Quadrupole moment (field-independent basis, Debye-Ang):
   XX=           -226.5957   YY=           -244.9343   ZZ=           -264.0358
   XY=              5.2616   XZ=            -29.8054   YZ=            -13.3643

 Normal termination of Gaussian 16 at Thu Jul 25 22:53:31 2019.
