 Gaussian 16, Revision A.03,
 Gaussian 16:  ES64L-G16RevA.03 25-Dec-2016

 --------------------------
 # td=(NStates=1) B3LYP/SVP
 --------------------------

 --
 TD
 --
 Symbolic Z-matrix:
 Charge =  0 Multiplicity = 1

                         Standard orientation:
 ---------------------------------------------------------------------
 Center     Atomic      Atomic             Coordinates (Angstroms)
 Number     Number       Type             X           Y           Z
 ---------------------------------------------------------------------
      1          8           0        5.402818   -0.156246   -3.271687
      2          8           0       -3.203913   -2.715978    3.300855
      3          8           0       -3.463960   -0.501865    3.111832
      4          8           0       -1.819572    7.178317    1.336714
      5          8           0       -0.632705    6.978497   -0.523984
      6          8           0       -1.669277   -4.001726    0.357401
      7          7           0        2.263654    0.941646    0.503745
      8          7           0        4.371895   -0.752772   -1.303172
      9          7           0       -2.009946    0.740957   -0.254080
     10          7           0       -2.482430   -1.925923   -0.399679
     11          6           0        4.793560   -1.098261    0.005560
     12          6           0        4.329993   -0.131552    1.222732
     13          6           0        2.947305    0.117638    1.295843
     14          6           0        1.951570   -0.511229    2.179859
     15          6           0        0.707904    0.006239    1.779262
     16          6           0        0.884026    1.008957    0.747399
     17          6           0        6.366550   -1.212895   -0.056994
     18          6           0       -0.565154   -0.124876    2.589428
     19          6           0        6.742399   -0.831973   -1.331091
     20          6           0        0.056427    2.067795    0.101572
     21          6           0       -1.271619    1.878360   -0.284589
     22          6           0        5.469849   -0.564615   -2.052858
     23          6           0       -2.174546    2.817470   -0.975913
     24          6           0        2.216201   -1.534870    3.273365
     25          6           0        7.244245   -1.704619    0.995821
     26          6           0       -3.289201    2.260142   -1.423715
     27          6           0       -1.244189   -1.511223    2.772075
     28          6           0       -3.222788    0.817359   -0.982354
     29          6           0       -1.801441    4.389303   -1.066411
     30          6           0        8.003815   -0.740619   -1.941602
     31          6           0       -2.046877    5.082219    0.251067
     32          6           0       -4.348043    2.718461   -2.259081
     33          6           0       -3.884156   -0.319054   -1.472552
     34          6           0       -2.747739   -1.415728    3.114331
     35          6           0       -3.522675   -1.670337   -1.047204
     36          6           0        9.281014   -0.665704   -1.504188
     37          6           0       -1.502508    6.484152    0.197197
     38          6           0       -4.343353   -2.769424   -1.486602
     39          6           0       -3.639090   -3.892114   -1.098123
     40          6           0       -2.477239   -3.437565   -0.384789
     41          6           0       -5.561508   -2.741816   -2.298173
     42          6           0       -3.844071   -5.398670   -1.091005
     43          6           0       -6.416550   -3.819093   -2.635900
     44          1           0        4.531820   -2.154463    0.285014
     45          1           0        4.865002    0.979641    1.015671
     46          1           0        4.790158   -0.411574    2.249879
     47          1           0        2.878953    1.701333    0.142691
     48          1           0        3.325666   -0.665242   -1.593424
     49          1           0       -0.367824    0.386667    3.527580
     50          1           0       -1.139147    0.529168    2.099126
     51          1           0        0.391467    3.022914   -0.096897
     52          1           0        3.224305   -1.569271    3.646414
     53          1           0        1.326584   -1.457802    4.043124
     54          1           0        1.772106   -2.716081    3.053034
     55          1           0        6.741197   -2.502592    1.735348
     56          1           0        7.580466   -0.882327    1.744619
     57          1           0        8.162189   -2.036692    0.672789
     58          1           0       -1.078921   -1.901212    1.837825
     59          1           0       -0.686127   -2.120918    3.474090
     60          1           0       -1.635070   -0.136396   -0.036881
     61          1           0       -2.368713    4.945127   -1.862869
     62          1           0       -0.770654    4.722500   -1.579341
     63          1           0        7.889474   -0.455240   -3.051579
     64          1           0       -1.438402    4.672652    1.045445
     65          1           0       -3.007565    5.159341    0.756158
     66          1           0       -4.004582    3.807552   -2.759482
     67          1           0       -5.205344    2.786271   -1.660340
     68          1           0       -4.569540    1.872740   -3.121494
     69          1           0       -4.837724   -0.273514   -1.895406
     70          1           0        9.741461   -0.818044   -0.399870
     71          1           0        9.969069   -0.418479   -2.186229
     72          1           0       -4.089714   -2.845503    3.578924
     73          1           0       -6.027789   -1.746929   -2.569277
     74          1           0       -4.618769   -5.827504   -0.230340
     75          1           0       -4.174086   -5.841979   -1.981513
     76          1           0       -2.753215   -5.771025   -0.658139
     77          1           0       -1.237957    7.956470    1.319629
     78          1           0       -7.408509   -3.646951   -3.418537
     79          1           0       -6.232279   -4.929129   -2.236721
 ---------------------------------------------------------------------

 SCF Done:  E(RB3LYP) =  -1947.82368398     A.U. after   16 cycles

 Excitation energies and oscillator strengths:

 Excited State   1:      Singlet-A      1.7403 eV  712.42 nm  f=0.3280  <S**2>=0.000
     155 ->156         0.70633
 This state for optimization and/or second-order correction.
 Total Energy, E(TD-HF/TD-DFT) =  -1947.75972864
 Copying the excited state density for this state as the 1-particle RhoCI density.

 The electronic state is 1-A.
 Alpha  occ. eigenvalues --  -19.17976 -19.14917 -19.13306 -19.12566 -19.12257
 Alpha  occ. eigenvalues --  -19.08020 -14.38806 -14.36787 -14.36103 -14.29477
 Alpha  occ. eigenvalues --  -10.32705 -10.30952 -10.27996 -10.27737 -10.25852
 Alpha  occ. eigenvalues --  -10.25329 -10.24313 -10.23911 -10.23718 -10.23711
 Alpha  occ. eigenvalues --  -10.22785 -10.22765 -10.22625 -10.22539 -10.22496
 Alpha  occ. eigenvalues --  -10.21786 -10.21783 -10.21686 -10.21642 -10.21631
 Alpha  occ. eigenvalues --  -10.21545 -10.21428 -10.21068 -10.20838 -10.20797
 Alpha  occ. eigenvalues --  -10.20260 -10.19995 -10.19731 -10.19384 -10.19293
 Alpha  occ. eigenvalues --  -10.19104 -10.18182 -10.17470  -1.09539  -1.08482
 Alpha  occ. eigenvalues --   -1.02261  -1.00114  -1.00058  -0.99518  -0.98890
 Alpha  occ. eigenvalues --   -0.98061  -0.94063  -0.92598  -0.82911  -0.82658
 Alpha  occ. eigenvalues --   -0.81730  -0.81074  -0.80593  -0.79838  -0.78554
 Alpha  occ. eigenvalues --   -0.76743  -0.76110  -0.75767  -0.74198  -0.72422
 Alpha  occ. eigenvalues --   -0.71936  -0.70722  -0.69908  -0.68552  -0.67966
 Alpha  occ. eigenvalues --   -0.67170  -0.66187  -0.64193  -0.62352  -0.60923
 Alpha  occ. eigenvalues --   -0.59905  -0.59554  -0.57973  -0.57617  -0.57203
 Alpha  occ. eigenvalues --   -0.56487  -0.55548  -0.54944  -0.53989  -0.53457
 Alpha  occ. eigenvalues --   -0.52822  -0.51434  -0.50599  -0.50163  -0.49602
 Alpha  occ. eigenvalues --   -0.49333  -0.48534  -0.48047  -0.47917  -0.47682
 Alpha  occ. eigenvalues --   -0.47331  -0.47212  -0.46637  -0.46340  -0.45682
 Alpha  occ. eigenvalues --   -0.45244  -0.44889  -0.44564  -0.44290  -0.43952
 Alpha  occ. eigenvalues --   -0.43453  -0.43062  -0.42803  -0.42530  -0.42117
 Alpha  occ. eigenvalues --   -0.41950  -0.41874  -0.41493  -0.41283  -0.41162
 Alpha  occ. eigenvalues --   -0.40652  -0.40517  -0.40168  -0.40033  -0.39635
 Alpha  occ. eigenvalues --   -0.39451  -0.39279  -0.38874  -0.38731  -0.37814
 Alpha  occ. eigenvalues --   -0.37620  -0.37499  -0.37368  -0.36510  -0.36009
 Alpha  occ. eigenvalues --   -0.35781  -0.35236  -0.34940  -0.34632  -0.34111
 Alpha  occ. eigenvalues --   -0.33899  -0.33631  -0.32571  -0.32306  -0.31925
 Alpha  occ. eigenvalues --   -0.31358  -0.31235  -0.29139  -0.28930  -0.28733
 Alpha  occ. eigenvalues --   -0.27617  -0.26566  -0.25507  -0.25264  -0.24713
 Alpha  occ. eigenvalues --   -0.23793  -0.23711  -0.23413  -0.22727  -0.18699
 Alpha virt. eigenvalues --   -0.11647  -0.07176  -0.06248  -0.01907  -0.01544
 Alpha virt. eigenvalues --   -0.00245   0.01160   0.02008   0.02401   0.03271
 Alpha virt. eigenvalues --    0.03705   0.03906   0.04091   0.04494   0.04947

 Mulliken charges:
               1
     1  O   -0.305963
     2  O   -0.220904
     3  O   -0.155596
     4  O   -0.200861
     5  O   -0.254210
     6  O   -0.188397
     7  N   -0.055615
     8  N   -0.146781
     9  N   -0.077617
    10  N   -0.234491
    11  C    0.106127
    12  C    0.051892
    13  C   -0.094401
    14  C   -0.072822
    15  C   -0.154924
    16  C    0.063637
    17  C   -0.173108
    18  C    0.146494
    19  C    0.018078
    20  C   -0.000371
    21  C    0.042416
    22  C    0.138705
    23  C   -0.060955
    24  C    0.018948
    25  C    0.064275
    26  C   -0.084119
    27  C    0.063924
    28  C    0.122717
    29  C   -0.011999
    30  C   -0.049804
    31  C    0.077759
    32  C    0.032998
    33  C   -0.047572
    34  C    0.135790
    35  C    0.016017
    36  C   -0.033823
    37  C    0.112910
    38  C    0.054489
    39  C   -0.163090
    40  C    0.168103
    41  C   -0.033782
    42  C   -0.000163
    43  C   -0.120399
    44  H    0.027265
    45  H    0.007284
    46  H    0.030210
    47  H    0.131122
    48  H    0.180021
    49  H    0.002841
    50  H   -0.066216
    51  H   -0.044499
    52  H    0.015683
    53  H    0.027160
    54  H    0.039980
    55  H    0.037526
    56  H    0.038352
    57  H    0.007744
    58  H    0.034013
    59  H    0.010443
    60  H    0.120897
    61  H    0.005774
    62  H    0.058975
    63  H    0.035865
    64  H    0.036884
    65  H    0.033027
    66  H    0.050719
    67  H    0.025347
    68  H    0.056001
    69  H   -0.052069
    70  H    0.033615
    71  H   -0.003788
    72  H    0.156311
    73  H    0.021044
    74  H    0.051964
    75  H    0.024020
    76  H    0.064344
    77  H    0.178008
    78  H    0.071163
    79  H    0.059457
 Sum of Mulliken charges =  -0.00000

 Dipole moment (field-independent basis, Debye):
    X=             -1.7746    Y=              0.7562    Z=              3.4140  Tot=              3.9213
 Quadrupole moment (field-independent basis, Debye-Ang):
   XX=           -218.4565   YY=           -248.9666   ZZ=           -263.6873
   XY=              1.0318   XZ=             41.1556   YZ=              4.1559

 Normal termination of Gaussian 16 at Mon Sep 30 20:26:00 2019.
