 Gaussian 16, Revision A.03,
 Gaussian 16:  ES64L-G16RevA.03 25-Dec-2016

 --------------------------
 # td=(NStates=1) B3LYP/SVP
 --------------------------

 --
 TD
 --
 Symbolic Z-matrix:
 Charge =  0 Multiplicity = 1

                         Standard orientation:
 ---------------------------------------------------------------------
 Center     Atomic      Atomic             Coordinates (Angstroms)
 Number     Number       Type             X           Y           Z
 ---------------------------------------------------------------------
      1          8           0        5.151068   -0.288476   -3.388050
      2          8           0       -2.970308   -2.972783    3.171158
      3          8           0       -3.451441   -0.805572    2.798363
      4          8           0       -1.132972    7.293863    1.341435
      5          8           0       -0.464657    7.001551   -0.794724
      6          8           0       -1.787173   -3.884033    0.033742
      7          7           0        2.366486    0.947450    0.665927
      8          7           0        4.315763   -0.593565   -1.196591
      9          7           0       -1.872603    0.752816   -0.251983
     10          7           0       -2.573080   -1.834560   -0.457941
     11          6           0        4.789552   -1.136408    0.073421
     12          6           0        4.468374   -0.277136    1.275906
     13          6           0        2.975564    0.103039    1.513775
     14          6           0        2.027248   -0.539594    2.283637
     15          6           0        0.750053    0.063433    1.760515
     16          6           0        0.990402    1.003892    0.896267
     17          6           0        6.204735   -1.454762   -0.115708
     18          6           0       -0.555103   -0.177260    2.498524
     19          6           0        6.558857   -1.017948   -1.346778
     20          6           0        0.200410    2.020491    0.220479
     21          6           0       -1.103841    1.906640   -0.223162
     22          6           0        5.312303   -0.600520   -2.158376
     23          6           0       -2.017707    2.984649   -0.916342
     24          6           0        2.059145   -1.496411    3.337945
     25          6           0        7.074454   -2.065316    0.880084
     26          6           0       -3.139045    2.381852   -1.239171
     27          6           0       -1.171292   -1.686411    2.489179
     28          6           0       -3.137619    0.986508   -0.937075
     29          6           0       -1.495899    4.383062   -0.890578
     30          6           0        7.822561   -1.062913   -2.076126
     31          6           0       -1.544998    5.091661    0.389562
     32          6           0       -4.338620    2.921371   -1.987681
     33          6           0       -4.025183   -0.062326   -1.183243
     34          6           0       -2.641700   -1.687305    2.786483
     35          6           0       -3.716994   -1.411387   -0.949080
     36          6           0        9.113786   -1.129025   -1.683348
     37          6           0       -0.950667    6.556351    0.290695
     38          6           0       -4.678851   -2.602218   -1.330840
     39          6           0       -3.958840   -3.731764   -1.043153
     40          6           0       -2.703888   -3.227074   -0.531245
     41          6           0       -5.931776   -2.376621   -1.857478
     42          6           0       -4.292585   -5.254234   -1.221234
     43          6           0       -6.763886   -3.347270   -2.563336
     44          1           0        4.193407   -2.176334    0.182461
     45          1           0        5.099263    0.626519    1.213877
     46          1           0        4.823175   -0.978849    2.204675
     47          1           0        3.020044    1.647438    0.018213
     48          1           0        3.456218   -0.379386   -1.657795
     49          1           0       -0.239311    0.137340    3.601018
     50          1           0       -1.507271    0.363257    2.184114
     51          1           0        0.958999    2.734754   -0.293254
     52          1           0        3.112593   -1.778712    3.634227
     53          1           0        1.530106   -1.078430    4.255604
     54          1           0        1.536398   -2.341951    2.890046
     55          1           0        6.549861   -2.764146    1.703207
     56          1           0        7.534088   -1.220023    1.324666
     57          1           0        7.970268   -2.497134    0.419387
     58          1           0       -0.790423   -2.193622    1.470823
     59          1           0       -0.751622   -2.289492    3.276709
     60          1           0       -1.618809   -0.146381    0.043250
     61          1           0       -1.945507    5.192909   -1.613187
     62          1           0       -0.443632    4.529513   -1.201648
     63          1           0        7.637566   -1.208842   -3.141713
     64          1           0       -0.985849    4.481814    1.311396
     65          1           0       -2.526562    5.047653    0.975005
     66          1           0       -3.898607    3.838462   -2.556397
     67          1           0       -5.185808    3.085945   -1.376696
     68          1           0       -4.819451    2.108834   -2.677775
     69          1           0       -5.029532    0.145150   -1.732994
     70          1           0        9.629041   -1.334907   -0.668559
     71          1           0        9.903452   -1.385500   -2.431451
     72          1           0       -4.090736   -2.886939    3.201508
     73          1           0       -6.435343   -1.200999   -1.819956
     74          1           0       -5.451532   -5.552277   -0.907666
     75          1           0       -4.132282   -5.591871   -2.349406
     76          1           0       -3.562807   -5.620655   -0.486020
     77          1           0       -0.783036    8.071287    1.212531
     78          1           0       -7.869970   -3.048573   -2.760543
     79          1           0       -6.372185   -4.351528   -2.714028
 ---------------------------------------------------------------------

 SCF Done:  E(RB3LYP) =  -1947.82263748     A.U. after   18 cycles

 Excitation energies and oscillator strengths:

 Excited State   1:      Singlet-A      1.9694 eV  629.56 nm  f=0.3771  <S**2>=0.000
     155 ->156         0.70141
     155 <-156        -0.10092
 This state for optimization and/or second-order correction.
 Total Energy, E(TD-HF/TD-DFT) =  -1947.75026450
 Copying the excited state density for this state as the 1-particle RhoCI density.

 The electronic state is 1-A.
 Alpha  occ. eigenvalues --  -19.20471 -19.16811 -19.13349 -19.12210 -19.10122
 Alpha  occ. eigenvalues --  -19.09848 -14.38006 -14.36669 -14.35365 -14.29973
 Alpha  occ. eigenvalues --  -10.34112 -10.30643 -10.28541 -10.26638 -10.26083
 Alpha  occ. eigenvalues --  -10.25621 -10.25244 -10.23853 -10.23238 -10.23094
 Alpha  occ. eigenvalues --  -10.23040 -10.22644 -10.22413 -10.22299 -10.22227
 Alpha  occ. eigenvalues --  -10.22139 -10.21930 -10.21898 -10.21500 -10.21380
 Alpha  occ. eigenvalues --  -10.21224 -10.21110 -10.21084 -10.20871 -10.20407
 Alpha  occ. eigenvalues --  -10.20377 -10.20282 -10.20182 -10.20077 -10.19488
 Alpha  occ. eigenvalues --  -10.19325 -10.18340 -10.18114  -1.14606  -1.07217
 Alpha  occ. eigenvalues --   -1.00247  -0.99944  -0.99888  -0.98288  -0.98123
 Alpha  occ. eigenvalues --   -0.96748  -0.93388  -0.92272  -0.83373  -0.83189
 Alpha  occ. eigenvalues --   -0.81792  -0.81144  -0.80299  -0.79803  -0.78208
 Alpha  occ. eigenvalues --   -0.77371  -0.75449  -0.75107  -0.74325  -0.72642
 Alpha  occ. eigenvalues --   -0.71979  -0.71643  -0.70002  -0.69234  -0.68622
 Alpha  occ. eigenvalues --   -0.66488  -0.65627  -0.64366  -0.62884  -0.61308
 Alpha  occ. eigenvalues --   -0.60204  -0.59297  -0.58038  -0.56962  -0.56108
 Alpha  occ. eigenvalues --   -0.55610  -0.54554  -0.54478  -0.53388  -0.52898
 Alpha  occ. eigenvalues --   -0.51799  -0.51357  -0.51068  -0.50552  -0.50036
 Alpha  occ. eigenvalues --   -0.49349  -0.48359  -0.48014  -0.47360  -0.47166
 Alpha  occ. eigenvalues --   -0.46987  -0.46468  -0.46368  -0.45925  -0.45396
 Alpha  occ. eigenvalues --   -0.45234  -0.44993  -0.44153  -0.43932  -0.43760
 Alpha  occ. eigenvalues --   -0.43564  -0.43034  -0.42816  -0.42693  -0.42420
 Alpha  occ. eigenvalues --   -0.42227  -0.41877  -0.41747  -0.41123  -0.41062
 Alpha  occ. eigenvalues --   -0.40750  -0.40420  -0.40151  -0.39920  -0.39668
 Alpha  occ. eigenvalues --   -0.39006  -0.38856  -0.38751  -0.38650  -0.38000
 Alpha  occ. eigenvalues --   -0.37777  -0.37668  -0.37348  -0.37050  -0.36951
 Alpha  occ. eigenvalues --   -0.36131  -0.35019  -0.34604  -0.34224  -0.33687
 Alpha  occ. eigenvalues --   -0.33238  -0.32893  -0.32362  -0.32194  -0.31548
 Alpha  occ. eigenvalues --   -0.30824  -0.30773  -0.29112  -0.28956  -0.28096
 Alpha  occ. eigenvalues --   -0.27644  -0.26749  -0.25719  -0.25235  -0.24867
 Alpha  occ. eigenvalues --   -0.24348  -0.24075  -0.23128  -0.22711  -0.19321
 Alpha virt. eigenvalues --   -0.11479  -0.07682  -0.05788  -0.01978  -0.01886
 Alpha virt. eigenvalues --    0.00379   0.00783   0.01223   0.02472   0.02823
 Alpha virt. eigenvalues --    0.02885   0.03106   0.04116   0.04745   0.05215

 Mulliken charges:
               1
     1  O   -0.289544
     2  O   -0.276255
     3  O   -0.218639
     4  O   -0.035183
     5  O   -0.290244
     6  O   -0.238956
     7  N   -0.146579
     8  N   -0.197157
     9  N   -0.115703
    10  N   -0.213579
    11  C    0.128416
    12  C    0.113980
    13  C   -0.056191
    14  C   -0.148222
    15  C   -0.114465
    16  C    0.065578
    17  C   -0.172928
    18  C   -0.052340
    19  C   -0.073650
    20  C   -0.047252
    21  C    0.087368
    22  C    0.156508
    23  C   -0.010657
    24  C    0.106175
    25  C    0.109017
    26  C   -0.115641
    27  C   -0.061317
    28  C    0.153902
    29  C    0.082476
    30  C    0.016341
    31  C   -0.118576
    32  C    0.083318
    33  C   -0.120264
    34  C    0.175054
    35  C    0.050300
    36  C   -0.093841
    37  C    0.150552
    38  C    0.105338
    39  C   -0.163130
    40  C    0.133297
    41  C   -0.166491
    42  C    0.001547
    43  C   -0.040096
    44  H    0.039139
    45  H   -0.006743
    46  H    0.025668
    47  H    0.168307
    48  H    0.123017
    49  H    0.029654
    50  H    0.045303
    51  H    0.017476
    52  H    0.002203
    53  H    0.029221
    54  H    0.043403
    55  H    0.054404
    56  H    0.021384
    57  H    0.023098
    58  H    0.119371
    59  H    0.023380
    60  H    0.124337
    61  H    0.032373
    62  H    0.020232
    63  H    0.027208
    64  H    0.052414
    65  H    0.041312
    66  H    0.049579
    67  H    0.013578
    68  H    0.030773
    69  H   -0.004825
    70  H    0.027106
    71  H    0.028353
    72  H    0.223554
    73  H    0.050289
    74  H    0.050648
    75  H    0.067314
    76  H    0.052170
    77  H    0.122675
    78  H    0.057316
    79  H    0.033041
 Sum of Mulliken charges =  -0.00000

 Dipole moment (field-independent basis, Debye):
    X=             -1.0788    Y=              2.1350    Z=              3.6611  Tot=              4.3733
 Quadrupole moment (field-independent basis, Debye-Ang):
   XX=           -214.2261   YY=           -242.8108   ZZ=           -269.4241
   XY=             -6.3967   XZ=             37.5756   YZ=             11.8335

 Normal termination of Gaussian 16 at Tue Oct  8 03:54:16 2019.
