 Gaussian 16, Revision A.03,
 Gaussian 16:  ES64L-G16RevA.03 25-Dec-2016

 --------------------------
 # td=(NStates=1) B3LYP/SVP
 --------------------------

 --
 TD
 --
 Symbolic Z-matrix:
 Charge =  0 Multiplicity = 1

                         Standard orientation:
 ---------------------------------------------------------------------
 Center     Atomic      Atomic             Coordinates (Angstroms)
 Number     Number       Type             X           Y           Z
 ---------------------------------------------------------------------
      1          8           0        5.343507   -0.291324   -3.328333
      2          8           0       -3.241702   -2.859064    3.019192
      3          8           0       -3.403381   -0.596625    2.593080
      4          8           0       -1.692661    7.160044    1.501812
      5          8           0       -1.042483    7.154326   -0.693756
      6          8           0       -1.446350   -3.922283    0.162136
      7          7           0        2.331251    1.033273    0.653890
      8          7           0        4.341003   -0.599207   -1.332507
      9          7           0       -1.809373    0.551713   -0.488050
     10          7           0       -2.393227   -1.875905   -0.465201
     11          6           0        4.657464   -1.152282   -0.020152
     12          6           0        4.352818   -0.219074    1.226524
     13          6           0        2.904661    0.069616    1.460533
     14          6           0        1.895982   -0.383245    2.225935
     15          6           0        0.742652    0.187038    1.887410
     16          6           0        0.900796    1.001369    0.757646
     17          6           0        6.291318   -1.316279   -0.073500
     18          6           0       -0.625692   -0.088319    2.551990
     19          6           0        6.654271   -0.906522   -1.311964
     20          6           0        0.138354    2.075899    0.186814
     21          6           0       -1.196216    1.845326   -0.348601
     22          6           0        5.384921   -0.516867   -2.133710
     23          6           0       -2.022409    2.905005   -0.976972
     24          6           0        2.087996   -1.456459    3.302610
     25          6           0        7.034808   -1.715964    1.094251
     26          6           0       -3.089621    2.210313   -1.491594
     27          6           0       -1.138688   -1.561870    2.586165
     28          6           0       -2.983421    0.783099   -1.111402
     29          6           0       -1.694250    4.388324   -0.969324
     30          6           0        7.973180   -0.771991   -1.983029
     31          6           0       -1.952909    5.048574    0.285799
     32          6           0       -4.316853    2.758345   -2.148090
     33          6           0       -3.884195   -0.263160   -1.468707
     34          6           0       -2.733809   -1.578600    2.768262
     35          6           0       -3.627280   -1.608490   -0.967119
     36          6           0        9.167777   -0.630305   -1.425350
     37          6           0       -1.448393    6.527648    0.227256
     38          6           0       -4.442405   -2.832826   -1.354346
     39          6           0       -3.686216   -3.957934   -0.835207
     40          6           0       -2.423484   -3.305729   -0.334113
     41          6           0       -5.671095   -2.756252   -2.015276
     42          6           0       -3.861699   -5.453052   -0.825767
     43          6           0       -6.447972   -3.750342   -2.409476
     44          1           0        4.104988   -2.109056    0.366298
     45          1           0        4.956754    0.895514    1.287900
     46          1           0        4.748598   -0.736647    2.160057
     47          1           0        2.656283    1.510688   -0.124515
     48          1           0        3.309768   -0.561315   -1.705617
     49          1           0       -0.253157    0.330182    3.608564
     50          1           0       -1.327002    0.697000    2.149900
     51          1           0        0.710551    3.091329    0.325561
     52          1           0        3.156039   -1.258684    3.608706
     53          1           0        1.326897   -1.313441    4.050822
     54          1           0        2.038762   -2.554132    2.913012
     55          1           0        6.333761   -2.666181    1.410271
     56          1           0        7.257732   -0.871940    1.915576
     57          1           0        8.059540   -2.015420    0.947959
     58          1           0       -0.947538   -2.265843    1.705909
     59          1           0       -0.656142   -2.199657    3.584280
     60          1           0       -1.589079   -0.330043   -0.428749
     61          1           0       -2.052194    4.970985   -1.714130
     62          1           0       -0.453980    4.402398   -1.100845
     63          1           0        7.833651   -0.803794   -3.193540
     64          1           0       -1.395257    4.683107    1.232964
     65          1           0       -2.938431    5.035515    0.447531
     66          1           0       -4.112942    3.876546   -2.189998
     67          1           0       -5.048388    2.376203   -1.415971
     68          1           0       -4.473432    2.475391   -2.977950
     69          1           0       -4.884736   -0.061060   -1.886563
     70          1           0        9.278343   -0.748042   -0.225595
     71          1           0       10.076303   -0.486183   -2.081427
     72          1           0       -4.278092   -2.624777    2.922973
     73          1           0       -6.058388   -1.576718   -2.038724
     74          1           0       -4.766342   -5.848799   -0.469239
     75          1           0       -3.917983   -5.741952   -1.855586
     76          1           0       -2.945398   -5.789044   -0.227464
     77          1           0       -1.505324    8.145661    1.582771
     78          1           0       -7.393201   -3.482140   -2.677279
     79          1           0       -5.916337   -4.825300   -2.662835
 ---------------------------------------------------------------------

 SCF Done:  E(RB3LYP) =  -1947.76695292     A.U. after   17 cycles

 Excitation energies and oscillator strengths:

 Excited State   1:      Singlet-A      1.9645 eV  631.12 nm  f=0.3515  <S**2>=0.000
     154 ->156         0.10871
     155 ->156         0.69272
     155 <-156        -0.10016
 This state for optimization and/or second-order correction.
 Total Energy, E(TD-HF/TD-DFT) =  -1947.69475793
 Copying the excited state density for this state as the 1-particle RhoCI density.

 The electronic state is 1-A.
 Alpha  occ. eigenvalues --  -19.17527 -19.17016 -19.14932 -19.12284 -19.10523
 Alpha  occ. eigenvalues --  -19.09615 -14.37045 -14.36750 -14.36426 -14.29736
 Alpha  occ. eigenvalues --  -10.33478 -10.31126 -10.28396 -10.26991 -10.26898
 Alpha  occ. eigenvalues --  -10.26110 -10.24990 -10.23929 -10.23400 -10.23333
 Alpha  occ. eigenvalues --  -10.22628 -10.22492 -10.22416 -10.22143 -10.21901
 Alpha  occ. eigenvalues --  -10.21729 -10.21693 -10.21362 -10.21291 -10.21258
 Alpha  occ. eigenvalues --  -10.21194 -10.21153 -10.20744 -10.20563 -10.20550
 Alpha  occ. eigenvalues --  -10.20231 -10.20122 -10.19848 -10.19722 -10.19048
 Alpha  occ. eigenvalues --  -10.19028 -10.18199 -10.17387  -1.08739  -1.06862
 Alpha  occ. eigenvalues --   -1.02813  -0.99778  -0.99726  -0.98858  -0.98724
 Alpha  occ. eigenvalues --   -0.97865  -0.94007  -0.90683  -0.84594  -0.82081
 Alpha  occ. eigenvalues --   -0.81452  -0.81135  -0.80995  -0.80256  -0.78337
 Alpha  occ. eigenvalues --   -0.76644  -0.75947  -0.74374  -0.74021  -0.73378
 Alpha  occ. eigenvalues --   -0.71032  -0.70630  -0.70175  -0.69046  -0.68504
 Alpha  occ. eigenvalues --   -0.65621  -0.65177  -0.63374  -0.60998  -0.60462
 Alpha  occ. eigenvalues --   -0.60049  -0.58540  -0.57765  -0.57165  -0.56888
 Alpha  occ. eigenvalues --   -0.56005  -0.55376  -0.54095  -0.53314  -0.52454
 Alpha  occ. eigenvalues --   -0.52043  -0.51739  -0.50603  -0.49843  -0.49723
 Alpha  occ. eigenvalues --   -0.49109  -0.48309  -0.48040  -0.47870  -0.47158
 Alpha  occ. eigenvalues --   -0.46852  -0.46636  -0.46259  -0.46159  -0.45469
 Alpha  occ. eigenvalues --   -0.45008  -0.44838  -0.44343  -0.44170  -0.43773
 Alpha  occ. eigenvalues --   -0.43236  -0.42869  -0.42753  -0.42558  -0.42292
 Alpha  occ. eigenvalues --   -0.42130  -0.41970  -0.41716  -0.41151  -0.40949
 Alpha  occ. eigenvalues --   -0.40578  -0.40344  -0.39845  -0.39627  -0.39243
 Alpha  occ. eigenvalues --   -0.39039  -0.38934  -0.38778  -0.38436  -0.38132
 Alpha  occ. eigenvalues --   -0.37921  -0.37750  -0.37423  -0.37307  -0.36503
 Alpha  occ. eigenvalues --   -0.36359  -0.36045  -0.35383  -0.34535  -0.34299
 Alpha  occ. eigenvalues --   -0.33859  -0.32992  -0.32654  -0.31587  -0.31524
 Alpha  occ. eigenvalues --   -0.31036  -0.30889  -0.29539  -0.28651  -0.28163
 Alpha  occ. eigenvalues --   -0.27131  -0.26868  -0.26625  -0.25400  -0.24912
 Alpha  occ. eigenvalues --   -0.24445  -0.24392  -0.23350  -0.22062  -0.19148
 Alpha virt. eigenvalues --   -0.11207  -0.07262  -0.05249  -0.01444  -0.01100
 Alpha virt. eigenvalues --   -0.00035   0.01353   0.01631   0.02176   0.02443
 Alpha virt. eigenvalues --    0.03591   0.03893   0.04095   0.04290   0.04404

 Mulliken charges:
               1
     1  O   -0.224648
     2  O   -0.257441
     3  O   -0.221515
     4  O   -0.296536
     5  O   -0.171216
     6  O   -0.248874
     7  N   -0.106934
     8  N   -0.157306
     9  N    0.033837
    10  N   -0.315819
    11  C    0.063284
    12  C    0.055448
    13  C   -0.042331
    14  C   -0.133724
    15  C   -0.080562
    16  C   -0.001776
    17  C   -0.116865
    18  C    0.064912
    19  C   -0.063626
    20  C   -0.144348
    21  C    0.118494
    22  C    0.120137
    23  C   -0.023826
    24  C    0.090022
    25  C    0.008036
    26  C   -0.200529
    27  C   -0.066301
    28  C    0.063277
    29  C    0.079655
    30  C   -0.026090
    31  C    0.046165
    32  C    0.254761
    33  C   -0.095158
    34  C    0.174951
    35  C    0.088142
    36  C   -0.074550
    37  C    0.151790
    38  C    0.019071
    39  C   -0.181314
    40  C    0.170948
    41  C   -0.080187
    42  C    0.117872
    43  C   -0.012556
    44  H    0.046025
    45  H    0.035132
    46  H    0.007136
    47  H    0.083609
    48  H    0.169470
    49  H    0.025270
    50  H    0.031735
    51  H    0.051093
    52  H    0.011541
    53  H    0.012605
    54  H    0.045372
    55  H    0.054378
    56  H    0.064459
    57  H    0.022781
    58  H    0.098404
    59  H    0.044512
    60  H    0.056025
    61  H   -0.011580
    62  H    0.033502
    63  H    0.055597
    64  H    0.061280
    65  H    0.003622
    66  H    0.013320
    67  H    0.042400
    68  H   -0.073940
    69  H   -0.017694
    70  H    0.034768
    71  H    0.043273
    72  H    0.207896
    73  H    0.026927
    74  H    0.005865
    75  H    0.022096
    76  H    0.058239
    77  H    0.201624
    78  H   -0.000049
    79  H    0.056533
 Sum of Mulliken charges =  -0.00000

 Dipole moment (field-independent basis, Debye):
    X=             -1.1778    Y=              2.3892    Z=              2.5584  Tot=              3.6934
 Quadrupole moment (field-independent basis, Debye-Ang):
   XX=           -221.4401   YY=           -245.8238   ZZ=           -266.5892
   XY=             -3.5406   XZ=             34.6837   YZ=              7.8315

 Normal termination of Gaussian 16 at Sat Sep 28 18:19:09 2019.
