 Gaussian 16, Revision A.03,
 Gaussian 16:  ES64L-G16RevA.03 25-Dec-2016

 --------------------------
 # td=(NStates=1) B3LYP/SVP
 --------------------------

 --
 TD
 --
 Symbolic Z-matrix:
 Charge =  0 Multiplicity = 1

                         Standard orientation:
 ---------------------------------------------------------------------
 Center     Atomic      Atomic             Coordinates (Angstroms)
 Number     Number       Type             X           Y           Z
 ---------------------------------------------------------------------
      1          8           0        5.367498   -0.075073   -3.297251
      2          8           0       -3.127988   -2.956236    3.092969
      3          8           0       -3.310412   -0.661110    2.828465
      4          8           0       -1.549333    7.399741    1.324180
      5          8           0       -0.252615    6.907847   -0.544085
      6          8           0       -1.766176   -3.921580    0.018347
      7          7           0        2.394500    0.889173    0.677884
      8          7           0        4.324620   -0.520071   -1.290284
      9          7           0       -1.903659    0.704214   -0.370627
     10          7           0       -2.628512   -1.804194   -0.512677
     11          6           0        4.776232   -1.178660   -0.004437
     12          6           0        4.373244   -0.357594    1.276374
     13          6           0        2.931615   -0.153884    1.393520
     14          6           0        1.863501   -0.749220    2.192444
     15          6           0        0.669437   -0.096018    1.873352
     16          6           0        0.936587    1.017377    0.895246
     17          6           0        6.263816   -1.510240   -0.222122
     18          6           0       -0.575359   -0.345825    2.585691
     19          6           0        6.656392   -0.870082   -1.392215
     20          6           0        0.122601    1.957432    0.275806
     21          6           0       -1.145814    1.791935   -0.189838
     22          6           0        5.429598   -0.406420   -2.111661
     23          6           0       -1.912570    2.858159   -0.773034
     24          6           0        2.088453   -1.933785    3.121288
     25          6           0        7.051017   -2.129852    0.900021
     26          6           0       -3.214973    2.392298   -1.227494
     27          6           0       -1.145002   -1.718509    2.559080
     28          6           0       -3.056742    0.952974   -0.966014
     29          6           0       -1.379815    4.313306   -0.913383
     30          6           0        8.024404   -0.795949   -2.036089
     31          6           0       -1.552624    5.089842    0.420535
     32          6           0       -4.384703    2.973665   -1.796674
     33          6           0       -3.965591   -0.000538   -1.331193
     34          6           0       -2.670420   -1.673155    2.873273
     35          6           0       -3.736031   -1.405900   -1.021749
     36          6           0        9.181663   -0.840763   -1.386824
     37          6           0       -1.014760    6.543447    0.360891
     38          6           0       -4.571258   -2.500919   -1.457772
     39          6           0       -3.941612   -3.705083   -1.173993
     40          6           0       -2.654529   -3.236312   -0.505182
     41          6           0       -6.000066   -2.330574   -2.046318
     42          6           0       -4.168861   -5.051753   -1.371398
     43          6           0       -6.831776   -3.315069   -2.407765
     44          1           0        4.121488   -2.361754   -0.053262
     45          1           0        4.943046    0.608082    1.396501
     46          1           0        4.650693   -0.961838    2.185330
     47          1           0        3.021211    1.392802    0.043256
     48          1           0        3.428551   -0.526634   -1.493326
     49          1           0       -0.605276    0.180955    3.666631
     50          1           0       -1.322012    0.338237    2.245418
     51          1           0        0.431329    2.933817   -0.053003
     52          1           0        3.164115   -1.959979    3.307389
     53          1           0        1.195951   -1.755550    3.868983
     54          1           0        1.895879   -2.882911    2.502839
     55          1           0        6.359569   -2.679589    1.628207
     56          1           0        7.670800   -1.343841    1.501933
     57          1           0        7.889570   -2.751203    0.324538
     58          1           0       -1.086146   -2.244848    1.570881
     59          1           0       -0.621782   -2.506743    3.059561
     60          1           0       -1.716534   -0.143314   -0.241418
     61          1           0       -1.957232    4.964962   -1.780399
     62          1           0       -0.272198    3.981132   -1.158679
     63          1           0        8.025926   -0.284670   -3.044734
     64          1           0       -1.036550    4.821091    1.408067
     65          1           0       -2.633943    5.211277    0.675082
     66          1           0       -4.137565    3.970932   -1.999586
     67          1           0       -5.220687    2.860023   -1.056683
     68          1           0       -4.438697    2.276081   -2.739862
     69          1           0       -5.009313    0.401176   -1.560979
     70          1           0        9.268425   -1.168621   -0.261249
     71          1           0       10.062604   -0.585503   -1.856603
     72          1           0       -4.178269   -2.911619    3.165649
     73          1           0       -6.359523   -1.379903   -2.047051
     74          1           0       -5.253904   -5.469751   -1.121781
     75          1           0       -4.338223   -5.382757   -2.496199
     76          1           0       -3.332640   -5.621168   -0.860539
     77          1           0       -1.123805    8.289827    1.304278
     78          1           0       -7.762786   -2.878642   -2.991896
     79          1           0       -6.594814   -4.368120   -2.302558
 ---------------------------------------------------------------------

 SCF Done:  E(RB3LYP) =  -1947.84369106     A.U. after   17 cycles

 Excitation energies and oscillator strengths:

 Excited State   1:      Singlet-A      1.9782 eV  626.74 nm  f=0.4632  <S**2>=0.000
     155 ->156         0.70318
     155 <-156        -0.12466
 This state for optimization and/or second-order correction.
 Total Energy, E(TD-HF/TD-DFT) =  -1947.77099195
 Copying the excited state density for this state as the 1-particle RhoCI density.

 The electronic state is 1-A.
 Alpha  occ. eigenvalues --  -19.18784 -19.17570 -19.13051 -19.12174 -19.11239
 Alpha  occ. eigenvalues --  -19.09689 -14.38952 -14.35332 -14.34798 -14.28280
 Alpha  occ. eigenvalues --  -10.32873 -10.31018 -10.28974 -10.27799 -10.26926
 Alpha  occ. eigenvalues --  -10.24267 -10.23671 -10.23465 -10.23452 -10.23364
 Alpha  occ. eigenvalues --  -10.23343 -10.23293 -10.22921 -10.22609 -10.22426
 Alpha  occ. eigenvalues --  -10.21773 -10.21093 -10.21086 -10.21032 -10.20891
 Alpha  occ. eigenvalues --  -10.20455 -10.20372 -10.20267 -10.20115 -10.20112
 Alpha  occ. eigenvalues --  -10.20042 -10.19836 -10.19677 -10.19589 -10.19445
 Alpha  occ. eigenvalues --  -10.18762 -10.18534 -10.18265  -1.07670  -1.07036
 Alpha  occ. eigenvalues --   -1.01774  -1.01039  -1.00597  -0.99714  -0.99566
 Alpha  occ. eigenvalues --   -0.96550  -0.93352  -0.92749  -0.83110  -0.82545
 Alpha  occ. eigenvalues --   -0.82276  -0.81456  -0.80241  -0.79713  -0.77771
 Alpha  occ. eigenvalues --   -0.77019  -0.76494  -0.76042  -0.75006  -0.73153
 Alpha  occ. eigenvalues --   -0.72261  -0.70932  -0.69789  -0.68672  -0.67874
 Alpha  occ. eigenvalues --   -0.66558  -0.65804  -0.63555  -0.62231  -0.60664
 Alpha  occ. eigenvalues --   -0.59764  -0.58429  -0.57976  -0.57634  -0.57094
 Alpha  occ. eigenvalues --   -0.56589  -0.55517  -0.54604  -0.53873  -0.53149
 Alpha  occ. eigenvalues --   -0.52302  -0.52035  -0.50537  -0.49681  -0.49488
 Alpha  occ. eigenvalues --   -0.49010  -0.48585  -0.47801  -0.47482  -0.47150
 Alpha  occ. eigenvalues --   -0.47047  -0.46489  -0.46420  -0.46134  -0.45796
 Alpha  occ. eigenvalues --   -0.45353  -0.44832  -0.44181  -0.44138  -0.43434
 Alpha  occ. eigenvalues --   -0.43381  -0.42927  -0.42775  -0.42648  -0.42448
 Alpha  occ. eigenvalues --   -0.42051  -0.41857  -0.41696  -0.41408  -0.41200
 Alpha  occ. eigenvalues --   -0.40788  -0.40615  -0.40532  -0.40214  -0.39892
 Alpha  occ. eigenvalues --   -0.39691  -0.39219  -0.39064  -0.38604  -0.38480
 Alpha  occ. eigenvalues --   -0.38125  -0.37846  -0.37519  -0.37251  -0.36986
 Alpha  occ. eigenvalues --   -0.36237  -0.36019  -0.35337  -0.34626  -0.34133
 Alpha  occ. eigenvalues --   -0.33984  -0.33142  -0.32502  -0.32150  -0.31619
 Alpha  occ. eigenvalues --   -0.31255  -0.30590  -0.28733  -0.27900  -0.27400
 Alpha  occ. eigenvalues --   -0.27222  -0.26586  -0.25452  -0.24887  -0.24636
 Alpha  occ. eigenvalues --   -0.24469  -0.24205  -0.23752  -0.22007  -0.18031
 Alpha virt. eigenvalues --   -0.10473  -0.06714  -0.06396  -0.00658  -0.00240
 Alpha virt. eigenvalues --    0.00222   0.00536   0.01688   0.01981   0.03030
 Alpha virt. eigenvalues --    0.03484   0.03674   0.04086   0.04284   0.04947

 Mulliken charges:
               1
     1  O   -0.236384
     2  O   -0.244229
     3  O   -0.210695
     4  O   -0.231232
     5  O   -0.244342
     6  O   -0.219002
     7  N   -0.126544
     8  N   -0.150386
     9  N    0.164227
    10  N   -0.260322
    11  C   -0.026076
    12  C    0.181271
    13  C   -0.086422
    14  C   -0.148158
    15  C   -0.077676
    16  C    0.152268
    17  C   -0.118181
    18  C    0.078773
    19  C   -0.079879
    20  C   -0.095489
    21  C    0.080645
    22  C    0.163915
    23  C   -0.137580
    24  C    0.082232
    25  C   -0.004449
    26  C   -0.130445
    27  C   -0.000270
    28  C    0.025797
    29  C    0.023369
    30  C    0.011594
    31  C   -0.001431
    32  C    0.107147
    33  C   -0.146393
    34  C    0.159062
    35  C    0.072157
    36  C   -0.033190
    37  C    0.142333
    38  C    0.008271
    39  C   -0.133620
    40  C    0.158262
    41  C    0.041063
    42  C   -0.021227
    43  C   -0.029580
    44  H    0.053195
    45  H    0.027080
    46  H   -0.003644
    47  H    0.119409
    48  H    0.084752
    49  H    0.020255
    50  H   -0.019523
    51  H   -0.035300
    52  H    0.001120
    53  H    0.067765
    54  H    0.048813
    55  H    0.045977
    56  H    0.063482
    57  H    0.069340
    58  H    0.061318
    59  H   -0.006216
    60  H    0.009062
    61  H    0.059035
    62  H    0.055095
    63  H    0.034084
    64  H    0.059473
    65  H    0.040972
    66  H   -0.006987
    67  H    0.054274
    68  H    0.061792
    69  H    0.005023
    70  H    0.029615
    71  H    0.012499
    72  H    0.210644
    73  H   -0.051801
    74  H    0.033654
    75  H    0.040019
    76  H    0.053738
    77  H    0.197263
    78  H    0.042642
    79  H    0.002901
 Sum of Mulliken charges =  -0.00000

 Dipole moment (field-independent basis, Debye):
    X=              0.7758    Y=              1.8925    Z=              3.9039  Tot=              4.4072
 Quadrupole moment (field-independent basis, Debye-Ang):
   XX=           -213.3031   YY=           -244.8259   ZZ=           -267.3198
   XY=             -8.6101   XZ=             31.0794   YZ=              6.1388

 Normal termination of Gaussian 16 at Sun Sep 15 01:46:27 2019.
