 Gaussian 16, Revision A.03,
 Gaussian 16:  ES64L-G16RevA.03 25-Dec-2016

 --------------------------
 # td=(NStates=1) B3LYP/SVP
 --------------------------

 --
 TD
 --
 Symbolic Z-matrix:
 Charge =  0 Multiplicity = 1

                         Standard orientation:
 ---------------------------------------------------------------------
 Center     Atomic      Atomic             Coordinates (Angstroms)
 Number     Number       Type             X           Y           Z
 ---------------------------------------------------------------------
      1          8           0       -3.428928   -1.177372   -3.020092
      2          8           0        3.169467    2.881513    3.225637
      3          8           0        3.976803    1.085691    4.371592
      4          8           0        7.690986   -1.331311   -1.115688
      5          8           0        6.543021   -3.122283   -1.972479
      6          8           0       -2.786199    1.441190    1.426840
      7          7           0       -0.276342   -2.429091    0.809427
      8          7           0       -2.720161   -1.165262   -0.744169
      9          7           0        1.146967    0.072661   -0.706386
     10          7           0       -1.022118    1.461304   -0.029354
     11          6           0       -3.397750   -1.398905    0.594786
     12          6           0       -2.588787   -2.365339    1.507201
     13          6           0       -1.105831   -2.057908    1.698002
     14          6           0       -0.523226   -1.264674    2.714646
     15          6           0        0.874298   -1.268667    2.421604
     16          6           0        1.014656   -1.955281    1.212410
     17          6           0       -4.731640   -1.872826    0.253146
     18          6           0        1.969079   -0.518381    3.174425
     19          6           0       -4.879362   -1.900942   -1.101275
     20          6           0        2.026395   -1.928434    0.205604
     21          6           0        2.033687   -0.938037   -0.725826
     22          6           0       -3.624536   -1.410684   -1.796963
     23          6           0        2.960464   -0.598013   -1.769723
     24          6           0       -1.273414   -0.477601    3.819025
     25          6           0       -5.746513   -2.245390    1.258107
     26          6           0        2.445704    0.513506   -2.413756
     27          6           0        2.115586    0.879822    2.689866
     28          6           0        1.275111    1.016442   -1.731923
     29          6           0        4.164890   -1.402478   -2.128368
     30          6           0       -5.898381   -2.259442   -1.893641
     31          6           0        5.389814   -1.050088   -1.386254
     32          6           0        3.095309    1.280576   -3.602092
     33          6           0        0.473186    2.112962   -1.913607
     34          6           0        3.225215    1.590052    3.593476
     35          6           0       -0.657759    2.382714   -1.009920
     36          6           0       -7.025845   -2.992155   -1.675214
     37          6           0        6.502755   -1.907939   -1.569318
     38          6           0       -1.345696    3.505552   -1.017648
     39          6           0       -2.258395    3.302519   -0.065802
     40          6           0       -2.071340    2.018285    0.603339
     41          6           0       -1.260394    4.678979   -2.008418
     42          6           0       -3.218006    4.335571    0.588766
     43          6           0       -1.993706    5.671666   -2.113349
     44          1           0       -3.531762   -0.397851    1.192940
     45          1           0       -2.796361   -3.517065    1.192868
     46          1           0       -3.046546   -2.269327    2.594338
     47          1           0       -0.515723   -2.643274   -0.063070
     48          1           0       -2.018407   -0.433443   -0.949139
     49          1           0        1.696702   -0.652296    4.363136
     50          1           0        3.054176   -1.096840    3.126437
     51          1           0        2.746288   -2.834144    0.024191
     52          1           0       -1.849901   -1.210747    4.312276
     53          1           0       -0.637304    0.013578    4.590426
     54          1           0       -1.856337    0.276437    3.476602
     55          1           0       -5.508826   -1.656097    2.044133
     56          1           0       -5.519006   -3.221114    1.497275
     57          1           0       -6.790617   -1.993357    0.953005
     58          1           0        2.219229    1.051797    1.506470
     59          1           0        1.025260    1.450378    3.124303
     60          1           0        0.243123   -0.100617   -0.089984
     61          1           0        4.331692   -1.411546   -3.118276
     62          1           0        4.022527   -2.522008   -1.810151
     63          1           0       -5.771147   -1.844680   -2.864088
     64          1           0        5.266740   -1.125390   -0.258734
     65          1           0        5.743173    0.030134   -1.805373
     66          1           0        4.128007    0.967621   -4.045155
     67          1           0        3.178318    2.410904   -3.374806
     68          1           0        2.500447    1.506855   -4.576259
     69          1           0        0.629322    2.851430   -2.585511
     70          1           0       -7.321350   -3.377102   -0.596713
     71          1           0       -7.678524   -3.524861   -2.458394
     72          1           0        4.011844    3.411095    3.620580
     73          1           0       -0.511363    4.494324   -2.654374
     74          1           0       -3.890859    4.875604   -0.229723
     75          1           0       -3.863319    3.914328    1.294979
     76          1           0       -2.579219    5.272230    0.950560
     77          1           0        8.348469   -1.860031   -1.247234
     78          1           0       -1.687242    6.416257   -2.853541
     79          1           0       -2.784559    6.099346   -1.384967
 ---------------------------------------------------------------------

 SCF Done:  E(RB3LYP) =  -1947.77720481     A.U. after   17 cycles

 Excitation energies and oscillator strengths:

 Excited State   1:      Singlet-A      0.8959 eV 1383.96 nm  f=0.0010  <S**2>=0.000
     155 ->156         0.70218
 This state for optimization and/or second-order correction.
 Total Energy, E(TD-HF/TD-DFT) =  -1947.74428235
 Copying the excited state density for this state as the 1-particle RhoCI density.

 The electronic state is 1-A.
 Alpha  occ. eigenvalues --  -19.18804 -19.17823 -19.13804 -19.13344 -19.12428
 Alpha  occ. eigenvalues --  -19.08847 -14.37630 -14.36560 -14.33470 -14.29539
 Alpha  occ. eigenvalues --  -10.33782 -10.32093 -10.27375 -10.27287 -10.27012
 Alpha  occ. eigenvalues --  -10.24966 -10.24735 -10.23630 -10.23538 -10.23434
 Alpha  occ. eigenvalues --  -10.22952 -10.22920 -10.22758 -10.22452 -10.21654
 Alpha  occ. eigenvalues --  -10.21618 -10.21603 -10.21237 -10.21171 -10.20995
 Alpha  occ. eigenvalues --  -10.20666 -10.20656 -10.20498 -10.20135 -10.20052
 Alpha  occ. eigenvalues --  -10.19876 -10.19013 -10.18377 -10.18142 -10.17357
 Alpha  occ. eigenvalues --  -10.17348 -10.17186 -10.16847  -1.10094  -1.09044
 Alpha  occ. eigenvalues --   -1.03084  -1.01087  -1.00433  -0.99342  -0.99307
 Alpha  occ. eigenvalues --   -0.98582  -0.95196  -0.90639  -0.85006  -0.83467
 Alpha  occ. eigenvalues --   -0.82639  -0.81578  -0.80618  -0.80236  -0.78635
 Alpha  occ. eigenvalues --   -0.77512  -0.77350  -0.75940  -0.75023  -0.73230
 Alpha  occ. eigenvalues --   -0.72296  -0.70618  -0.70213  -0.69909  -0.68467
 Alpha  occ. eigenvalues --   -0.66598  -0.65543  -0.63713  -0.61858  -0.61044
 Alpha  occ. eigenvalues --   -0.60694  -0.59282  -0.58828  -0.57929  -0.56899
 Alpha  occ. eigenvalues --   -0.56638  -0.56453  -0.55961  -0.53855  -0.53269
 Alpha  occ. eigenvalues --   -0.52730  -0.51803  -0.51303  -0.50583  -0.50075
 Alpha  occ. eigenvalues --   -0.48847  -0.48510  -0.48299  -0.48250  -0.47960
 Alpha  occ. eigenvalues --   -0.47486  -0.46965  -0.46776  -0.46407  -0.46066
 Alpha  occ. eigenvalues --   -0.45953  -0.45618  -0.45267  -0.44812  -0.44470
 Alpha  occ. eigenvalues --   -0.43630  -0.43502  -0.42898  -0.42712  -0.42124
 Alpha  occ. eigenvalues --   -0.41843  -0.41484  -0.41329  -0.41283  -0.41065
 Alpha  occ. eigenvalues --   -0.40724  -0.40382  -0.40216  -0.39897  -0.39398
 Alpha  occ. eigenvalues --   -0.39085  -0.38969  -0.38763  -0.38576  -0.38502
 Alpha  occ. eigenvalues --   -0.37883  -0.37612  -0.37450  -0.37116  -0.36805
 Alpha  occ. eigenvalues --   -0.36313  -0.35812  -0.35632  -0.35193  -0.34837
 Alpha  occ. eigenvalues --   -0.33900  -0.33026  -0.32808  -0.32590  -0.32516
 Alpha  occ. eigenvalues --   -0.30794  -0.30090  -0.29671  -0.28856  -0.28829
 Alpha  occ. eigenvalues --   -0.28458  -0.27312  -0.25758  -0.24973  -0.24399
 Alpha  occ. eigenvalues --   -0.24083  -0.23774  -0.22706  -0.21372  -0.19533
 Alpha virt. eigenvalues --   -0.13718  -0.07990  -0.04574  -0.03144  -0.00802
 Alpha virt. eigenvalues --    0.00265   0.01200   0.01716   0.02168   0.02544
 Alpha virt. eigenvalues --    0.03768   0.04073   0.04363   0.04949   0.05421

 Mulliken charges:
               1
     1  O   -0.275447
     2  O   -0.229384
     3  O   -0.196223
     4  O   -0.140398
     5  O   -0.277385
     6  O   -0.219793
     7  N    0.049007
     8  N   -0.265782
     9  N   -0.134087
    10  N   -0.299071
    11  C    0.099759
    12  C    0.066710
    13  C   -0.119833
    14  C   -0.146611
    15  C   -0.033287
    16  C   -0.042579
    17  C   -0.220994
    18  C    0.002519
    19  C   -0.018824
    20  C   -0.117623
    21  C    0.070449
    22  C    0.181501
    23  C   -0.054465
    24  C    0.162689
    25  C    0.230082
    26  C   -0.063811
    27  C   -0.130234
    28  C    0.212516
    29  C    0.118641
    30  C   -0.013287
    31  C   -0.002365
    32  C   -0.013525
    33  C   -0.064606
    34  C    0.164651
    35  C    0.077238
    36  C   -0.111285
    37  C    0.133262
    38  C    0.026382
    39  C   -0.196929
    40  C    0.163911
    41  C    0.135612
    42  C    0.037695
    43  C   -0.041786
    44  H    0.091869
    45  H    0.016196
    46  H    0.007658
    47  H    0.069591
    48  H    0.144391
    49  H    0.045241
    50  H    0.028597
    51  H    0.031445
    52  H   -0.004338
    53  H   -0.009052
    54  H    0.002674
    55  H   -0.029247
    56  H    0.010115
    57  H    0.043863
    58  H    0.089496
    59  H    0.068335
    60  H    0.225918
    61  H   -0.020034
    62  H    0.037206
    63  H   -0.010775
    64  H    0.073654
    65  H    0.066038
    66  H    0.043187
    67  H    0.027911
    68  H    0.037372
    69  H   -0.082220
    70  H    0.017169
    71  H    0.039945
    72  H    0.214229
    73  H   -0.067791
    74  H    0.040163
    75  H    0.022526
    76  H    0.054456
    77  H    0.116310
    78  H    0.018754
    79  H    0.036138
 Sum of Mulliken charges =  -0.00000

 Dipole moment (field-independent basis, Debye):
    X=              3.3367    Y=              5.3089    Z=             -0.3232  Tot=              6.2788
 Quadrupole moment (field-independent basis, Debye-Ang):
   XX=           -247.0070   YY=           -235.1874   ZZ=           -266.7881
   XY=             11.2704   XZ=            -26.7955   YZ=            -12.8335

 Normal termination of Gaussian 16 at Wed Jul 24 13:03:43 2019.
