 Gaussian 16, Revision A.03,
 Gaussian 16:  ES64L-G16RevA.03 25-Dec-2016

 --------------------------
 # td=(NStates=1) B3LYP/SVP
 --------------------------

 --
 TD
 --
 Symbolic Z-matrix:
 Charge =  0 Multiplicity = 1

                         Standard orientation:
 ---------------------------------------------------------------------
 Center     Atomic      Atomic             Coordinates (Angstroms)
 Number     Number       Type             X           Y           Z
 ---------------------------------------------------------------------
      1          8           0       -3.213667   -1.398015   -2.890887
      2          8           0        2.771730    3.299817    3.241093
      3          8           0        3.354539    1.557243    4.446052
      4          8           0        7.836573   -1.470586   -0.549854
      5          8           0        6.830883   -3.068336   -1.809912
      6          8           0       -2.541004    1.487538    1.318014
      7          7           0       -0.324563   -2.344385    0.975321
      8          7           0       -2.635947   -1.258241   -0.597748
      9          7           0        1.166214    0.080205   -0.817052
     10          7           0       -0.922392    1.455971   -0.259397
     11          6           0       -3.361719   -1.243351    0.653107
     12          6           0       -2.654044   -2.325466    1.675824
     13          6           0       -1.305709   -2.015271    1.900462
     14          6           0       -0.574675   -1.157769    2.819758
     15          6           0        0.777148   -1.144005    2.486564
     16          6           0        0.958292   -1.903359    1.285325
     17          6           0       -4.766009   -1.848085    0.235121
     18          6           0        1.826321   -0.312878    3.143470
     19          6           0       -4.855677   -2.046098   -1.127711
     20          6           0        2.049788   -1.941643    0.301676
     21          6           0        2.114002   -1.014896   -0.683217
     22          6           0       -3.544157   -1.463275   -1.720846
     23          6           0        3.053422   -0.723325   -1.795002
     24          6           0       -1.250189   -0.364309    3.937303
     25          6           0       -5.759111   -2.240074    1.326650
     26          6           0        2.526232    0.297891   -2.497342
     27          6           0        1.773014    1.209934    2.789353
     28          6           0        1.398414    0.876098   -1.893150
     29          6           0        4.312751   -1.581954   -2.033120
     30          6           0       -5.911972   -2.494141   -2.019752
     31          6           0        5.500752   -1.080462   -1.096364
     32          6           0        3.174624    0.956256   -3.653088
     33          6           0        0.519769    2.005544   -2.180252
     34          6           0        2.654500    2.098662    3.605013
     35          6           0       -0.601015    2.224053   -1.376955
     36          6           0       -6.843203   -3.352691   -1.515832
     37          6           0        6.859814   -2.019600   -1.238569
     38          6           0       -1.385225    3.464690   -1.438844
     39          6           0       -2.279653    3.336433   -0.385054
     40          6           0       -1.986518    2.020810    0.349418
     41          6           0       -1.240323    4.520389   -2.319514
     42          6           0       -3.298938    4.299912    0.172106
     43          6           0       -1.901611    5.755241   -2.296576
     44          1           0       -3.356355   -0.399057    1.064520
     45          1           0       -2.677932   -3.222489    1.217663
     46          1           0       -3.309179   -2.234126    2.441691
     47          1           0       -0.452717   -2.913060    0.240187
     48          1           0       -1.927710   -0.519199   -0.804290
     49          1           0        1.497374   -0.439157    4.299693
     50          1           0        2.815070   -0.807762    2.972474
     51          1           0        2.905749   -2.684314    0.437996
     52          1           0       -2.073808   -0.934182    4.378939
     53          1           0       -0.451795   -0.123060    4.677755
     54          1           0       -1.729414    0.540257    3.465375
     55          1           0       -5.732124   -1.643251    2.302085
     56          1           0       -5.659124   -3.281641    1.624915
     57          1           0       -6.710791   -2.124685    0.911581
     58          1           0        2.059224    1.626268    1.751042
     59          1           0        0.711255    1.674483    2.966115
     60          1           0        0.488607    0.413666   -0.224280
     61          1           0        4.650836   -1.210769   -3.110614
     62          1           0        4.117172   -2.765269   -1.982021
     63          1           0       -5.770672   -2.163547   -2.932856
     64          1           0        5.236129   -1.365032   -0.122876
     65          1           0        5.843515   -0.064638   -1.270393
     66          1           0        4.126333    0.410711   -3.887904
     67          1           0        3.724982    1.965283   -3.433636
     68          1           0        2.637627    0.934947   -4.715849
     69          1           0        0.662721    2.761922   -3.037950
     70          1           0       -6.912917   -3.820064   -0.655424
     71          1           0       -7.712640   -3.325993   -2.113951
     72          1           0        3.267437    3.803332    4.008035
     73          1           0       -0.585771    4.287179   -3.167734
     74          1           0       -4.106534    4.661012   -0.669495
     75          1           0       -3.912229    3.870147    0.965165
     76          1           0       -2.907360    5.168974    0.462703
     77          1           0        8.575357   -2.067772   -0.721649
     78          1           0       -1.896899    6.532316   -3.307176
     79          1           0       -2.603599    5.902863   -1.633525
 ---------------------------------------------------------------------

 SCF Done:  E(RB3LYP) =  -1947.83385137     A.U. after   20 cycles

 Excitation energies and oscillator strengths:

 Excited State   1:      Singlet-A      0.9095 eV 1363.15 nm  f=0.0087  <S**2>=0.000
     155 ->156         0.70486
 This state for optimization and/or second-order correction.
 Total Energy, E(TD-HF/TD-DFT) =  -1947.80042624
 Copying the excited state density for this state as the 1-particle RhoCI density.

 The electronic state is 1-A.
 Alpha  occ. eigenvalues --  -19.21282 -19.19584 -19.14500 -19.10765 -19.09782
 Alpha  occ. eigenvalues --  -19.08981 -14.36700 -14.35798 -14.31792 -14.29528
 Alpha  occ. eigenvalues --  -10.33753 -10.30089 -10.27115 -10.26861 -10.26743
 Alpha  occ. eigenvalues --  -10.26069 -10.24603 -10.24079 -10.23839 -10.23302
 Alpha  occ. eigenvalues --  -10.22320 -10.22128 -10.22011 -10.21786 -10.21142
 Alpha  occ. eigenvalues --  -10.21124 -10.20930 -10.20908 -10.20817 -10.20480
 Alpha  occ. eigenvalues --  -10.20447 -10.20376 -10.19949 -10.19921 -10.19513
 Alpha  occ. eigenvalues --  -10.19168 -10.18607 -10.18556 -10.17324 -10.17308
 Alpha  occ. eigenvalues --  -10.17217 -10.16963 -10.16484  -1.13274  -1.11981
 Alpha  occ. eigenvalues --   -1.03815  -1.01435  -1.00256  -0.99429  -0.98928
 Alpha  occ. eigenvalues --   -0.96091  -0.92311  -0.89814  -0.83795  -0.82250
 Alpha  occ. eigenvalues --   -0.81549  -0.80084  -0.79560  -0.78447  -0.77807
 Alpha  occ. eigenvalues --   -0.76647  -0.75168  -0.74881  -0.74431  -0.72545
 Alpha  occ. eigenvalues --   -0.70391  -0.69984  -0.69494  -0.69326  -0.67103
 Alpha  occ. eigenvalues --   -0.67002  -0.65876  -0.63260  -0.62205  -0.61457
 Alpha  occ. eigenvalues --   -0.60901  -0.60157  -0.59319  -0.57441  -0.56180
 Alpha  occ. eigenvalues --   -0.55445  -0.54701  -0.54518  -0.53258  -0.52516
 Alpha  occ. eigenvalues --   -0.52105  -0.51550  -0.50930  -0.50596  -0.49856
 Alpha  occ. eigenvalues --   -0.49366  -0.49084  -0.48695  -0.48161  -0.47753
 Alpha  occ. eigenvalues --   -0.47278  -0.46871  -0.46348  -0.45888  -0.45761
 Alpha  occ. eigenvalues --   -0.45393  -0.44915  -0.44515  -0.44213  -0.43936
 Alpha  occ. eigenvalues --   -0.43522  -0.43260  -0.42698  -0.42376  -0.42328
 Alpha  occ. eigenvalues --   -0.42003  -0.41757  -0.41396  -0.41237  -0.40992
 Alpha  occ. eigenvalues --   -0.40512  -0.40217  -0.39886  -0.39464  -0.39256
 Alpha  occ. eigenvalues --   -0.38821  -0.38797  -0.38579  -0.38067  -0.37835
 Alpha  occ. eigenvalues --   -0.37785  -0.37455  -0.37113  -0.37044  -0.36440
 Alpha  occ. eigenvalues --   -0.35745  -0.35629  -0.35528  -0.35325  -0.34941
 Alpha  occ. eigenvalues --   -0.34710  -0.33819  -0.32865  -0.32502  -0.31605
 Alpha  occ. eigenvalues --   -0.30889  -0.29641  -0.29123  -0.28835  -0.28071
 Alpha  occ. eigenvalues --   -0.27280  -0.25555  -0.25082  -0.24595  -0.23591
 Alpha  occ. eigenvalues --   -0.23090  -0.22413  -0.22341  -0.22004  -0.18295
 Alpha virt. eigenvalues --   -0.12583  -0.07798  -0.04367  -0.02262   0.00147
 Alpha virt. eigenvalues --    0.01067   0.01781   0.02153   0.02380   0.02907
 Alpha virt. eigenvalues --    0.03523   0.04056   0.04786   0.05023   0.05591

 Mulliken charges:
               1
     1  O   -0.231591
     2  O   -0.136163
     3  O   -0.263830
     4  O   -0.129493
     5  O   -0.203251
     6  O   -0.231187
     7  N   -0.032762
     8  N   -0.264607
     9  N   -0.059071
    10  N   -0.311206
    11  C    0.180210
    12  C    0.330064
    13  C   -0.074443
    14  C   -0.151152
    15  C   -0.098068
    16  C   -0.012912
    17  C   -0.182944
    18  C    0.102191
    19  C   -0.065051
    20  C   -0.138636
    21  C    0.179293
    22  C    0.146854
    23  C   -0.036730
    24  C    0.093455
    25  C    0.082978
    26  C   -0.103171
    27  C   -0.038934
    28  C    0.111529
    29  C    0.010915
    30  C    0.059646
    31  C    0.007935
    32  C    0.013755
    33  C   -0.107054
    34  C    0.070776
    35  C    0.117671
    36  C    0.063173
    37  C    0.100985
    38  C    0.091679
    39  C   -0.215412
    40  C    0.168414
    41  C   -0.059899
    42  C    0.100475
    43  C    0.004662
    44  H   -0.061859
    45  H   -0.066196
    46  H   -0.052302
    47  H    0.064329
    48  H    0.143129
    49  H    0.038694
    50  H    0.006486
    51  H    0.034767
    52  H   -0.001255
    53  H   -0.000590
    54  H    0.050907
    55  H    0.029108
    56  H    0.032720
    57  H    0.010407
    58  H    0.035924
    59  H    0.052904
    60  H    0.121344
    61  H    0.034645
    62  H    0.075941
    63  H   -0.053893
    64  H    0.028206
    65  H    0.041368
    66  H   -0.013502
    67  H    0.046483
    68  H    0.061073
    69  H    0.017591
    70  H   -0.026444
    71  H    0.005123
    72  H    0.217444
    73  H   -0.015681
    74  H    0.036900
    75  H    0.025394
    76  H    0.006604
    77  H    0.173646
    78  H    0.059818
    79  H   -0.048327
 Sum of Mulliken charges =  -0.00000

 Dipole moment (field-independent basis, Debye):
    X=              4.0592    Y=              2.7831    Z=             -0.8939  Tot=              5.0021
 Quadrupole moment (field-independent basis, Debye-Ang):
   XX=           -219.4077   YY=           -236.1447   ZZ=           -266.7841
   XY=              3.5332   XZ=            -22.3883   YZ=             -9.6550

 Normal termination of Gaussian 16 at Tue Jul 30 00:49:18 2019.
