 Gaussian 16, Revision A.03,
 Gaussian 16:  ES64L-G16RevA.03 25-Dec-2016

 --------------------------
 # td=(NStates=1) B3LYP/SVP
 --------------------------

 --
 TD
 --
 Symbolic Z-matrix:
 Charge =  0 Multiplicity = 1

                         Standard orientation:
 ---------------------------------------------------------------------
 Center     Atomic      Atomic             Coordinates (Angstroms)
 Number     Number       Type             X           Y           Z
 ---------------------------------------------------------------------
      1          8           0       -3.286020   -1.071456   -2.942618
      2          8           0        3.113978    2.730682    3.411242
      3          8           0        4.107061    0.711841    4.074080
      4          8           0        7.728169   -1.663783   -0.956895
      5          8           0        6.604069   -2.752932   -2.378286
      6          8           0       -2.674301    1.473511    1.594290
      7          7           0       -0.238673   -2.460502    0.548185
      8          7           0       -2.683658   -1.171396   -0.701405
      9          7           0        1.043611    0.159106   -0.746910
     10          7           0       -1.032352    1.540594   -0.015136
     11          6           0       -3.311708   -1.412613    0.493833
     12          6           0       -2.552875   -2.566863    1.329352
     13          6           0       -1.199509   -2.250915    1.573273
     14          6           0       -0.586754   -1.531605    2.691510
     15          6           0        0.812755   -1.377946    2.283369
     16          6           0        0.949445   -1.983219    1.047647
     17          6           0       -4.777561   -1.949754    0.074564
     18          6           0        1.992906   -0.759902    3.003825
     19          6           0       -4.844471   -1.962899   -1.259494
     20          6           0        2.106443   -1.826993    0.092307
     21          6           0        2.085602   -0.741693   -0.722336
     22          6           0       -3.560061   -1.243682   -1.807098
     23          6           0        3.091996   -0.286370   -1.740022
     24          6           0       -1.161505   -1.013654    3.928550
     25          6           0       -5.734170   -2.438211    1.057337
     26          6           0        2.483616    0.836727   -2.404310
     27          6           0        1.855464    0.711307    2.784054
     28          6           0        1.293165    1.175500   -1.701697
     29          6           0        4.233123   -1.023627   -2.128687
     30          6           0       -5.850291   -2.304704   -2.104688
     31          6           0        5.441100   -0.923119   -1.185279
     32          6           0        3.131280    1.613799   -3.428002
     33          6           0        0.485035    2.260250   -1.699405
     34          6           0        3.152471    1.396465    3.484817
     35          6           0       -0.701898    2.433041   -0.994270
     36          6           0       -6.941277   -3.136463   -1.941194
     37          6           0        6.581348   -1.836434   -1.684870
     38          6           0       -1.531245    3.725197   -0.822986
     39          6           0       -2.368356    3.457576    0.205326
     40          6           0       -2.105604    2.109129    0.753407
     41          6           0       -1.337877    4.835892   -1.543999
     42          6           0       -3.437793    4.319485    0.748564
     43          6           0       -2.106142    5.933758   -1.685885
     44          1           0       -3.350918   -0.401087    1.062934
     45          1           0       -2.592333   -3.454371    0.800646
     46          1           0       -3.093547   -2.783391    2.139763
     47          1           0       -0.461355   -2.896530   -0.360441
     48          1           0       -2.204940   -0.496084   -0.584652
     49          1           0        1.884784   -1.201849    3.965118
     50          1           0        2.968828   -1.221332    2.661387
     51          1           0        2.796046   -2.645316   -0.031395
     52          1           0       -1.975467   -1.733811    4.272693
     53          1           0       -0.409110   -0.937677    4.854950
     54          1           0       -1.643272   -0.029661    3.706374
     55          1           0       -5.733117   -1.942942    1.977228
     56          1           0       -5.592573   -3.403335    1.267539
     57          1           0       -6.740028   -2.383852    0.769805
     58          1           0        1.983344    0.949976    1.647044
     59          1           0        1.063459    1.162443    3.274957
     60          1           0        0.222734    0.202267   -0.186101
     61          1           0        4.522880   -0.765402   -3.081818
     62          1           0        4.080981   -1.980924   -2.200305
     63          1           0       -5.582635   -2.008708   -3.089406
     64          1           0        5.238050   -1.017478    0.015156
     65          1           0        5.788342    0.149544   -1.056943
     66          1           0        3.875767    1.038286   -3.891319
     67          1           0        3.355381    2.574411   -2.921086
     68          1           0        2.406894    1.750885   -4.344949
     69          1           0        0.442733    3.006063   -2.701380
     70          1           0       -7.340299   -3.566359   -1.005400
     71          1           0       -7.712132   -3.197247   -2.763142
     72          1           0        3.815023    3.006266    3.887100
     73          1           0       -0.325431    4.881056   -2.172615
     74          1           0       -4.209974    4.513809   -0.185196
     75          1           0       -3.935378    3.745531    1.508984
     76          1           0       -3.171644    5.366543    1.099155
     77          1           0        8.242585   -2.364873   -1.407891
     78          1           0       -1.653258    6.751655   -2.180571
     79          1           0       -2.846474    6.011229   -0.938954
 ---------------------------------------------------------------------

 SCF Done:  E(RB3LYP) =  -1947.79660950     A.U. after   17 cycles

 Excitation energies and oscillator strengths:

 Excited State   1:      Singlet-A      0.9761 eV 1270.20 nm  f=0.0012  <S**2>=0.000
     155 ->156         0.70360
 This state for optimization and/or second-order correction.
 Total Energy, E(TD-HF/TD-DFT) =  -1947.76073845
 Copying the excited state density for this state as the 1-particle RhoCI density.

 The electronic state is 1-A.
 Alpha  occ. eigenvalues --  -19.19537 -19.17063 -19.14573 -19.13104 -19.12331
 Alpha  occ. eigenvalues --  -19.10162 -14.36505 -14.36443 -14.31043 -14.30582
 Alpha  occ. eigenvalues --  -10.32905 -10.32672 -10.28520 -10.27568 -10.26078
 Alpha  occ. eigenvalues --  -10.24994 -10.24950 -10.23942 -10.22931 -10.22489
 Alpha  occ. eigenvalues --  -10.21745 -10.21606 -10.21368 -10.21167 -10.21125
 Alpha  occ. eigenvalues --  -10.21112 -10.21046 -10.20968 -10.20850 -10.20193
 Alpha  occ. eigenvalues --  -10.20078 -10.20060 -10.20001 -10.19766 -10.18856
 Alpha  occ. eigenvalues --  -10.18845 -10.18202 -10.18040 -10.17446 -10.17433
 Alpha  occ. eigenvalues --  -10.17179 -10.17087 -10.16645  -1.13360  -1.11268
 Alpha  occ. eigenvalues --   -1.04967  -1.03724  -1.01621  -0.98476  -0.96502
 Alpha  occ. eigenvalues --   -0.95545  -0.94590  -0.92589  -0.85187  -0.83326
 Alpha  occ. eigenvalues --   -0.82589  -0.82146  -0.80373  -0.79494  -0.78524
 Alpha  occ. eigenvalues --   -0.77109  -0.75802  -0.75485  -0.74733  -0.73280
 Alpha  occ. eigenvalues --   -0.71185  -0.71009  -0.70315  -0.70136  -0.67279
 Alpha  occ. eigenvalues --   -0.66912  -0.65539  -0.63281  -0.61987  -0.61818
 Alpha  occ. eigenvalues --   -0.60693  -0.59346  -0.58549  -0.58026  -0.57871
 Alpha  occ. eigenvalues --   -0.56562  -0.55765  -0.54765  -0.53117  -0.52896
 Alpha  occ. eigenvalues --   -0.52366  -0.51730  -0.51328  -0.50213  -0.50057
 Alpha  occ. eigenvalues --   -0.49652  -0.49273  -0.48838  -0.48596  -0.48157
 Alpha  occ. eigenvalues --   -0.47995  -0.47309  -0.47113  -0.46647  -0.46247
 Alpha  occ. eigenvalues --   -0.45629  -0.45442  -0.44898  -0.44753  -0.44430
 Alpha  occ. eigenvalues --   -0.44274  -0.44027  -0.43515  -0.43321  -0.42793
 Alpha  occ. eigenvalues --   -0.42531  -0.42440  -0.42125  -0.41854  -0.41452
 Alpha  occ. eigenvalues --   -0.41067  -0.40873  -0.40817  -0.40534  -0.40195
 Alpha  occ. eigenvalues --   -0.39561  -0.39377  -0.39116  -0.38776  -0.38550
 Alpha  occ. eigenvalues --   -0.38132  -0.38022  -0.37500  -0.37336  -0.37068
 Alpha  occ. eigenvalues --   -0.36088  -0.36039  -0.35771  -0.35390  -0.34713
 Alpha  occ. eigenvalues --   -0.33101  -0.33017  -0.32544  -0.32357  -0.31581
 Alpha  occ. eigenvalues --   -0.31268  -0.31024  -0.30170  -0.29269  -0.29136
 Alpha  occ. eigenvalues --   -0.27034  -0.26297  -0.26199  -0.25601  -0.24928
 Alpha  occ. eigenvalues --   -0.23949  -0.22295  -0.22021  -0.21981  -0.18590
 Alpha virt. eigenvalues --   -0.12623  -0.08065  -0.04455  -0.02250  -0.01392
 Alpha virt. eigenvalues --   -0.01215   0.01647   0.02669   0.02809   0.03711
 Alpha virt. eigenvalues --    0.04016   0.05125   0.05296   0.05837   0.06070

 Mulliken charges:
               1
     1  O   -0.175364
     2  O   -0.095066
     3  O   -0.321644
     4  O   -0.202409
     5  O   -0.171876
     6  O   -0.172528
     7  N   -0.107109
     8  N   -0.041618
     9  N   -0.098895
    10  N   -0.350672
    11  C   -0.047438
    12  C    0.334224
    13  C   -0.109906
    14  C   -0.090809
    15  C   -0.161321
    16  C   -0.005874
    17  C   -0.189506
    18  C    0.145890
    19  C   -0.041536
    20  C   -0.119008
    21  C    0.161165
    22  C    0.136020
    23  C   -0.074572
    24  C    0.027326
    25  C    0.211972
    26  C   -0.137446
    27  C    0.028732
    28  C    0.170664
    29  C    0.247173
    30  C   -0.008874
    31  C   -0.121122
    32  C    0.119334
    33  C   -0.148702
    34  C    0.141330
    35  C    0.072967
    36  C   -0.067423
    37  C    0.139459
    38  C    0.165595
    39  C   -0.210858
    40  C    0.183629
    41  C   -0.171711
    42  C    0.038708
    43  C    0.047261
    44  H    0.067932
    45  H   -0.062822
    46  H   -0.069468
    47  H    0.131399
    48  H    0.014143
    49  H   -0.001035
    50  H    0.008767
    51  H    0.003292
    52  H    0.010346
    53  H    0.025637
    54  H    0.047011
    55  H   -0.010575
    56  H   -0.009610
    57  H   -0.005807
    58  H    0.066671
    59  H    0.025675
    60  H    0.160737
    61  H   -0.026771
    62  H   -0.035799
    63  H   -0.013622
    64  H    0.089723
    65  H    0.035102
    66  H   -0.004499
    67  H    0.055909
    68  H    0.034727
    69  H    0.036048
    70  H    0.014381
    71  H    0.027399
    72  H    0.133927
    73  H    0.016161
    74  H    0.053482
    75  H    0.022217
    76  H    0.054082
    77  H    0.165887
    78  H    0.019122
    79  H   -0.007930
 Sum of Mulliken charges =  -0.00000

 Dipole moment (field-independent basis, Debye):
    X=              1.7827    Y=              3.5323    Z=             -0.7545  Tot=              4.0279
 Quadrupole moment (field-independent basis, Debye-Ang):
   XX=           -248.6690   YY=           -231.5073   ZZ=           -264.3579
   XY=              7.4708   XZ=            -26.8453   YZ=             -5.7291

 Normal termination of Gaussian 16 at Wed Jul 24 14:38:54 2019.
