 Gaussian 16, Revision A.03,
 Gaussian 16:  ES64L-G16RevA.03 25-Dec-2016

 --------------------------
 # td=(NStates=1) B3LYP/SVP
 --------------------------

 --
 TD
 --
 Symbolic Z-matrix:
 Charge =  0 Multiplicity = 1

                         Standard orientation:
 ---------------------------------------------------------------------
 Center     Atomic      Atomic             Coordinates (Angstroms)
 Number     Number       Type             X           Y           Z
 ---------------------------------------------------------------------
      1          8           0       -3.039904   -1.382566   -2.846759
      2          8           0        2.846653    3.063432    3.640108
      3          8           0        3.886350    0.982615    4.217617
      4          8           0        7.847664   -1.049393   -1.185334
      5          8           0        6.494852   -3.242629   -1.671006
      6          8           0       -2.695235    1.671350    1.425261
      7          7           0       -0.349441   -2.480799    0.971192
      8          7           0       -2.585714   -1.118281   -0.669415
      9          7           0        1.063298   -0.029351   -0.788715
     10          7           0       -1.089100    1.536419   -0.229188
     11          6           0       -3.286698   -1.296518    0.593354
     12          6           0       -2.748057   -2.424295    1.528473
     13          6           0       -1.236645   -2.080310    1.774251
     14          6           0       -0.600424   -1.311129    2.768744
     15          6           0        0.705160   -1.253947    2.424343
     16          6           0        0.845754   -1.869177    1.231041
     17          6           0       -4.744213   -1.803103    0.140316
     18          6           0        1.910790   -0.501726    3.184337
     19          6           0       -4.676700   -2.073628   -1.142285
     20          6           0        1.986901   -1.980637    0.230810
     21          6           0        2.034958   -1.027291   -0.672175
     22          6           0       -3.387012   -1.567376   -1.719946
     23          6           0        2.920290   -0.771005   -1.857511
     24          6           0       -1.167969   -0.604160    3.953325
     25          6           0       -5.767718   -2.059282    1.196693
     26          6           0        2.550298    0.448007   -2.417811
     27          6           0        1.729145    1.063093    3.144983
     28          6           0        1.325453    0.889745   -1.728217
     29          6           0        4.184120   -1.487780   -2.087179
     30          6           0       -5.723488   -2.469653   -2.127440
     31          6           0        5.432639   -0.942541   -1.323131
     32          6           0        3.111342    1.165821   -3.535006
     33          6           0        0.484053    2.011153   -1.966770
     34          6           0        2.903759    1.611371    3.615600
     35          6           0       -0.548091    2.300359   -1.195971
     36          6           0       -6.814411   -3.179857   -1.861377
     37          6           0        6.609556   -1.919392   -1.496694
     38          6           0       -1.385886    3.586504   -1.222708
     39          6           0       -2.345186    3.519631   -0.257326
     40          6           0       -2.164172    2.131565    0.450124
     41          6           0       -1.056853    4.720916   -2.066050
     42          6           0       -3.458432    4.359683    0.213409
     43          6           0       -1.716671    5.946403   -2.125882
     44          1           0       -3.396694   -0.451353    1.059714
     45          1           0       -2.549356   -3.650805    1.186797
     46          1           0       -3.189415   -2.505311    2.425998
     47          1           0       -0.720619   -2.684490    0.075372
     48          1           0       -1.965660   -0.348841   -0.677048
     49          1           0        1.923781   -0.740014    4.305916
     50          1           0        2.932006   -0.870466    2.478385
     51          1           0        2.766992   -2.675434    0.556860
     52          1           0       -1.890590   -1.150125    4.561310
     53          1           0       -0.482403   -0.423850    4.664466
     54          1           0       -1.705228    0.395407    3.718640
     55          1           0       -5.691301   -1.330772    2.210515
     56          1           0       -5.861051   -2.935942    1.565860
     57          1           0       -6.714328   -1.884837    0.792546
     58          1           0        1.356975    1.596510    1.902624
     59          1           0        0.735785    1.553034    3.749594
     60          1           0        0.181232    0.095533   -0.253023
     61          1           0        4.217704   -1.536134   -3.209172
     62          1           0        4.107962   -2.502326   -1.750093
     63          1           0       -5.484977   -2.185099   -3.104839
     64          1           0        5.359143   -0.730175   -0.177620
     65          1           0        5.561223    0.039961   -1.700711
     66          1           0        4.033519    0.516499   -4.076138
     67          1           0        3.492449    2.310668   -3.540724
     68          1           0        2.390606    1.362011   -4.322244
     69          1           0        0.880917    2.636036   -2.675821
     70          1           0       -7.378700   -3.564551   -0.853202
     71          1           0       -7.509472   -3.341222   -2.798915
     72          1           0        3.767611    3.383581    3.765561
     73          1           0       -0.139128    4.622379   -2.758777
     74          1           0       -4.318670    4.309811   -0.472205
     75          1           0       -3.725986    3.800564    1.059724
     76          1           0       -3.075823    5.370283    0.367538
     77          1           0        8.556117   -1.724661   -1.322584
     78          1           0       -1.303300    6.601442   -2.823396
     79          1           0       -2.591208    6.155624   -1.435044
 ---------------------------------------------------------------------

 SCF Done:  E(RB3LYP) =  -1947.71645451     A.U. after   17 cycles

 Excitation energies and oscillator strengths:

 Excited State   1:      Singlet-A      1.1586 eV 1070.08 nm  f=0.0026  <S**2>=0.000
     155 ->156         0.70474
 This state for optimization and/or second-order correction.
 Total Energy, E(TD-HF/TD-DFT) =  -1947.67387503
 Copying the excited state density for this state as the 1-particle RhoCI density.

 The electronic state is 1-A.
 Alpha  occ. eigenvalues --  -19.19998 -19.17373 -19.16653 -19.12708 -19.12697
 Alpha  occ. eigenvalues --  -19.08989 -14.38203 -14.36009 -14.32269 -14.30048
 Alpha  occ. eigenvalues --  -10.36658 -10.32199 -10.28316 -10.27249 -10.27091
 Alpha  occ. eigenvalues --  -10.25878 -10.24507 -10.24092 -10.23680 -10.23554
 Alpha  occ. eigenvalues --  -10.23543 -10.23443 -10.22689 -10.22458 -10.22060
 Alpha  occ. eigenvalues --  -10.21627 -10.21532 -10.20787 -10.20725 -10.20689
 Alpha  occ. eigenvalues --  -10.20417 -10.20282 -10.20229 -10.19843 -10.19782
 Alpha  occ. eigenvalues --  -10.19304 -10.19219 -10.19054 -10.18898 -10.18741
 Alpha  occ. eigenvalues --  -10.16675 -10.16581 -10.15428  -1.04327  -1.04169
 Alpha  occ. eigenvalues --   -1.04153  -1.02611  -1.00906  -1.00204  -0.98902
 Alpha  occ. eigenvalues --   -0.96105  -0.92696  -0.91825  -0.84665  -0.83576
 Alpha  occ. eigenvalues --   -0.81228  -0.80778  -0.80569  -0.79403  -0.78753
 Alpha  occ. eigenvalues --   -0.77551  -0.76881  -0.75761  -0.74865  -0.73539
 Alpha  occ. eigenvalues --   -0.71409  -0.70850  -0.70263  -0.69633  -0.68072
 Alpha  occ. eigenvalues --   -0.66662  -0.66237  -0.63421  -0.61361  -0.59802
 Alpha  occ. eigenvalues --   -0.59512  -0.58952  -0.58453  -0.57533  -0.57208
 Alpha  occ. eigenvalues --   -0.56920  -0.55775  -0.55084  -0.53138  -0.52685
 Alpha  occ. eigenvalues --   -0.51993  -0.51436  -0.51260  -0.50524  -0.49628
 Alpha  occ. eigenvalues --   -0.49401  -0.49232  -0.48492  -0.47874  -0.47185
 Alpha  occ. eigenvalues --   -0.46959  -0.46588  -0.46275  -0.46062  -0.45573
 Alpha  occ. eigenvalues --   -0.45445  -0.45132  -0.45002  -0.44588  -0.44417
 Alpha  occ. eigenvalues --   -0.43291  -0.43149  -0.43115  -0.42937  -0.42750
 Alpha  occ. eigenvalues --   -0.42173  -0.41730  -0.41661  -0.41498  -0.41102
 Alpha  occ. eigenvalues --   -0.40574  -0.40328  -0.40176  -0.40112  -0.39768
 Alpha  occ. eigenvalues --   -0.39391  -0.39122  -0.38464  -0.38320  -0.38259
 Alpha  occ. eigenvalues --   -0.37673  -0.37598  -0.37253  -0.36825  -0.36595
 Alpha  occ. eigenvalues --   -0.36456  -0.36110  -0.35837  -0.35613  -0.35112
 Alpha  occ. eigenvalues --   -0.33470  -0.33014  -0.32191  -0.31879  -0.31020
 Alpha  occ. eigenvalues --   -0.30782  -0.30603  -0.30298  -0.29431  -0.28232
 Alpha  occ. eigenvalues --   -0.27433  -0.27143  -0.25440  -0.25091  -0.24766
 Alpha  occ. eigenvalues --   -0.24343  -0.23884  -0.23756  -0.22316  -0.19035
 Alpha virt. eigenvalues --   -0.12215  -0.07347  -0.07007  -0.04657  -0.03682
 Alpha virt. eigenvalues --   -0.01744   0.01648   0.02196   0.02559   0.03230
 Alpha virt. eigenvalues --    0.03298   0.03488   0.04032   0.04708   0.04973

 Mulliken charges:
               1
     1  O   -0.200621
     2  O   -0.262213
     3  O   -0.304663
     4  O   -0.278345
     5  O   -0.286008
     6  O   -0.187534
     7  N    0.091102
     8  N   -0.216948
     9  N   -0.066535
    10  N   -0.352199
    11  C    0.190278
    12  C    0.187094
    13  C   -0.239811
    14  C   -0.108392
    15  C   -0.015426
    16  C   -0.167917
    17  C   -0.169226
    18  C    0.055963
    19  C   -0.062781
    20  C   -0.152944
    21  C    0.228880
    22  C    0.139719
    23  C   -0.096419
    24  C    0.120825
    25  C    0.131971
    26  C   -0.046562
    27  C   -0.164826
    28  C    0.055876
    29  C    0.093040
    30  C    0.050149
    31  C    0.013490
    32  C   -0.036131
    33  C   -0.057045
    34  C    0.238547
    35  C    0.195634
    36  C   -0.102431
    37  C    0.261310
    38  C    0.079456
    39  C   -0.273447
    40  C    0.177611
    41  C   -0.097586
    42  C    0.146859
    43  C    0.007566
    44  H   -0.032036
    45  H    0.025890
    46  H   -0.046920
    47  H    0.099956
    48  H    0.119405
    49  H    0.047669
    50  H    0.047500
    51  H    0.038092
    52  H   -0.018545
    53  H   -0.049969
    54  H    0.038448
    55  H    0.033225
    56  H   -0.018803
    57  H    0.005712
    58  H    0.091018
    59  H    0.115616
    60  H    0.180540
    61  H    0.036330
    62  H    0.014424
    63  H   -0.004438
    64  H    0.085373
    65  H    0.023190
    66  H    0.045388
    67  H    0.053855
    68  H    0.034311
    69  H   -0.075314
    70  H    0.050445
    71  H    0.030888
    72  H    0.187202
    73  H    0.005949
    74  H    0.038823
    75  H    0.004474
    76  H    0.037712
    77  H    0.194872
    78  H    0.009879
    79  H    0.030480
 Sum of Mulliken charges =  -0.00000

 Dipole moment (field-independent basis, Debye):
    X=              2.1135    Y=              2.5775    Z=             -2.0973  Tot=              3.9381
 Quadrupole moment (field-independent basis, Debye-Ang):
   XX=           -232.2315   YY=           -246.4383   ZZ=           -264.6797
   XY=              9.9655   XZ=            -29.1204   YZ=            -13.9367

 Normal termination of Gaussian 16 at Mon Jul 29 17:45:01 2019.
