 Gaussian 16, Revision A.03,
 Gaussian 16:  ES64L-G16RevA.03 25-Dec-2016

 --------------------------
 # td=(NStates=1) B3LYP/SVP
 --------------------------

 --
 TD
 --
 Symbolic Z-matrix:
 Charge =  0 Multiplicity = 1

                         Standard orientation:
 ---------------------------------------------------------------------
 Center     Atomic      Atomic             Coordinates (Angstroms)
 Number     Number       Type             X           Y           Z
 ---------------------------------------------------------------------
      1          8           0        5.291949   -0.413132   -3.369882
      2          8           0       -2.890154   -2.895560    3.334323
      3          8           0       -3.325069   -0.732905    2.905853
      4          8           0       -1.425329    7.270304    1.348426
      5          8           0       -0.223131    6.937745   -0.558544
      6          8           0       -1.954716   -3.927504    0.022580
      7          7           0        2.371240    0.798872    0.522938
      8          7           0        4.360046   -0.809419   -1.269141
      9          7           0       -1.862608    0.739317   -0.287505
     10          7           0       -2.752496   -1.813789   -0.448050
     11          6           0        4.721203   -1.348301   -0.043226
     12          6           0        4.423390   -0.324971    1.163982
     13          6           0        2.973025   -0.078477    1.343180
     14          6           0        2.004337   -0.599332    2.077508
     15          6           0        0.812147   -0.000530    1.766864
     16          6           0        1.056626    0.913672    0.751574
     17          6           0        6.214267   -1.381829   -0.143858
     18          6           0       -0.493899   -0.153768    2.513171
     19          6           0        6.615240   -0.995046   -1.419879
     20          6           0        0.229858    1.930710    0.241794
     21          6           0       -1.035717    1.857038   -0.237421
     22          6           0        5.310497   -0.638022   -2.224053
     23          6           0       -1.884985    2.951018   -0.785436
     24          6           0        2.216596   -1.639600    3.325442
     25          6           0        6.981832   -2.047884    0.854714
     26          6           0       -3.106413    2.411029   -1.205326
     27          6           0       -1.045826   -1.637712    2.558416
     28          6           0       -3.056764    1.008256   -0.779801
     29          6           0       -1.330323    4.265375   -0.958805
     30          6           0        7.901742   -0.919453   -2.046936
     31          6           0       -1.558408    5.081123    0.287773
     32          6           0       -4.283016    3.170655   -1.778583
     33          6           0       -4.026090    0.036209   -1.146512
     34          6           0       -2.581141   -1.647047    2.946132
     35          6           0       -3.841984   -1.344627   -1.000869
     36          6           0        9.109502   -0.869503   -1.397709
     37          6           0       -0.875681    6.551355    0.328568
     38          6           0       -4.722622   -2.531279   -1.416205
     39          6           0       -4.113189   -3.663132   -1.069194
     40          6           0       -2.872570   -3.309357   -0.450315
     41          6           0       -6.019369   -2.316108   -2.059243
     42          6           0       -4.481416   -5.135923   -1.290231
     43          6           0       -6.870886   -3.217072   -2.601045
     44          1           0        4.198395   -2.266682    0.181800
     45          1           0        4.817935    0.661101    1.105532
     46          1           0        4.952202   -0.958285    2.031991
     47          1           0        2.597883    1.450333   -0.152950
     48          1           0        3.388098   -0.627336   -1.648045
     49          1           0       -0.552760    0.162559    3.559094
     50          1           0       -1.416501    0.249898    1.991996
     51          1           0        0.802023    2.791114    0.054919
     52          1           0        3.241209   -1.784887    3.439715
     53          1           0        1.494893   -1.450068    4.068062
     54          1           0        1.691504   -2.691997    2.870873
     55          1           0        6.421093   -2.545175    1.815576
     56          1           0        7.633217   -1.218923    1.328661
     57          1           0        7.924019   -2.730154    0.369613
     58          1           0       -0.746614   -2.043009    1.600105
     59          1           0       -0.538913   -2.284229    3.160618
     60          1           0       -1.656698   -0.421220   -0.049225
     61          1           0       -2.026997    4.958503   -1.678656
     62          1           0       -0.249690    4.043176   -1.399748
     63          1           0        7.866183   -0.674198   -3.174242
     64          1           0       -1.342889    4.509795    1.094077
     65          1           0       -2.596767    5.342758    0.380077
     66          1           0       -4.108351    4.323045   -1.724724
     67          1           0       -5.199440    2.781609   -1.393030
     68          1           0       -4.451159    2.775010   -2.791403
     69          1           0       -4.862629    0.366986   -1.743239
     70          1           0        9.275179   -0.723211   -0.330877
     71          1           0        9.977701   -0.781961   -1.980585
     72          1           0       -3.869282   -3.079909    3.703279
     73          1           0       -6.279578   -1.122055   -1.990190
     74          1           0       -5.221144   -5.549798   -0.706138
     75          1           0       -4.699282   -5.467237   -2.372502
     76          1           0       -3.686312   -5.791250   -0.835454
     77          1           0       -1.153656    8.207239    1.293818
     78          1           0       -7.851756   -2.785994   -3.103757
     79          1           0       -6.592572   -4.206803   -2.691592
 ---------------------------------------------------------------------

 SCF Done:  E(RB3LYP) =  -1947.84419361     A.U. after   16 cycles

 Excitation energies and oscillator strengths:

 Excited State   1:      Singlet-A      2.0333 eV  609.76 nm  f=0.3944  <S**2>=0.000
     155 ->156         0.69962
 This state for optimization and/or second-order correction.
 Total Energy, E(TD-HF/TD-DFT) =  -1947.76946964
 Copying the excited state density for this state as the 1-particle RhoCI density.

 The electronic state is 1-A.
 Alpha  occ. eigenvalues --  -19.19039 -19.16994 -19.14057 -19.11595 -19.10988
 Alpha  occ. eigenvalues --  -19.10634 -14.37433 -14.35976 -14.35538 -14.28795
 Alpha  occ. eigenvalues --  -10.32816 -10.30649 -10.28217 -10.26702 -10.24830
 Alpha  occ. eigenvalues --  -10.24111 -10.23818 -10.22738 -10.22473 -10.22068
 Alpha  occ. eigenvalues --  -10.21760 -10.21673 -10.21609 -10.21262 -10.21137
 Alpha  occ. eigenvalues --  -10.21001 -10.20727 -10.20719 -10.20696 -10.20575
 Alpha  occ. eigenvalues --  -10.20516 -10.20335 -10.20288 -10.20082 -10.19908
 Alpha  occ. eigenvalues --  -10.19547 -10.19229 -10.19052 -10.18410 -10.18191
 Alpha  occ. eigenvalues --  -10.17739 -10.17524 -10.17332  -1.10677  -1.07809
 Alpha  occ. eigenvalues --   -1.05107  -1.03150  -1.02418  -1.01274  -0.99661
 Alpha  occ. eigenvalues --   -0.97773  -0.96064  -0.91597  -0.83162  -0.82198
 Alpha  occ. eigenvalues --   -0.81685  -0.81217  -0.80689  -0.79118  -0.77342
 Alpha  occ. eigenvalues --   -0.76867  -0.75969  -0.75095  -0.74099  -0.71798
 Alpha  occ. eigenvalues --   -0.70581  -0.69945  -0.69876  -0.69647  -0.67375
 Alpha  occ. eigenvalues --   -0.66742  -0.65999  -0.64249  -0.61581  -0.61225
 Alpha  occ. eigenvalues --   -0.60934  -0.58795  -0.58114  -0.57608  -0.56209
 Alpha  occ. eigenvalues --   -0.56132  -0.55043  -0.54797  -0.54298  -0.53704
 Alpha  occ. eigenvalues --   -0.51904  -0.51711  -0.50981  -0.50400  -0.49441
 Alpha  occ. eigenvalues --   -0.49259  -0.48826  -0.48394  -0.47912  -0.47472
 Alpha  occ. eigenvalues --   -0.46922  -0.46785  -0.46256  -0.46248  -0.45655
 Alpha  occ. eigenvalues --   -0.45155  -0.44431  -0.44249  -0.44060  -0.43925
 Alpha  occ. eigenvalues --   -0.43393  -0.43305  -0.43105  -0.42936  -0.42442
 Alpha  occ. eigenvalues --   -0.42340  -0.41608  -0.41407  -0.41299  -0.40732
 Alpha  occ. eigenvalues --   -0.40493  -0.40408  -0.40125  -0.39878  -0.39673
 Alpha  occ. eigenvalues --   -0.39643  -0.38972  -0.38966  -0.38794  -0.38700
 Alpha  occ. eigenvalues --   -0.38350  -0.37599  -0.37326  -0.37191  -0.36306
 Alpha  occ. eigenvalues --   -0.35855  -0.35116  -0.34704  -0.34452  -0.34303
 Alpha  occ. eigenvalues --   -0.34228  -0.33419  -0.33160  -0.32348  -0.31600
 Alpha  occ. eigenvalues --   -0.31274  -0.30759  -0.29078  -0.28861  -0.27410
 Alpha  occ. eigenvalues --   -0.27229  -0.26776  -0.25725  -0.24791  -0.24670
 Alpha  occ. eigenvalues --   -0.24417  -0.24154  -0.22827  -0.22250  -0.18600
 Alpha virt. eigenvalues --   -0.10348  -0.06593  -0.05599   0.00206   0.00304
 Alpha virt. eigenvalues --    0.01472   0.02146   0.02612   0.02869   0.03065
 Alpha virt. eigenvalues --    0.03643   0.04344   0.04445   0.04924   0.05292

 Mulliken charges:
               1
     1  O   -0.161201
     2  O   -0.238829
     3  O   -0.188010
     4  O   -0.200807
     5  O   -0.162459
     6  O   -0.163245
     7  N    0.022410
     8  N   -0.184504
     9  N   -0.140090
    10  N   -0.337256
    11  C    0.116117
    12  C    0.145103
    13  C   -0.079723
    14  C   -0.141092
    15  C   -0.040364
    16  C   -0.044311
    17  C   -0.122293
    18  C    0.024183
    19  C   -0.066610
    20  C   -0.108916
    21  C    0.151477
    22  C    0.113191
    23  C   -0.096295
    24  C    0.128285
    25  C   -0.033902
    26  C   -0.150592
    27  C   -0.024218
    28  C    0.116577
    29  C    0.011336
    30  C   -0.044499
    31  C    0.023528
    32  C    0.144557
    33  C   -0.111293
    34  C    0.165675
    35  C    0.095806
    36  C   -0.027529
    37  C    0.135778
    38  C    0.062262
    39  C   -0.187843
    40  C    0.148339
    41  C   -0.068456
    42  C    0.094365
    43  C    0.000043
    44  H    0.019775
    45  H   -0.012537
    46  H    0.013563
    47  H    0.078364
    48  H    0.133270
    49  H    0.004759
    50  H    0.036090
    51  H   -0.037993
    52  H   -0.004863
    53  H    0.015287
    54  H    0.035238
    55  H    0.053087
    56  H    0.043519
    57  H    0.066307
    58  H    0.046803
    59  H   -0.027301
    60  H    0.242091
    61  H    0.020983
    62  H    0.057217
    63  H    0.036573
    64  H    0.001270
    65  H    0.023998
    66  H    0.045813
    67  H    0.006510
    68  H    0.010287
    69  H   -0.048067
    70  H    0.017325
    71  H    0.011391
    72  H    0.217816
    73  H    0.028101
    74  H   -0.003535
    75  H    0.049214
    76  H    0.015878
    77  H    0.182845
    78  H    0.052373
    79  H   -0.006144
 Sum of Mulliken charges =  -0.00000

 Dipole moment (field-independent basis, Debye):
    X=             -1.3578    Y=              2.1285    Z=              2.9261  Tot=              3.8648
 Quadrupole moment (field-independent basis, Debye-Ang):
   XX=           -224.3042   YY=           -233.5820   ZZ=           -260.6260
   XY=              0.8097   XZ=             29.8317   YZ=              1.3086

 Normal termination of Gaussian 16 at Thu Oct 10 04:56:05 2019.
