 Gaussian 16, Revision A.03,
 Gaussian 16:  ES64L-G16RevA.03 25-Dec-2016

 --------------------------
 # td=(NStates=1) B3LYP/SVP
 --------------------------

 --
 TD
 --
 Symbolic Z-matrix:
 Charge =  0 Multiplicity = 1

                         Standard orientation:
 ---------------------------------------------------------------------
 Center     Atomic      Atomic             Coordinates (Angstroms)
 Number     Number       Type             X           Y           Z
 ---------------------------------------------------------------------
      1          8           0       -3.372301   -1.229144   -3.049396
      2          8           0        3.400391    2.615310    3.748572
      3          8           0        4.081253    0.649793    4.382512
      4          8           0        7.649198   -1.360197   -0.942393
      5          8           0        6.738519   -2.699694   -2.443618
      6          8           0       -2.648384    1.439701    1.524370
      7          7           0       -0.277157   -2.421070    0.670048
      8          7           0       -2.796284   -1.146129   -0.827148
      9          7           0        1.115078    0.125767   -0.789221
     10          7           0       -1.031766    1.433466   -0.172276
     11          6           0       -3.435109   -1.284091    0.448404
     12          6           0       -2.699639   -2.454950    1.383717
     13          6           0       -1.276183   -2.156031    1.565737
     14          6           0       -0.566628   -1.464313    2.677929
     15          6           0        0.752728   -1.453886    2.404444
     16          6           0        0.976461   -1.926665    1.057929
     17          6           0       -4.823814   -1.817733    0.161342
     18          6           0        1.825673   -0.771264    3.124270
     19          6           0       -4.969195   -1.874870   -1.217491
     20          6           0        2.082250   -1.939418   -0.003653
     21          6           0        2.066802   -0.943619   -0.896363
     22          6           0       -3.669474   -1.370342   -1.873923
     23          6           0        2.984312   -0.572713   -1.968758
     24          6           0       -1.313337   -0.882656    3.864893
     25          6           0       -5.799926   -2.106704    1.117652
     26          6           0        2.563052    0.726843   -2.406031
     27          6           0        2.006466    0.793208    3.010568
     28          6           0        1.377511    1.106098   -1.722290
     29          6           0        4.172691   -1.376896   -2.221153
     30          6           0       -6.031696   -2.159550   -2.076976
     31          6           0        5.331405   -1.127541   -1.241273
     32          6           0        3.292925    1.424565   -3.549671
     33          6           0        0.480655    2.167504   -1.906978
     34          6           0        3.243515    1.298709    3.749541
     35          6           0       -0.643199    2.383931   -1.114364
     36          6           0       -7.307161   -2.665130   -1.643845
     37          6           0        6.582951   -1.774200   -1.637971
     38          6           0       -1.379618    3.633385   -0.900469
     39          6           0       -2.292666    3.342884    0.134371
     40          6           0       -2.044955    2.042951    0.580672
     41          6           0       -1.064973    4.878674   -1.689517
     42          6           0       -3.350782    4.283137    0.694142
     43          6           0       -1.787166    6.054680   -1.756206
     44          1           0       -3.232457   -0.207711    0.846007
     45          1           0       -2.771810   -3.478274    0.942707
     46          1           0       -3.116773   -2.577563    2.323564
     47          1           0       -0.299405   -2.966054   -0.175100
     48          1           0       -2.138141   -0.253486   -0.846027
     49          1           0        1.640313   -1.010321    4.335164
     50          1           0        2.778795   -1.314024    3.018050
     51          1           0        2.729825   -2.780717    0.164065
     52          1           0       -2.040004   -1.572558    4.156202
     53          1           0       -0.731911   -0.788604    4.925171
     54          1           0       -1.792573    0.064508    3.615100
     55          1           0       -5.591715   -1.814189    2.217461
     56          1           0       -6.008729   -3.291776    1.037944
     57          1           0       -6.875692   -1.457917    0.903982
     58          1           0        2.091345    1.074602    2.118865
     59          1           0        1.081846    1.328964    3.249533
     60          1           0        0.157421    0.180396   -0.313654
     61          1           0        4.672383   -1.298998   -3.324635
     62          1           0        3.819250   -2.503137   -2.132210
     63          1           0       -5.714610   -2.120157   -3.177943
     64          1           0        4.947888   -1.488847   -0.166509
     65          1           0        5.474833   -0.010192   -1.067442
     66          1           0        4.109582    0.869893   -4.006737
     67          1           0        4.042333    2.142139   -3.307450
     68          1           0        2.535140    1.588251   -4.297159
     69          1           0        0.711079    2.866958   -2.568521
     70          1           0       -7.922530   -2.714947   -0.595152
     71          1           0       -7.968091   -2.969446   -2.442767
     72          1           0        4.200676    2.912724    4.288111
     73          1           0       -0.205766    5.097485   -2.445622
     74          1           0       -4.131594    4.708939   -0.028984
     75          1           0       -4.029363    3.830679    1.576434
     76          1           0       -2.744393    5.138887    1.191992
     77          1           0        8.558179   -1.626086   -1.511639
     78          1           0       -1.287600    6.752395   -2.330695
     79          1           0       -2.509508    6.333818   -0.994363
 ---------------------------------------------------------------------

 SCF Done:  E(RB3LYP) =  -1947.82329247     A.U. after   22 cycles

 Excitation energies and oscillator strengths:

 Excited State   1:      Singlet-A      0.5494 eV 2256.73 nm  f=0.0051  <S**2>=0.000
     155 ->156         0.70589
 This state for optimization and/or second-order correction.
 Total Energy, E(TD-HF/TD-DFT) =  -1947.80310247
 Copying the excited state density for this state as the 1-particle RhoCI density.

 The electronic state is 1-A.
 Alpha  occ. eigenvalues --  -19.19562 -19.17676 -19.13357 -19.12110 -19.11086
 Alpha  occ. eigenvalues --  -19.07925 -14.37381 -14.37172 -14.32095 -14.31160
 Alpha  occ. eigenvalues --  -10.33294 -10.31537 -10.28024 -10.27114 -10.26169
 Alpha  occ. eigenvalues --  -10.25928 -10.25315 -10.24066 -10.23907 -10.23822
 Alpha  occ. eigenvalues --  -10.23755 -10.23735 -10.23411 -10.23200 -10.22031
 Alpha  occ. eigenvalues --  -10.21922 -10.21738 -10.21235 -10.21213 -10.21059
 Alpha  occ. eigenvalues --  -10.20814 -10.20630 -10.20628 -10.19777 -10.19638
 Alpha  occ. eigenvalues --  -10.19579 -10.19577 -10.19187 -10.19165 -10.17685
 Alpha  occ. eigenvalues --  -10.17546 -10.17141 -10.16976  -1.09654  -1.09078
 Alpha  occ. eigenvalues --   -1.01274  -0.99896  -0.99420  -0.98770  -0.97782
 Alpha  occ. eigenvalues --   -0.96087  -0.93058  -0.91103  -0.84572  -0.82770
 Alpha  occ. eigenvalues --   -0.80880  -0.80314  -0.80238  -0.79491  -0.78581
 Alpha  occ. eigenvalues --   -0.76923  -0.76234  -0.75845  -0.74319  -0.73351
 Alpha  occ. eigenvalues --   -0.70997  -0.70131  -0.69833  -0.67833  -0.67306
 Alpha  occ. eigenvalues --   -0.66495  -0.65588  -0.63696  -0.61958  -0.60617
 Alpha  occ. eigenvalues --   -0.60018  -0.59543  -0.59265  -0.57449  -0.56784
 Alpha  occ. eigenvalues --   -0.56266  -0.55706  -0.54174  -0.53720  -0.52564
 Alpha  occ. eigenvalues --   -0.52338  -0.51322  -0.50627  -0.50406  -0.49989
 Alpha  occ. eigenvalues --   -0.49331  -0.48625  -0.48207  -0.48181  -0.47654
 Alpha  occ. eigenvalues --   -0.47241  -0.46965  -0.46525  -0.46339  -0.45431
 Alpha  occ. eigenvalues --   -0.44997  -0.44896  -0.44498  -0.44268  -0.43835
 Alpha  occ. eigenvalues --   -0.43506  -0.43082  -0.42677  -0.42260  -0.41872
 Alpha  occ. eigenvalues --   -0.41384  -0.41084  -0.40994  -0.40649  -0.40397
 Alpha  occ. eigenvalues --   -0.40044  -0.40000  -0.39847  -0.39271  -0.39211
 Alpha  occ. eigenvalues --   -0.39099  -0.39032  -0.38738  -0.38271  -0.37910
 Alpha  occ. eigenvalues --   -0.37602  -0.37334  -0.36810  -0.36476  -0.36164
 Alpha  occ. eigenvalues --   -0.35985  -0.35667  -0.35326  -0.34919  -0.34560
 Alpha  occ. eigenvalues --   -0.33063  -0.32600  -0.32392  -0.31484  -0.31392
 Alpha  occ. eigenvalues --   -0.30752  -0.29639  -0.29622  -0.29338  -0.28949
 Alpha  occ. eigenvalues --   -0.27226  -0.26772  -0.26406  -0.24412  -0.23941
 Alpha  occ. eigenvalues --   -0.23733  -0.23177  -0.22634  -0.20828  -0.18205
 Alpha virt. eigenvalues --   -0.13934  -0.09110  -0.04927  -0.02978  -0.02707
 Alpha virt. eigenvalues --    0.00495   0.00830   0.01489   0.02261   0.02412
 Alpha virt. eigenvalues --    0.03440   0.03847   0.04257   0.04550   0.04975

 Mulliken charges:
               1
     1  O   -0.240155
     2  O   -0.192204
     3  O   -0.261042
     4  O   -0.241733
     5  O   -0.249147
     6  O   -0.259692
     7  N   -0.053577
     8  N   -0.240298
     9  N   -0.140386
    10  N   -0.367008
    11  C    0.014746
    12  C    0.257988
    13  C   -0.119536
    14  C   -0.116906
    15  C   -0.059409
    16  C   -0.083326
    17  C   -0.089417
    18  C    0.019921
    19  C   -0.049500
    20  C   -0.140905
    21  C    0.228799
    22  C    0.136584
    23  C   -0.006802
    24  C    0.084779
    25  C   -0.049614
    26  C   -0.149043
    27  C    0.158546
    28  C    0.144346
    29  C   -0.011864
    30  C   -0.045356
    31  C   -0.035409
    32  C    0.136901
    33  C   -0.016666
    34  C    0.111661
    35  C    0.112630
    36  C   -0.093192
    37  C    0.153912
    38  C    0.097926
    39  C   -0.118821
    40  C    0.177358
    41  C   -0.102337
    42  C   -0.012692
    43  C    0.003571
    44  H    0.091329
    45  H   -0.016952
    46  H   -0.036775
    47  H    0.108026
    48  H    0.172061
    49  H    0.015803
    50  H    0.000610
    51  H    0.027620
    52  H   -0.017060
    53  H    0.011528
    54  H    0.040317
    55  H    0.036502
    56  H    0.060088
    57  H    0.061095
    58  H   -0.062334
    59  H    0.032924
    60  H    0.208655
    61  H    0.058386
    62  H    0.049421
    63  H    0.037008
    64  H    0.079447
    65  H    0.047612
    66  H   -0.015946
    67  H    0.012761
    68  H    0.045724
    69  H   -0.095507
    70  H    0.057172
    71  H    0.012809
    72  H    0.204159
    73  H    0.032842
    74  H    0.058363
    75  H    0.053013
    76  H    0.050124
    77  H    0.250481
    78  H    0.010164
    79  H    0.024898
 Sum of Mulliken charges =  -0.00000

 Dipole moment (field-independent basis, Debye):
    X=              4.4099    Y=              4.6939    Z=             -0.9457  Tot=              6.5096
 Quadrupole moment (field-independent basis, Debye-Ang):
   XX=           -235.9112   YY=           -232.4324   ZZ=           -271.4628
   XY=             10.1196   XZ=            -30.0083   YZ=            -11.1294

 Normal termination of Gaussian 16 at Mon Jul 29 11:36:57 2019.
