 Gaussian 16, Revision A.03,
 Gaussian 16:  ES64L-G16RevA.03 25-Dec-2016

 --------------------------
 # td=(NStates=1) B3LYP/SVP
 --------------------------

 --
 TD
 --
 Symbolic Z-matrix:
 Charge =  0 Multiplicity = 1

                         Standard orientation:
 ---------------------------------------------------------------------
 Center     Atomic      Atomic             Coordinates (Angstroms)
 Number     Number       Type             X           Y           Z
 ---------------------------------------------------------------------
      1          8           0       -3.213448   -1.266515   -2.841126
      2          8           0        3.379544    3.116305    2.976378
      3          8           0        3.475642    1.511328    4.629326
      4          8           0        7.629754   -1.770775   -0.456572
      5          8           0        6.774273   -2.868177   -2.242390
      6          8           0       -2.423460    1.632149    1.410760
      7          7           0       -0.349704   -2.350550    0.950807
      8          7           0       -2.640042   -1.323034   -0.505247
      9          7           0        1.168886    0.107060   -0.779223
     10          7           0       -0.960351    1.406307   -0.419754
     11          6           0       -3.487876   -1.421142    0.672904
     12          6           0       -2.678860   -2.368304    1.677084
     13          6           0       -1.308217   -1.986095    1.927373
     14          6           0       -0.638906   -1.100113    2.826390
     15          6           0        0.693328   -1.137926    2.479466
     16          6           0        0.833539   -1.836449    1.237853
     17          6           0       -4.786878   -1.855051    0.262775
     18          6           0        1.856246   -0.335525    3.113619
     19          6           0       -4.810195   -1.998613   -1.051999
     20          6           0        2.010959   -1.915842    0.289158
     21          6           0        2.060289   -0.925823   -0.677939
     22          6           0       -3.458539   -1.409549   -1.619685
     23          6           0        2.949530   -0.764293   -1.783955
     24          6           0       -1.263383   -0.402503    3.973177
     25          6           0       -5.899805   -2.091166    1.282081
     26          6           0        2.528460    0.305792   -2.538966
     27          6           0        1.984870    1.105168    2.701701
     28          6           0        1.334823    0.867296   -1.953561
     29          6           0        4.162343   -1.616505   -2.015922
     30          6           0       -5.916318   -2.334845   -1.925860
     31          6           0        5.329453   -1.205164   -1.127765
     32          6           0        3.138537    0.983734   -3.748807
     33          6           0        0.493327    1.886836   -2.137378
     34          6           0        2.970903    1.969433    3.533072
     35          6           0       -0.668302    2.314674   -1.436236
     36          6           0       -6.894075   -3.187742   -1.649763
     37          6           0        6.579594   -2.077539   -1.281717
     38          6           0       -1.410540    3.560588   -1.326933
     39          6           0       -2.221380    3.467237   -0.227970
     40          6           0       -1.925207    2.112996    0.396636
     41          6           0       -1.174900    4.555404   -2.218495
     42          6           0       -3.207790    4.353251    0.312577
     43          6           0       -1.815526    5.654498   -2.361226
     44          1           0       -3.265882   -0.377466    0.998962
     45          1           0       -2.973386   -3.288618    1.409156
     46          1           0       -3.336543   -2.201060    2.744992
     47          1           0       -0.626732   -2.785098    0.055394
     48          1           0       -1.955230   -0.394058   -0.447745
     49          1           0        1.689730   -0.592196    4.323982
     50          1           0        2.820608   -0.781001    2.800951
     51          1           0        2.712017   -2.615636    0.443639
     52          1           0       -2.046249   -1.121272    4.511214
     53          1           0       -0.517921   -0.109979    4.766657
     54          1           0       -1.817980    0.505541    3.512365
     55          1           0       -5.776881   -1.301809    1.959509
     56          1           0       -5.942692   -3.078495    1.657824
     57          1           0       -6.877858   -2.025224    0.889850
     58          1           0        2.295107    1.239350    1.755084
     59          1           0        1.093273    1.656477    3.121613
     60          1           0        0.318638    0.505344   -0.229008
     61          1           0        4.460189   -1.658775   -3.166723
     62          1           0        3.966774   -2.571901   -1.827842
     63          1           0       -5.586131   -2.221368   -2.924403
     64          1           0        4.930616   -1.365239   -0.109711
     65          1           0        5.585067   -0.087228   -1.147497
     66          1           0        4.389097    0.473099   -3.772703
     67          1           0        3.043862    2.109441   -3.440722
     68          1           0        2.490527    0.698942   -4.607690
     69          1           0        0.601655    2.385955   -2.988164
     70          1           0       -6.899615   -3.556509   -0.506022
     71          1           0       -7.637149   -3.605331   -2.504829
     72          1           0        4.106400    3.251487    3.707006
     73          1           0       -0.366209    4.293951   -2.954414
     74          1           0       -4.042195    4.659261   -0.299350
     75          1           0       -3.946871    3.811587    1.020338
     76          1           0       -2.801247    5.467820    0.686829
     77          1           0        8.454197   -2.326178   -0.713622
     78          1           0       -1.619530    6.494983   -3.238407
     79          1           0       -2.588448    5.797894   -1.633736
 ---------------------------------------------------------------------

 SCF Done:  E(RB3LYP) =  -1947.78138427     A.U. after   19 cycles

 Excitation energies and oscillator strengths:

 Excited State   1:      Singlet-A      0.7005 eV 1769.83 nm  f=0.0028  <S**2>=0.000
     155 ->156         0.70446
 This state for optimization and/or second-order correction.
 Total Energy, E(TD-HF/TD-DFT) =  -1947.75563984
 Copying the excited state density for this state as the 1-particle RhoCI density.

 The electronic state is 1-A.
 Alpha  occ. eigenvalues --  -19.20156 -19.19553 -19.13662 -19.13555 -19.11905
 Alpha  occ. eigenvalues --  -19.08429 -14.36518 -14.35579 -14.33335 -14.32277
 Alpha  occ. eigenvalues --  -10.33918 -10.32249 -10.29676 -10.26924 -10.26357
 Alpha  occ. eigenvalues --  -10.25762 -10.25283 -10.24041 -10.23427 -10.22630
 Alpha  occ. eigenvalues --  -10.22489 -10.22347 -10.22336 -10.22201 -10.22019
 Alpha  occ. eigenvalues --  -10.21556 -10.21550 -10.20906 -10.20851 -10.20711
 Alpha  occ. eigenvalues --  -10.20263 -10.20094 -10.20014 -10.20012 -10.19693
 Alpha  occ. eigenvalues --  -10.19439 -10.19122 -10.18626 -10.18107 -10.17953
 Alpha  occ. eigenvalues --  -10.17653 -10.16944 -10.16754  -1.09756  -1.08632
 Alpha  occ. eigenvalues --   -1.03853  -0.98998  -0.98924  -0.98575  -0.96912
 Alpha  occ. eigenvalues --   -0.96627  -0.93818  -0.92064  -0.85089  -0.83702
 Alpha  occ. eigenvalues --   -0.82634  -0.80780  -0.80038  -0.79673  -0.78542
 Alpha  occ. eigenvalues --   -0.77905  -0.76459  -0.76246  -0.74712  -0.73147
 Alpha  occ. eigenvalues --   -0.72203  -0.70018  -0.69570  -0.68624  -0.67874
 Alpha  occ. eigenvalues --   -0.66483  -0.65674  -0.63876  -0.61802  -0.60926
 Alpha  occ. eigenvalues --   -0.60145  -0.58712  -0.57990  -0.57748  -0.57192
 Alpha  occ. eigenvalues --   -0.55971  -0.54797  -0.54209  -0.53959  -0.52674
 Alpha  occ. eigenvalues --   -0.52051  -0.51782  -0.51052  -0.50705  -0.50151
 Alpha  occ. eigenvalues --   -0.49819  -0.49544  -0.49271  -0.48180  -0.48037
 Alpha  occ. eigenvalues --   -0.47267  -0.46907  -0.46757  -0.46548  -0.46201
 Alpha  occ. eigenvalues --   -0.45557  -0.45216  -0.44434  -0.44358  -0.43641
 Alpha  occ. eigenvalues --   -0.43427  -0.43196  -0.42908  -0.42711  -0.42449
 Alpha  occ. eigenvalues --   -0.41807  -0.41776  -0.41477  -0.41460  -0.40943
 Alpha  occ. eigenvalues --   -0.40491  -0.40349  -0.40091  -0.39866  -0.39587
 Alpha  occ. eigenvalues --   -0.39146  -0.39030  -0.38901  -0.38676  -0.38185
 Alpha  occ. eigenvalues --   -0.37803  -0.37530  -0.36755  -0.36632  -0.36316
 Alpha  occ. eigenvalues --   -0.35625  -0.35224  -0.35170  -0.34994  -0.33850
 Alpha  occ. eigenvalues --   -0.33405  -0.33056  -0.32830  -0.32460  -0.32175
 Alpha  occ. eigenvalues --   -0.31143  -0.30980  -0.30802  -0.29881  -0.28725
 Alpha  occ. eigenvalues --   -0.27194  -0.26766  -0.26424  -0.25061  -0.24556
 Alpha  occ. eigenvalues --   -0.23365  -0.23063  -0.22638  -0.22494  -0.18580
 Alpha virt. eigenvalues --   -0.13668  -0.08383  -0.03474  -0.02796  -0.02125
 Alpha virt. eigenvalues --   -0.00507   0.01267   0.01636   0.02685   0.02979
 Alpha virt. eigenvalues --    0.03358   0.03853   0.04108   0.04283   0.04736

 Mulliken charges:
               1
     1  O   -0.272651
     2  O   -0.187125
     3  O   -0.316062
     4  O   -0.225391
     5  O   -0.270011
     6  O   -0.195904
     7  N   -0.042904
     8  N   -0.294689
     9  N   -0.155654
    10  N   -0.401826
    11  C    0.029606
    12  C    0.168036
    13  C   -0.053707
    14  C   -0.088144
    15  C   -0.111429
    16  C   -0.029301
    17  C   -0.135360
    18  C    0.035929
    19  C   -0.125811
    20  C   -0.070748
    21  C    0.156725
    22  C    0.175081
    23  C   -0.089069
    24  C    0.018308
    25  C    0.175692
    26  C   -0.096948
    27  C    0.128190
    28  C    0.134036
    29  C    0.148222
    30  C    0.045731
    31  C   -0.021976
    32  C   -0.000990
    33  C   -0.053678
    34  C    0.115519
    35  C    0.113704
    36  C   -0.101681
    37  C    0.181295
    38  C    0.169594
    39  C   -0.151438
    40  C    0.202811
    41  C   -0.066312
    42  C    0.003084
    43  C   -0.028691
    44  H    0.030064
    45  H   -0.060275
    46  H    0.004592
    47  H    0.127332
    48  H    0.204953
    49  H    0.052122
    50  H   -0.013363
    51  H   -0.033064
    52  H    0.027317
    53  H    0.013090
    54  H    0.060849
    55  H    0.011229
    56  H    0.019388
    57  H   -0.005133
    58  H   -0.005086
    59  H    0.044852
    60  H    0.206840
    61  H    0.041554
    62  H   -0.033671
    63  H   -0.005516
    64  H    0.032262
    65  H    0.061344
    66  H    0.063543
    67  H    0.059242
    68  H    0.063340
    69  H   -0.075684
    70  H    0.032574
    71  H    0.055872
    72  H    0.201813
    73  H   -0.009458
    74  H    0.030081
    75  H    0.038292
    76  H    0.065469
    77  H    0.220094
    78  H    0.065301
    79  H   -0.006228
 Sum of Mulliken charges =  -0.00000

 Dipole moment (field-independent basis, Debye):
    X=              2.2016    Y=              4.1384    Z=             -1.3630  Tot=              4.8817
 Quadrupole moment (field-independent basis, Debye-Ang):
   XX=           -234.7292   YY=           -231.3408   ZZ=           -278.5123
   XY=             -1.9465   XZ=            -15.7368   YZ=            -15.8578

 Normal termination of Gaussian 16 at Wed Jul 24 19:15:30 2019.
