 Gaussian 16, Revision A.03,
 Gaussian 16:  ES64L-G16RevA.03 25-Dec-2016

 --------------------------
 # td=(NStates=1) B3LYP/SVP
 --------------------------

 --
 TD
 --
 Symbolic Z-matrix:
 Charge =  0 Multiplicity = 1

                         Standard orientation:
 ---------------------------------------------------------------------
 Center     Atomic      Atomic             Coordinates (Angstroms)
 Number     Number       Type             X           Y           Z
 ---------------------------------------------------------------------
      1          8           0       -3.055508   -1.944696   -2.531802
      2          8           0        2.649172    3.940328    2.645206
      3          8           0        3.530015    2.632558    4.146826
      4          8           0        7.742937   -1.493883   -0.605668
      5          8           0        6.758182   -3.246576   -1.581072
      6          8           0       -2.647046    1.745122    1.111174
      7          7           0       -0.160596   -2.237788    1.517912
      8          7           0       -2.421102   -1.529672   -0.362118
      9          7           0        1.157585   -0.078580   -0.653114
     10          7           0       -0.947133    1.471765   -0.397528
     11          6           0       -3.191547   -1.305413    0.872918
     12          6           0       -2.586975   -2.119783    2.045202
     13          6           0       -1.177451   -1.671525    2.222585
     14          6           0       -0.570077   -0.537088    2.981929
     15          6           0        0.809506   -0.527025    2.712080
     16          6           0        1.004227   -1.524035    1.635127
     17          6           0       -4.578199   -1.769023    0.578292
     18          6           0        1.841279    0.314651    3.349896
     19          6           0       -4.648097   -2.308802   -0.648909
     20          6           0        2.149935   -1.716167    0.757462
     21          6           0        2.100414   -1.037407   -0.458004
     22          6           0       -3.286293   -1.862361   -1.383917
     23          6           0        2.979891   -1.048086   -1.528582
     24          6           0       -1.438377    0.329989    3.838312
     25          6           0       -5.722250   -1.726844    1.634662
     26          6           0        2.648192   -0.085931   -2.451662
     27          6           0        1.794590    1.616797    2.679651
     28          6           0        1.395297    0.541350   -1.840272
     29          6           0        4.202233   -1.953869   -1.615161
     30          6           0       -5.692324   -2.784518   -1.536892
     31          6           0        5.405148   -1.304168   -0.980703
     32          6           0        3.228179    0.374884   -3.773889
     33          6           0        0.488076    1.501857   -2.377593
     34          6           0        2.644301    2.759668    3.304694
     35          6           0       -0.641989    1.957916   -1.617225
     36          6           0       -6.860173   -3.471763   -1.217738
     37          6           0        6.659257   -2.103951   -1.141914
     38          6           0       -1.547011    3.028235   -2.044839
     39          6           0       -2.475078    3.101768   -0.927253
     40          6           0       -2.033725    2.032197    0.089489
     41          6           0       -1.504376    3.804779   -3.297915
     42          6           0       -3.572197    4.100176   -0.697087
     43          6           0       -2.003666    5.062100   -3.597532
     44          1           0       -3.393386   -0.361194    1.132157
     45          1           0       -2.598529   -3.148923    1.789113
     46          1           0       -3.057378   -2.036320    3.104877
     47          1           0       -0.421518   -2.793366    0.709342
     48          1           0       -1.821498   -0.770198   -0.578871
     49          1           0        1.569739    0.569082    4.417679
     50          1           0        2.816711   -0.163882    3.413858
     51          1           0        2.821895   -2.533299    0.961730
     52          1           0       -1.923595   -0.506598    4.430379
     53          1           0       -0.856477    0.886465    4.473403
     54          1           0       -2.071669    0.986021    3.265110
     55          1           0       -5.511635   -0.929062    2.455617
     56          1           0       -5.746024   -2.735119    2.154596
     57          1           0       -6.606365   -1.666318    1.134041
     58          1           0        2.022240    1.695221    1.598404
     59          1           0        0.730754    2.113350    2.609824
     60          1           0        0.440818    0.393490   -0.040788
     61          1           0        4.525984   -2.167012   -2.609121
     62          1           0        4.128989   -2.824175   -1.206752
     63          1           0       -5.533771   -2.932754   -2.541962
     64          1           0        5.307675   -0.927352   -0.114519
     65          1           0        5.741777   -0.265927   -1.321229
     66          1           0        4.075877   -0.270126   -3.865584
     67          1           0        3.389643    1.387008   -3.586765
     68          1           0        2.390504    0.111429   -4.553624
     69          1           0        0.720182    1.835145   -3.408401
     70          1           0       -7.110899   -3.761229   -0.178895
     71          1           0       -7.410438   -3.770742   -2.151987
     72          1           0        3.365657    4.581569    2.949215
     73          1           0       -0.743976    3.392821   -4.151176
     74          1           0       -4.142731    4.300209   -1.803155
     75          1           0       -4.195723    3.466096    0.246947
     76          1           0       -3.343474    5.032725   -0.240563
     77          1           0        8.494644   -2.025053   -0.585619
     78          1           0       -1.706369    5.509422   -4.768923
     79          1           0       -2.495259    5.874048   -2.743004
 ---------------------------------------------------------------------

 SCF Done:  E(RB3LYP) =  -1947.82872115     A.U. after   17 cycles

 Excitation energies and oscillator strengths:

 Excited State   1:      Singlet-A      0.6780 eV 1828.80 nm  f=0.0006  <S**2>=0.000
     155 ->156         0.70301
 This state for optimization and/or second-order correction.
 Total Energy, E(TD-HF/TD-DFT) =  -1947.80380678
 Copying the excited state density for this state as the 1-particle RhoCI density.

 The electronic state is 1-A.
 Alpha  occ. eigenvalues --  -19.18649 -19.16915 -19.13612 -19.12053 -19.11067
 Alpha  occ. eigenvalues --  -19.09997 -14.37645 -14.37100 -14.33551 -14.30657
 Alpha  occ. eigenvalues --  -10.33515 -10.31208 -10.28115 -10.27332 -10.27100
 Alpha  occ. eigenvalues --  -10.26090 -10.25381 -10.23945 -10.23503 -10.23199
 Alpha  occ. eigenvalues --  -10.22728 -10.22663 -10.22380 -10.22106 -10.21939
 Alpha  occ. eigenvalues --  -10.21934 -10.21746 -10.21368 -10.21289 -10.21129
 Alpha  occ. eigenvalues --  -10.20834 -10.20776 -10.20213 -10.19978 -10.19902
 Alpha  occ. eigenvalues --  -10.19890 -10.19292 -10.18949 -10.18367 -10.18291
 Alpha  occ. eigenvalues --  -10.17919 -10.17178 -10.16375  -1.10789  -1.07904
 Alpha  occ. eigenvalues --   -1.03946  -1.03210  -1.01031  -1.00904  -0.97515
 Alpha  occ. eigenvalues --   -0.96641  -0.94591  -0.93176  -0.85302  -0.82475
 Alpha  occ. eigenvalues --   -0.81337  -0.80861  -0.80556  -0.80089  -0.78284
 Alpha  occ. eigenvalues --   -0.76632  -0.75912  -0.75164  -0.74310  -0.73844
 Alpha  occ. eigenvalues --   -0.71312  -0.70659  -0.69825  -0.69405  -0.67515
 Alpha  occ. eigenvalues --   -0.66649  -0.66016  -0.63636  -0.63126  -0.60412
 Alpha  occ. eigenvalues --   -0.59534  -0.59216  -0.59100  -0.58915  -0.57817
 Alpha  occ. eigenvalues --   -0.55906  -0.55849  -0.54515  -0.53274  -0.53031
 Alpha  occ. eigenvalues --   -0.52333  -0.52060  -0.51563  -0.50792  -0.49815
 Alpha  occ. eigenvalues --   -0.49152  -0.48693  -0.48475  -0.48413  -0.48006
 Alpha  occ. eigenvalues --   -0.47222  -0.47048  -0.46540  -0.46018  -0.45513
 Alpha  occ. eigenvalues --   -0.45391  -0.45133  -0.44535  -0.44203  -0.44056
 Alpha  occ. eigenvalues --   -0.43600  -0.43514  -0.43384  -0.42807  -0.42563
 Alpha  occ. eigenvalues --   -0.42315  -0.42030  -0.41907  -0.41255  -0.40943
 Alpha  occ. eigenvalues --   -0.40893  -0.40494  -0.40381  -0.40064  -0.39981
 Alpha  occ. eigenvalues --   -0.39834  -0.39368  -0.39253  -0.38929  -0.38367
 Alpha  occ. eigenvalues --   -0.37787  -0.37363  -0.37307  -0.36431  -0.36370
 Alpha  occ. eigenvalues --   -0.36043  -0.35898  -0.35738  -0.35134  -0.34811
 Alpha  occ. eigenvalues --   -0.33592  -0.33331  -0.33259  -0.32322  -0.31297
 Alpha  occ. eigenvalues --   -0.30638  -0.30451  -0.29482  -0.29205  -0.28998
 Alpha  occ. eigenvalues --   -0.27852  -0.27237  -0.26451  -0.25922  -0.24562
 Alpha  occ. eigenvalues --   -0.22983  -0.22939  -0.22619  -0.22145  -0.18037
 Alpha virt. eigenvalues --   -0.12905  -0.08039  -0.03823  -0.02845  -0.01335
 Alpha virt. eigenvalues --    0.00065   0.01565   0.02345   0.02781   0.02800
 Alpha virt. eigenvalues --    0.03460   0.04092   0.04636   0.04948   0.05068

 Mulliken charges:
               1
     1  O   -0.171293
     2  O   -0.221060
     3  O   -0.257564
     4  O   -0.160782
     5  O   -0.240736
     6  O   -0.218790
     7  N   -0.005036
     8  N   -0.184441
     9  N   -0.069806
    10  N   -0.266812
    11  C    0.177810
    12  C    0.232954
    13  C   -0.173934
    14  C   -0.157140
    15  C   -0.119788
    16  C   -0.059850
    17  C   -0.232559
    18  C    0.201984
    19  C   -0.053306
    20  C   -0.087744
    21  C    0.120371
    22  C    0.100670
    23  C   -0.098776
    24  C    0.152396
    25  C    0.102925
    26  C   -0.172513
    27  C   -0.074754
    28  C    0.033194
    29  C    0.282928
    30  C   -0.002829
    31  C    0.046233
    32  C    0.159769
    33  C   -0.092584
    34  C    0.138220
    35  C    0.118708
    36  C   -0.064037
    37  C    0.136322
    38  C    0.052384
    39  C   -0.185419
    40  C    0.164697
    41  C   -0.042546
    42  C   -0.050635
    43  C   -0.146943
    44  H   -0.011287
    45  H   -0.041300
    46  H    0.013018
    47  H    0.114208
    48  H    0.124606
    49  H    0.012850
    50  H    0.004011
    51  H    0.005135
    52  H    0.016139
    53  H   -0.043673
    54  H    0.046085
    55  H    0.039496
    56  H    0.035411
    57  H    0.006555
    58  H    0.027092
    59  H    0.054785
    60  H    0.209007
    61  H   -0.001313
    62  H   -0.051718
    63  H   -0.017867
    64  H   -0.048550
    65  H    0.020445
    66  H    0.016494
    67  H    0.034367
    68  H    0.068363
    69  H   -0.013998
    70  H    0.019701
    71  H    0.033130
    72  H    0.203882
    73  H    0.038451
    74  H    0.066185
    75  H    0.061441
    76  H    0.047129
    77  H    0.160435
    78  H    0.064048
    79  H    0.077349
 Sum of Mulliken charges =  -0.00000

 Dipole moment (field-independent basis, Debye):
    X=              3.4844    Y=              2.2264    Z=             -2.1155  Tot=              4.6447
 Quadrupole moment (field-independent basis, Debye-Ang):
   XX=           -241.1723   YY=           -245.5680   ZZ=           -262.7741
   XY=              3.6471   XZ=            -21.3657   YZ=            -18.9792

 Normal termination of Gaussian 16 at Tue Jul 30 23:59:32 2019.
