 Gaussian 16, Revision A.03,
 Gaussian 16:  ES64L-G16RevA.03 25-Dec-2016

 --------------------------
 # td=(NStates=1) B3LYP/SVP
 --------------------------

 --
 TD
 --
 Symbolic Z-matrix:
 Charge =  0 Multiplicity = 1

                         Standard orientation:
 ---------------------------------------------------------------------
 Center     Atomic      Atomic             Coordinates (Angstroms)
 Number     Number       Type             X           Y           Z
 ---------------------------------------------------------------------
      1          8           0       -3.438766   -1.267522   -3.044722
      2          8           0        3.386375    2.705517    2.997487
      3          8           0        3.839904    0.917980    4.288825
      4          8           0        7.669122   -1.526075   -0.753695
      5          8           0        6.543619   -2.976809   -2.150851
      6          8           0       -2.718984    1.584208    1.667690
      7          7           0       -0.398028   -2.505519    0.717131
      8          7           0       -2.750984   -1.165182   -0.763710
      9          7           0        1.201769    0.056512   -0.773973
     10          7           0       -0.990004    1.448053   -0.064178
     11          6           0       -3.418870   -1.301069    0.529180
     12          6           0       -2.744316   -2.515382    1.462582
     13          6           0       -1.260885   -2.208583    1.642810
     14          6           0       -0.624340   -1.476352    2.699070
     15          6           0        0.713470   -1.436177    2.328116
     16          6           0        0.897405   -2.088431    1.073330
     17          6           0       -4.757207   -1.804029    0.079453
     18          6           0        1.904047   -0.736451    3.057857
     19          6           0       -4.896046   -1.877970   -1.270449
     20          6           0        1.998361   -1.997493    0.034245
     21          6           0        2.032274   -0.892292   -0.741558
     22          6           0       -3.628354   -1.456284   -1.825992
     23          6           0        3.009245   -0.542913   -1.804971
     24          6           0       -1.294249   -0.814405    3.902559
     25          6           0       -5.804756   -1.949802    1.132280
     26          6           0        2.537293    0.745470   -2.346001
     27          6           0        2.037942    0.711555    2.595158
     28          6           0        1.330027    1.070505   -1.612851
     29          6           0        4.212174   -1.355064   -2.146362
     30          6           0       -5.953678   -2.164422   -2.103753
     31          6           0        5.413251   -0.959435   -1.189312
     32          6           0        3.094322    1.399205   -3.552563
     33          6           0        0.557460    2.178839   -1.810242
     34          6           0        3.088497    1.464233    3.420099
     35          6           0       -0.613733    2.428076   -1.039249
     36          6           0       -6.951087   -3.016908   -1.788159
     37          6           0        6.534348   -1.947904   -1.430979
     38          6           0       -1.361918    3.599931   -0.921238
     39          6           0       -2.238415    3.451368    0.085684
     40          6           0       -1.966750    2.077760    0.651455
     41          6           0       -1.181852    4.847465   -1.681396
     42          6           0       -3.175132    4.402333    0.694516
     43          6           0       -1.727232    6.050338   -1.662797
     44          1           0       -3.394833   -0.481156    1.084987
     45          1           0       -2.712860   -3.404335    0.846217
     46          1           0       -3.424339   -2.481187    2.288879
     47          1           0       -0.324752   -3.008326   -0.176195
     48          1           0       -1.978908   -0.351466   -1.062546
     49          1           0        1.882673   -0.717365    4.212013
     50          1           0        2.778799   -1.080560    2.877840
     51          1           0        2.799714   -2.755295    0.047005
     52          1           0       -1.946598   -1.645244    4.493204
     53          1           0       -0.555695   -0.583251    4.587421
     54          1           0       -2.121202    0.003303    3.618134
     55          1           0       -5.787161   -1.414005    1.996641
     56          1           0       -6.215758   -3.254209    1.251297
     57          1           0       -6.777875   -1.480464    0.924042
     58          1           0        2.402832    0.683116    1.431531
     59          1           0        1.158124    1.640710    2.522247
     60          1           0        0.523618    0.168520   -0.064551
     61          1           0        4.656971   -1.105653   -3.267830
     62          1           0        3.927506   -2.345922   -1.903190
     63          1           0       -6.068763   -1.476765   -2.978539
     64          1           0        5.120670   -1.001216   -0.199639
     65          1           0        5.908386    0.037361   -1.559135
     66          1           0        3.838112    0.946107   -4.038380
     67          1           0        3.514984    2.505870   -3.396483
     68          1           0        2.352108    1.871958   -4.311139
     69          1           0        1.049964    3.191914   -2.356820
     70          1           0       -7.276437   -3.609547   -0.868844
     71          1           0       -7.581315   -3.190401   -2.471052
     72          1           0        4.207649    2.921991    3.464609
     73          1           0       -0.311659    4.752338   -2.382809
     74          1           0       -4.036186    4.807198    0.191733
     75          1           0       -3.478563    3.812206    1.737388
     76          1           0       -2.474678    5.305988    1.258858
     77          1           0        8.274210   -2.119812   -0.887613
     78          1           0       -1.520714    6.842595   -2.383632
     79          1           0       -2.665234    6.365293   -1.133529
 ---------------------------------------------------------------------

 SCF Done:  E(RB3LYP) =  -1947.70653368     A.U. after   22 cycles

 Excitation energies and oscillator strengths:

 Excited State   1:      Singlet-A      0.5980 eV 2073.26 nm  f=0.0004  <S**2>=0.000
     155 ->156         0.70392
 This state for optimization and/or second-order correction.
 Total Energy, E(TD-HF/TD-DFT) =  -1947.68455701
 Copying the excited state density for this state as the 1-particle RhoCI density.

 The electronic state is 1-A.
 Alpha  occ. eigenvalues --  -19.18913 -19.18830 -19.14965 -19.12199 -19.11929
 Alpha  occ. eigenvalues --  -19.07553 -14.38515 -14.37576 -14.33006 -14.31875
 Alpha  occ. eigenvalues --  -10.34510 -10.32375 -10.28516 -10.27615 -10.26449
 Alpha  occ. eigenvalues --  -10.25969 -10.25599 -10.24119 -10.23830 -10.23805
 Alpha  occ. eigenvalues --  -10.23728 -10.23666 -10.23480 -10.23194 -10.22190
 Alpha  occ. eigenvalues --  -10.21947 -10.21762 -10.21675 -10.21306 -10.21092
 Alpha  occ. eigenvalues --  -10.20963 -10.20771 -10.20568 -10.20179 -10.20101
 Alpha  occ. eigenvalues --  -10.19620 -10.18948 -10.18510 -10.18384 -10.18188
 Alpha  occ. eigenvalues --  -10.17198 -10.17029 -10.16938  -1.11366  -1.09648
 Alpha  occ. eigenvalues --   -1.05041  -1.01336  -0.98573  -0.98087  -0.97907
 Alpha  occ. eigenvalues --   -0.97817  -0.92367  -0.90513  -0.84940  -0.84112
 Alpha  occ. eigenvalues --   -0.82196  -0.80547  -0.80321  -0.79781  -0.78840
 Alpha  occ. eigenvalues --   -0.76948  -0.76153  -0.76059  -0.74781  -0.73698
 Alpha  occ. eigenvalues --   -0.72529  -0.71034  -0.70459  -0.69368  -0.68368
 Alpha  occ. eigenvalues --   -0.67260  -0.66554  -0.63761  -0.62846  -0.62128
 Alpha  occ. eigenvalues --   -0.60946  -0.60463  -0.59475  -0.58273  -0.57533
 Alpha  occ. eigenvalues --   -0.56487  -0.55779  -0.55390  -0.54285  -0.53523
 Alpha  occ. eigenvalues --   -0.52751  -0.51965  -0.51142  -0.50963  -0.50072
 Alpha  occ. eigenvalues --   -0.49597  -0.49260  -0.49020  -0.48767  -0.48230
 Alpha  occ. eigenvalues --   -0.47569  -0.47256  -0.46714  -0.46359  -0.45940
 Alpha  occ. eigenvalues --   -0.45884  -0.45524  -0.44922  -0.44687  -0.44083
 Alpha  occ. eigenvalues --   -0.43838  -0.43033  -0.42768  -0.42428  -0.42238
 Alpha  occ. eigenvalues --   -0.41791  -0.41636  -0.41104  -0.41009  -0.40762
 Alpha  occ. eigenvalues --   -0.40442  -0.40107  -0.39716  -0.39608  -0.39424
 Alpha  occ. eigenvalues --   -0.39236  -0.39065  -0.38918  -0.38523  -0.37986
 Alpha  occ. eigenvalues --   -0.37421  -0.37271  -0.36956  -0.36743  -0.35864
 Alpha  occ. eigenvalues --   -0.35544  -0.35445  -0.34892  -0.34335  -0.34257
 Alpha  occ. eigenvalues --   -0.33854  -0.33548  -0.33211  -0.32809  -0.32332
 Alpha  occ. eigenvalues --   -0.31392  -0.30011  -0.29460  -0.29168  -0.28578
 Alpha  occ. eigenvalues --   -0.27494  -0.26542  -0.25572  -0.24668  -0.24040
 Alpha  occ. eigenvalues --   -0.23740  -0.23114  -0.22828  -0.22141  -0.18991
 Alpha virt. eigenvalues --   -0.14299  -0.08686  -0.04492  -0.02986  -0.02378
 Alpha virt. eigenvalues --   -0.01903   0.01170   0.01480   0.01636   0.02456
 Alpha virt. eigenvalues --    0.03341   0.04051   0.04146   0.04418   0.04662

 Mulliken charges:
               1
     1  O   -0.272942
     2  O   -0.167070
     3  O   -0.300123
     4  O   -0.131202
     5  O   -0.252205
     6  O   -0.327894
     7  N   -0.005155
     8  N   -0.293837
     9  N    0.125814
    10  N   -0.322625
    11  C    0.143105
    12  C    0.243994
    13  C   -0.104059
    14  C   -0.111842
    15  C   -0.093304
    16  C   -0.106415
    17  C   -0.129988
    18  C    0.222670
    19  C    0.046903
    20  C   -0.141507
    21  C    0.081350
    22  C    0.126863
    23  C   -0.110526
    24  C    0.067823
    25  C    0.040749
    26  C   -0.095137
    27  C   -0.156144
    28  C    0.121812
    29  C    0.081915
    30  C   -0.063797
    31  C    0.008695
    32  C    0.095509
    33  C   -0.172845
    34  C    0.165189
    35  C    0.105041
    36  C    0.028579
    37  C    0.148884
    38  C    0.084269
    39  C   -0.151247
    40  C    0.218196
    41  C    0.016498
    42  C   -0.033526
    43  C   -0.061240
    44  H   -0.019731
    45  H   -0.031939
    46  H   -0.002630
    47  H    0.130171
    48  H    0.183493
    49  H    0.034602
    50  H   -0.074676
    51  H    0.025514
    52  H    0.005674
    53  H   -0.016426
    54  H    0.073424
    55  H   -0.006528
    56  H    0.046671
    57  H    0.013194
    58  H    0.062378
    59  H    0.078008
    60  H    0.149536
    61  H    0.058474
    62  H    0.017626
    63  H    0.030665
    64  H    0.031177
    65  H    0.071432
    66  H   -0.019334
    67  H    0.016565
    68  H    0.035257
    69  H    0.059772
    70  H    0.020556
    71  H   -0.048135
    72  H    0.179628
    73  H   -0.014033
    74  H    0.058108
    75  H    0.062810
    76  H    0.056257
    77  H    0.116527
    78  H    0.024533
    79  H    0.022152
 Sum of Mulliken charges =  -0.00000

 Dipole moment (field-independent basis, Debye):
    X=              4.1393    Y=              4.0093    Z=             -1.3819  Tot=              5.9260
 Quadrupole moment (field-independent basis, Debye-Ang):
   XX=           -233.4706   YY=           -236.0876   ZZ=           -277.1048
   XY=              4.5987   XZ=            -22.6845   YZ=            -14.7962

 Normal termination of Gaussian 16 at Mon Jul 29 22:49:39 2019.
