 Gaussian 16, Revision A.03,
 Gaussian 16:  ES64L-G16RevA.03 25-Dec-2016

 --------------------------
 # td=(NStates=1) B3LYP/SVP
 --------------------------

 --
 TD
 --
 Symbolic Z-matrix:
 Charge =  0 Multiplicity = 1

                         Standard orientation:
 ---------------------------------------------------------------------
 Center     Atomic      Atomic             Coordinates (Angstroms)
 Number     Number       Type             X           Y           Z
 ---------------------------------------------------------------------
      1          8           0       -3.182223   -1.701721   -2.681318
      2          8           0        3.158754    3.206377    2.922866
      3          8           0        3.834324    1.586459    4.298936
      4          8           0        7.675889   -1.387487   -0.720175
      5          8           0        6.726256   -3.012926   -1.860802
      6          8           0       -2.643526    1.701169    1.325875
      7          7           0       -0.367891   -2.284824    1.115599
      8          7           0       -2.640074   -1.219405   -0.442008
      9          7           0        1.052941   -0.142549   -0.849699
     10          7           0       -1.074587    1.285536   -0.363643
     11          6           0       -3.368536   -1.204365    0.674156
     12          6           0       -2.685383   -1.987173    1.804056
     13          6           0       -1.261377   -1.670088    1.921046
     14          6           0       -0.571059   -0.923799    2.905629
     15          6           0        0.780114   -1.010419    2.563796
     16          6           0        0.952872   -1.802358    1.447817
     17          6           0       -4.783463   -1.823485    0.307875
     18          6           0        1.831694   -0.309852    3.227736
     19          6           0       -4.734761   -2.117091   -0.951386
     20          6           0        2.032568   -1.952510    0.400213
     21          6           0        2.071254   -1.048630   -0.640626
     22          6           0       -3.509741   -1.691576   -1.495500
     23          6           0        2.931371   -0.811515   -1.781273
     24          6           0       -1.308868   -0.124244    3.954616
     25          6           0       -5.759403   -1.994790    1.342363
     26          6           0        2.570766    0.318483   -2.526616
     27          6           0        1.863836    1.179481    2.886733
     28          6           0        1.256298    0.693562   -1.850437
     29          6           0        4.200925   -1.741611   -1.926801
     30          6           0       -5.763097   -2.554653   -1.922936
     31          6           0        5.403437   -1.037004   -1.222902
     32          6           0        3.197867    0.869703   -3.682130
     33          6           0        0.410481    1.772897   -2.163681
     34          6           0        3.146507    1.943555    3.428151
     35          6           0       -0.688668    2.102529   -1.462513
     36          6           0       -6.821584   -3.306559   -1.587081
     37          6           0        6.678794   -1.976978   -1.349788
     38          6           0       -1.474805    3.368823   -1.501316
     39          6           0       -2.335524    3.338836   -0.421784
     40          6           0       -2.042228    2.161464    0.431276
     41          6           0       -1.378369    4.319981   -2.564685
     42          6           0       -3.335004    4.421387    0.054660
     43          6           0       -1.771091    5.702890   -2.546449
     44          1           0       -3.532291   -0.205274    1.004257
     45          1           0       -3.030012   -3.002879    1.598206
     46          1           0       -2.995683   -1.888573    2.786028
     47          1           0       -0.545432   -2.752660    0.059915
     48          1           0       -1.992991   -0.314195   -0.591446
     49          1           0        1.892525   -0.326669    4.422646
     50          1           0        2.801541   -0.778623    2.972185
     51          1           0        2.825629   -2.867701    0.491653
     52          1           0       -1.818596   -0.986786    4.637305
     53          1           0       -0.546666    0.510504    4.601378
     54          1           0       -1.985125    0.466107    3.392801
     55          1           0       -5.915867   -1.117897    1.942608
     56          1           0       -5.779453   -2.951416    2.115788
     57          1           0       -6.755180   -2.080551    0.824692
     58          1           0        1.871278    1.294555    1.827447
     59          1           0        1.009725    1.704364    3.049252
     60          1           0        0.328592    0.180014   -0.273253
     61          1           0        4.463161   -2.053702   -2.926180
     62          1           0        4.055487   -2.608378   -1.293820
     63          1           0       -5.552305   -2.299408   -2.858952
     64          1           0        5.214173   -1.015959   -0.026392
     65          1           0        5.617329   -0.126451   -1.611979
     66          1           0        3.997339   -0.017587   -4.092964
     67          1           0        3.742022    1.987391   -3.552513
     68          1           0        2.421781    0.885488   -4.465557
     69          1           0        0.700723    2.537330   -3.025792
     70          1           0       -7.000388   -3.829580   -0.519293
     71          1           0       -7.775465   -3.634934   -2.139510
     72          1           0        3.630808    3.746525    3.430360
     73          1           0       -1.036395    4.047795   -3.601899
     74          1           0       -4.140633    4.599036   -0.680489
     75          1           0       -3.669806    4.031495    1.109039
     76          1           0       -2.673639    5.280626    0.482767
     77          1           0        8.457860   -2.150000   -0.745301
     78          1           0       -1.859943    6.174428   -3.645342
     79          1           0       -2.187572    6.327926   -1.715752
 ---------------------------------------------------------------------

 SCF Done:  E(RB3LYP) =  -1947.79805261     A.U. after   18 cycles

 Excitation energies and oscillator strengths:

 Excited State   1:      Singlet-A      0.9785 eV 1267.11 nm  f=0.0003  <S**2>=0.000
     155 ->156         0.70186
 This state for optimization and/or second-order correction.
 Total Energy, E(TD-HF/TD-DFT) =  -1947.76209418
 Copying the excited state density for this state as the 1-particle RhoCI density.

 The electronic state is 1-A.
 Alpha  occ. eigenvalues --  -19.19774 -19.16695 -19.13990 -19.13427 -19.12981
 Alpha  occ. eigenvalues --  -19.07610 -14.37270 -14.36188 -14.30556 -14.30303
 Alpha  occ. eigenvalues --  -10.32331 -10.31618 -10.28690 -10.26927 -10.25763
 Alpha  occ. eigenvalues --  -10.25389 -10.24353 -10.24345 -10.23880 -10.23138
 Alpha  occ. eigenvalues --  -10.23032 -10.22989 -10.22914 -10.22295 -10.21953
 Alpha  occ. eigenvalues --  -10.21891 -10.21589 -10.21444 -10.21028 -10.20291
 Alpha  occ. eigenvalues --  -10.19701 -10.19535 -10.19301 -10.19296 -10.19225
 Alpha  occ. eigenvalues --  -10.18662 -10.18555 -10.18439 -10.18283 -10.17385
 Alpha  occ. eigenvalues --  -10.16679 -10.16467 -10.15884  -1.12197  -1.10896
 Alpha  occ. eigenvalues --   -1.06320  -1.03072  -1.02736  -1.01345  -0.99608
 Alpha  occ. eigenvalues --   -0.94560  -0.92268  -0.90633  -0.83556  -0.82308
 Alpha  occ. eigenvalues --   -0.81415  -0.80522  -0.80150  -0.78240  -0.77626
 Alpha  occ. eigenvalues --   -0.76277  -0.75183  -0.74772  -0.74075  -0.72816
 Alpha  occ. eigenvalues --   -0.70988  -0.69872  -0.69717  -0.67950  -0.66948
 Alpha  occ. eigenvalues --   -0.65912  -0.64547  -0.62456  -0.61152  -0.60388
 Alpha  occ. eigenvalues --   -0.59503  -0.59364  -0.58178  -0.57552  -0.56407
 Alpha  occ. eigenvalues --   -0.55792  -0.55432  -0.53911  -0.52565  -0.52007
 Alpha  occ. eigenvalues --   -0.51837  -0.51173  -0.50710  -0.50187  -0.49825
 Alpha  occ. eigenvalues --   -0.49173  -0.48763  -0.48406  -0.47923  -0.47833
 Alpha  occ. eigenvalues --   -0.47256  -0.47030  -0.46595  -0.46140  -0.45837
 Alpha  occ. eigenvalues --   -0.45486  -0.45453  -0.44749  -0.44507  -0.43803
 Alpha  occ. eigenvalues --   -0.43204  -0.43117  -0.42664  -0.42489  -0.42310
 Alpha  occ. eigenvalues --   -0.42011  -0.41312  -0.40956  -0.40932  -0.40719
 Alpha  occ. eigenvalues --   -0.40331  -0.40193  -0.39887  -0.39544  -0.39276
 Alpha  occ. eigenvalues --   -0.39086  -0.38457  -0.38267  -0.38049  -0.37789
 Alpha  occ. eigenvalues --   -0.37477  -0.37233  -0.36910  -0.36802  -0.36458
 Alpha  occ. eigenvalues --   -0.35777  -0.35627  -0.35379  -0.34976  -0.34144
 Alpha  occ. eigenvalues --   -0.34124  -0.33141  -0.32847  -0.31936  -0.31590
 Alpha  occ. eigenvalues --   -0.30939  -0.29718  -0.29618  -0.29143  -0.28512
 Alpha  occ. eigenvalues --   -0.28251  -0.26877  -0.25587  -0.24086  -0.23761
 Alpha  occ. eigenvalues --   -0.23569  -0.22858  -0.22363  -0.21509  -0.18650
 Alpha virt. eigenvalues --   -0.12500  -0.08376  -0.03697  -0.02918   0.00627
 Alpha virt. eigenvalues --    0.00995   0.01523   0.01747   0.01970   0.02161
 Alpha virt. eigenvalues --    0.02582   0.04077   0.04096   0.04414   0.05350

 Mulliken charges:
               1
     1  O   -0.247789
     2  O   -0.146724
     3  O   -0.167411
     4  O   -0.213657
     5  O   -0.171603
     6  O   -0.151740
     7  N   -0.150887
     8  N   -0.234909
     9  N    0.028992
    10  N   -0.465986
    11  C    0.032946
    12  C    0.264014
    13  C   -0.092149
    14  C   -0.122191
    15  C   -0.048695
    16  C   -0.019674
    17  C   -0.150312
    18  C    0.053304
    19  C   -0.014835
    20  C   -0.154014
    21  C    0.152199
    22  C    0.120529
    23  C   -0.088170
    24  C    0.050317
    25  C    0.044690
    26  C   -0.076830
    27  C    0.040241
    28  C    0.060998
    29  C    0.125599
    30  C    0.100333
    31  C   -0.044365
    32  C   -0.031223
    33  C   -0.101275
    34  C    0.114930
    35  C    0.116621
    36  C   -0.102025
    37  C    0.108736
    38  C    0.124254
    39  C   -0.209317
    40  C    0.202081
    41  C   -0.094829
    42  C    0.047550
    43  C   -0.081009
    44  H    0.007587
    45  H   -0.037181
    46  H   -0.057862
    47  H    0.185708
    48  H    0.195107
    49  H    0.022421
    50  H   -0.014952
    51  H    0.062227
    52  H    0.036940
    53  H    0.023500
    54  H    0.041667
    55  H    0.011030
    56  H    0.058525
    57  H    0.011333
    58  H   -0.014325
    59  H   -0.005183
    60  H    0.137040
    61  H    0.026341
    62  H   -0.000610
    63  H   -0.043491
    64  H    0.066887
    65  H    0.010813
    66  H    0.050256
    67  H    0.076627
    68  H    0.047760
    69  H    0.008655
    70  H    0.032394
    71  H    0.034907
    72  H    0.122261
    73  H    0.032011
    74  H    0.060824
    75  H    0.033427
    76  H    0.048428
    77  H    0.220838
    78  H    0.052022
    79  H    0.049354
 Sum of Mulliken charges =  -0.00000

 Dipole moment (field-independent basis, Debye):
    X=              2.9277    Y=              4.2588    Z=             -1.3841  Tot=              5.3501
 Quadrupole moment (field-independent basis, Debye-Ang):
   XX=           -230.0559   YY=           -235.1726   ZZ=           -263.3876
   XY=             -2.9194   XZ=            -19.8367   YZ=            -13.5049

 Normal termination of Gaussian 16 at Thu Jul 25 12:28:44 2019.
