 Gaussian 09, Revision D.01,
 Gaussian 09:  ES64L-G09RevD.01 24-Apr-2013

 ---------------------------------------
 #n PBE1PBE/Gen Opt Freq=savenormalmodes
 ---------------------------------------

 ----------------------------
 zeaxanthin-s0-geom-freq-TZVP
 ----------------------------
 Symbolic Z-matrix:
 Charge =  0 Multiplicity = 1

 SCF Done:  E(RPBE1PBE) =  -1706.86697996     A.U. after   18 cycles
 SCF Done:  E(RPBE1PBE) =  -1706.86879693     A.U. after   14 cycles
 SCF Done:  E(RPBE1PBE) =  -1706.86887503     A.U. after   12 cycles
 SCF Done:  E(RPBE1PBE) =  -1706.86907764     A.U. after   16 cycles
 SCF Done:  E(RPBE1PBE) =  -1706.86912865     A.U. after   11 cycles
 SCF Done:  E(RPBE1PBE) =  -1706.86915368     A.U. after   12 cycles
 SCF Done:  E(RPBE1PBE) =  -1706.86915936     A.U. after   10 cycles
 SCF Done:  E(RPBE1PBE) =  -1706.86916102     A.U. after    9 cycles
 SCF Done:  E(RPBE1PBE) =  -1706.86916154     A.U. after    7 cycles
 SCF Done:  E(RPBE1PBE) =  -1706.86916172     A.U. after    9 cycles
 SCF Done:  E(RPBE1PBE) =  -1706.86916192     A.U. after    9 cycles
 SCF Done:  E(RPBE1PBE) =  -1706.86916209     A.U. after    8 cycles
 SCF Done:  E(RPBE1PBE) =  -1706.86916218     A.U. after   10 cycles
 Optimization completed.
    -- Stationary point found.

 The electronic state is 1-A.
 Alpha  occ. eigenvalues --  -19.20244 -19.20090 -10.26716 -10.26515 -10.24152
 Alpha  occ. eigenvalues --  -10.24026 -10.23876 -10.23841 -10.23663 -10.23598
 Alpha  occ. eigenvalues --  -10.23235 -10.22873 -10.22870 -10.22785 -10.22582
 Alpha  occ. eigenvalues --  -10.22555 -10.22525 -10.22513 -10.22496 -10.22474
 Alpha  occ. eigenvalues --  -10.22460 -10.22366 -10.22334 -10.22268 -10.22234
 Alpha  occ. eigenvalues --  -10.22083 -10.22059 -10.21988 -10.21862 -10.21851
 Alpha  occ. eigenvalues --  -10.21840 -10.21742 -10.21595 -10.21443 -10.21403
 Alpha  occ. eigenvalues --  -10.21278 -10.21132 -10.20985 -10.20958 -10.20805
 Alpha  occ. eigenvalues --  -10.20698 -10.20653  -1.05265  -1.05100  -0.88579
 Alpha  occ. eigenvalues --   -0.88386  -0.86993  -0.86450  -0.85461  -0.84851
 Alpha  occ. eigenvalues --   -0.82250  -0.81905  -0.81736  -0.80450  -0.79727
 Alpha  occ. eigenvalues --   -0.78136  -0.77025  -0.75100  -0.74649  -0.73131
 Alpha  occ. eigenvalues --   -0.71471  -0.71254  -0.70927  -0.70787  -0.70718
 Alpha  occ. eigenvalues --   -0.70442  -0.70264  -0.70124  -0.68988  -0.65663
 Alpha  occ. eigenvalues --   -0.63946  -0.62503  -0.60877  -0.59946  -0.59004
 Alpha  occ. eigenvalues --   -0.58650  -0.57624  -0.56764  -0.55597  -0.55170
 Alpha  occ. eigenvalues --   -0.54504  -0.54084  -0.53848  -0.52879  -0.51340
 Alpha  occ. eigenvalues --   -0.51040  -0.50580  -0.50179  -0.49908  -0.49069
 Alpha  occ. eigenvalues --   -0.48425  -0.48039  -0.47199  -0.47052  -0.45853
 Alpha  occ. eigenvalues --   -0.45663  -0.45438  -0.44936  -0.44247  -0.44021
 Alpha  occ. eigenvalues --   -0.43953  -0.43827  -0.43787  -0.43664  -0.43492
 Alpha  occ. eigenvalues --   -0.43367  -0.43338  -0.43232  -0.41664  -0.41563
 Alpha  occ. eigenvalues --   -0.41383  -0.41209  -0.40996  -0.40810  -0.40610
 Alpha  occ. eigenvalues --   -0.40209  -0.40188  -0.39712  -0.39538  -0.39121
 Alpha  occ. eigenvalues --   -0.38851  -0.38561  -0.37872  -0.37731  -0.37627
 Alpha  occ. eigenvalues --   -0.37533  -0.37442  -0.37375  -0.37331  -0.36677
 Alpha  occ. eigenvalues --   -0.36498  -0.36137  -0.35844  -0.35685  -0.35281
 Alpha  occ. eigenvalues --   -0.35231  -0.34921  -0.34778  -0.34706  -0.34528
 Alpha  occ. eigenvalues --   -0.34482  -0.33996  -0.32652  -0.32468  -0.32296
 Alpha  occ. eigenvalues --   -0.31957  -0.31011  -0.30139  -0.28714  -0.28190
 Alpha  occ. eigenvalues --   -0.28044  -0.26261  -0.24767  -0.23172  -0.20877
 Alpha  occ. eigenvalues --   -0.17949
 Alpha virt. eigenvalues --   -0.08665  -0.04904  -0.01960   0.01012   0.02832
 Alpha virt. eigenvalues --    0.03452   0.03570   0.04278   0.04332   0.04571
 Alpha virt. eigenvalues --    0.04908   0.05121   0.05426   0.05487   0.05766

 Mulliken charges:
               1
     1  O   -0.425308
     2  O   -0.424115
     3  C    0.055270
     4  C    0.127565
     5  C   -0.227128
     6  C   -0.233344
     7  C    0.078258
     8  C    0.068907
     9  C    0.128421
    10  C    0.084364
    11  C   -0.139395
    12  C   -0.148138
    13  C   -0.056950
    14  C   -0.041544
    15  C   -0.357648
    16  C   -0.402212
    17  C   -0.404613
    18  C   -0.408750
    19  C   -0.264564
    20  C   -0.292060
    21  C   -0.406865
    22  C   -0.420113
    23  C   -0.246679
    24  C   -0.227011
    25  C    0.142488
    26  C    0.185093
    27  C   -0.391239
    28  C   -0.399229
    29  C   -0.184519
    30  C   -0.183996
    31  C   -0.018440
    32  C   -0.040104
    33  C   -0.231084
    34  C   -0.216176
    35  C    0.149702
    36  C    0.141211
    37  C   -0.400295
    38  C   -0.400607
    39  C   -0.146118
    40  C   -0.135386
    41  C   -0.100615
    42  C   -0.112019
    43  H    0.100124
    44  H    0.100178
    45  H    0.100992
    46  H    0.102334
    47  H    0.067076
    48  H    0.063992
    49  H    0.103133
    50  H    0.113741
    51  H    0.108294
    52  H    0.117714
    53  H    0.121341
    54  H    0.129581
    55  H    0.122745
    56  H    0.124639
    57  H    0.120877
    58  H    0.122291
    59  H    0.119199
    60  H    0.137182
    61  H    0.118216
    62  H    0.126315
    63  H    0.121539
    64  H    0.131674
    65  H    0.118456
    66  H    0.130723
    67  H    0.162266
    68  H    0.128404
    69  H    0.124224
    70  H    0.128998
    71  H    0.157904
    72  H    0.130855
    73  H    0.298622
    74  H    0.298539
    75  H    0.126533
    76  H    0.113990
    77  H    0.129187
    78  H    0.120594
    79  H    0.136502
    80  H    0.134262
    81  H    0.138353
    82  H    0.129022
    83  H    0.107909
    84  H    0.090162
    85  H    0.103440
    86  H    0.098843
    87  H    0.092139
    88  H    0.092592
    89  H    0.137914
    90  H    0.129896
    91  H    0.138761
    92  H    0.137566
    93  H    0.138237
    94  H    0.130569
    95  H    0.093092
    96  H    0.093148
    97  H    0.079695
    98  H    0.080410
 Sum of Mulliken charges =   0.00000

 Dipole moment (field-independent basis, Debye):
    X=              0.3684    Y=             -1.4120    Z=              1.7082  Tot=              2.2467
 Quadrupole moment (field-independent basis, Debye-Ang):
   XX=           -273.6148   YY=           -244.7956   ZZ=           -262.9887
   XY=             11.8426   XZ=             -1.0546   YZ=              1.5097

 1\1\GINC-PADAWAN-42\FOpt\RPBE1PBE\Gen\C40H56O2\PADAWAN\28-Jun-2019\0\\
 #n PBE1PBE/Gen Opt Freq=savenormalmodes\\zeaxanthin-s0-geom-freq-TZVP\
 \0,1\O,14.696486646,-2.177621063,-0.4029749153\O,-14.7141345362,2.0418
 261431,0.6873770017\C,11.4357326478,-1.0679791129,1.195577301\C,-12.33
 92977257,-0.9224828808,0.7109498991\C,12.9286350288,-1.3825891548,1.06
 75500036\C,-13.6636351436,-0.1540595207,0.6531752115\C,13.311909284,-1
 .8895882539,-0.3032118109\C,-13.4799399377,1.3447063286,0.7141503728\C
 ,10.9476853341,-0.2663353531,-0.0152614094\C,-11.2849278868,-0.2648546

 Normal termination of Gaussian 09 at Fri Jun 28 05:24:32 2019.

 --------------------------------------------------------------------
 #N Geom=AllCheck Guess=TCheck SCRF=Check GenChk RPBE1PBE/ChkBas Freq
 --------------------------------------------------------------------

 Structure from the checkpoint file:  "zeaxanthin-s0-geom-freq-TZVP.chk"
 ----------------------------
 zeaxanthin-s0-geom-freq-TZVP
 ----------------------------
 Charge =  0 Multiplicity = 1

                         Standard orientation:
 ---------------------------------------------------------------------
 Center     Atomic      Atomic             Coordinates (Angstroms)
 Number     Number       Type             X           Y           Z
 ---------------------------------------------------------------------
      1          8           0       14.693878   -2.173568   -0.437546
      2          8           0      -14.716478    2.032147    0.711432
      3          6           0       11.432206   -1.093858    1.179524
      4          6           0      -12.342415   -0.932710    0.680017
      5          6           0       12.925124   -1.406361    1.046611
      6          6           0      -13.666513   -0.162964    0.635977
      7          6           0       13.309300   -1.887125   -0.333320
      8          6           0      -13.482482    1.334310    0.725774
      9          6           0       10.945274   -0.269047   -0.016108
     10          6           0      -11.287204   -0.258323   -0.202831
     11          6           0       12.998040   -0.808946   -1.341266
     12          6           0      -12.687883    1.799146   -0.467184
     13          6           0       11.650400   -0.167745   -1.160725
     14          6           0      -11.476026    0.959634   -0.748913
     15          6           0       11.241321   -0.306612    2.479642
     16          6           0       10.626468   -2.396583    1.277533
     17          6           0      -11.822664   -1.014001    2.120846
     18          6           0      -12.632205   -2.358118    0.194451
     19          6           0        9.638304    0.362200    0.177201
     20          6           0      -10.059363   -1.031270   -0.408100
     21          6           0       11.185946    0.569590   -2.379223
     22          6           0      -10.541528    1.606887   -1.724789
     23          6           0        9.312723    1.632423   -0.109730
     24          6           0       -8.808761   -0.551635   -0.286153
     25          6           0        8.007098    2.250012    0.075792
     26          6           0       -7.585198   -1.295473   -0.481381
     27          6           0        8.037509    3.722374    0.352601
     28          6           0       -7.680715   -2.733793   -0.879752
     29          6           0        6.865690    1.525787   -0.021201
     30          6           0       -6.405707   -0.646139   -0.294943
     31          6           0        5.527583    1.987974    0.177496
     32          6           0       -5.082761   -1.163156   -0.438357
     33          6           0        4.439207    1.198476    0.015640
     34          6           0       -3.975552   -0.410613   -0.228719
     35          6           0        3.070472    1.597324    0.187979
     36          6           0       -2.613581   -0.842868   -0.361419
     37          6           0        2.785748    3.009450    0.594217
     38          6           0       -2.348690   -2.259130   -0.766173
     39          6           0        2.092925    0.672858   -0.034972
     40          6           0       -1.623846    0.063053   -0.116559
     41          6           0        0.685514    0.852116    0.058299
     42          6           0       -0.217583   -0.130171   -0.198332
     43          1           0       13.510309   -0.504889    1.261815
     44          1           0       13.200521   -2.153315    1.801916
     45          1           0      -14.309961   -0.519641    1.449923
     46          1           0      -14.190674   -0.378107   -0.302526
     47          1           0       12.729570   -2.786653   -0.585337
     48          1           0      -12.929076    1.584216    1.642535
     49          1           0       13.780430   -0.040506   -1.268412
     50          1           0       13.079426   -1.214359   -2.354854
     51          1           0      -13.350617    1.801935   -1.343592
     52          1           0      -12.380504    2.842122   -0.329624
     53          1           0       11.656798   -0.868859    3.321232
     54          1           0       10.187163   -0.116634    2.691282
     55          1           0       11.751392    0.658566    2.430367
     56          1           0       10.744657   -3.014570    0.385601
     57          1           0       10.952446   -2.978017    2.145336
     58          1           0        9.559683   -2.198007    1.402229
     59          1           0      -11.657921   -0.022765    2.548423
     60          1           0      -10.870668   -1.548481    2.157692
     61          1           0      -12.536617   -1.547808    2.755478
     62          1           0      -13.482651   -2.766103    0.748057
     63          1           0      -11.789065   -3.031960    0.357591
     64          1           0      -12.885551   -2.370284   -0.868771
     65          1           0        8.881432   -0.248713    0.666378
     66          1           0      -10.181893   -2.087784   -0.629597
     67          1           0       10.132836    0.839915   -2.335546
     68          1           0       11.763894    1.489682   -2.525523
     69          1           0       11.355762   -0.042462   -3.270618
     70          1           0      -11.120585    2.059756   -2.536889
     71          1           0       -9.824748    0.908397   -2.152790
     72          1           0       -9.980300    2.424344   -1.257888
     73          1           0       14.907419   -2.861808    0.197854
     74          1           0      -15.235330    1.742080    1.466130
     75          1           0       10.099464    2.294377   -0.466675
     76          1           0       -8.682024    0.489972   -0.001059
     77          1           0        8.656613    4.232012   -0.392512
     78          1           0        7.051454    4.183164    0.337184
     79          1           0        8.492630    3.925775    1.327628
     80          1           0       -8.228037   -3.309132   -0.126395
     81          1           0       -8.228822   -2.840596   -1.820734
     82          1           0       -6.704434   -3.197014   -1.006345
     83          1           0        6.964784    0.479299   -0.301383
     84          1           0       -6.467327    0.401009   -0.002907
     85          1           0        5.380925    3.021487    0.473224
     86          1           0       -4.961390   -2.200618   -0.731544
     87          1           0        4.599870    0.162435   -0.277561
     88          1           0       -4.116840    0.628058    0.065210
     89          1           0        3.271054    3.243591    1.546437
     90          1           0        1.721799    3.205505    0.706617
     91          1           0        3.178697    3.712451   -0.146557
     92          1           0       -2.794144   -2.956375   -0.050175
     93          1           0       -2.795272   -2.473614   -1.741852
     94          1           0       -1.285970   -2.482455   -0.830186
     95          1           0        2.421769   -0.323114   -0.327044
     96          1           0       -1.942144    1.063381    0.172482
     97          1           0        0.300248    1.826989    0.344197
     98          1           0        0.163272   -1.106346   -0.485726
 ---------------------------------------------------------------------

 SCF Done:  E(RPBE1PBE) =  -1706.86916218     A.U. after    4 cycles
