 Gaussian 09, Revision D.01,
 Gaussian 09:  ES64L-G09RevD.01 24-Apr-2013

 ---------------------------
 #n CAM-B3LYP/6-31G(d,p) Opt
 ---------------------------

 --------------
 lutein-s0-geom
 --------------
 Symbolic Z-matrix:
 Charge =  0 Multiplicity = 1

 SCF Done:  E(RCAM-B3LYP) =  -1707.33976793     A.U. after   13 cycles
 SCF Done:  E(RCAM-B3LYP) =  -1707.36652517     A.U. after   12 cycles
 SCF Done:  E(RCAM-B3LYP) =  -1707.37260507     A.U. after   12 cycles
 SCF Done:  E(RCAM-B3LYP) =  -1707.37362769     A.U. after   12 cycles
 SCF Done:  E(RCAM-B3LYP) =  -1707.37477390     A.U. after   11 cycles
 SCF Done:  E(RCAM-B3LYP) =  -1707.37532439     A.U. after   12 cycles
 SCF Done:  E(RCAM-B3LYP) =  -1707.37569677     A.U. after   11 cycles
 SCF Done:  E(RCAM-B3LYP) =  -1707.37585705     A.U. after   11 cycles
 SCF Done:  E(RCAM-B3LYP) =  -1707.37594457     A.U. after   11 cycles
 SCF Done:  E(RCAM-B3LYP) =  -1707.37604447     A.U. after   10 cycles
 SCF Done:  E(RCAM-B3LYP) =  -1707.37793120     A.U. after   11 cycles
 SCF Done:  E(RCAM-B3LYP) =  -1707.37795122     A.U. after   10 cycles
 SCF Done:  E(RCAM-B3LYP) =  -1707.37799469     A.U. after   10 cycles
 SCF Done:  E(RCAM-B3LYP) =  -1707.37800348     A.U. after    9 cycles
 SCF Done:  E(RCAM-B3LYP) =  -1707.37800699     A.U. after   10 cycles
 SCF Done:  E(RCAM-B3LYP) =  -1707.37800905     A.U. after    8 cycles
 SCF Done:  E(RCAM-B3LYP) =  -1707.37801028     A.U. after    8 cycles
 SCF Done:  E(RCAM-B3LYP) =  -1707.37801054     A.U. after    6 cycles
 SCF Done:  E(RCAM-B3LYP) =  -1707.37801058     A.U. after    6 cycles
 SCF Done:  E(RCAM-B3LYP) =  -1707.37801053     A.U. after    5 cycles
 Optimization completed.
    -- Stationary point found.

                         Standard orientation:
 ---------------------------------------------------------------------
 Center     Atomic      Atomic             Coordinates (Angstroms)
 Number     Number       Type             X           Y           Z
 ---------------------------------------------------------------------
      1          8           0      -13.966890   -2.128451    1.075396
      2          8           0       14.677104    1.004196    0.864521
      3          6           0      -11.787644    0.234042    1.253892
      4          6           0      -10.941190    0.128976   -0.047568
      5          6           0      -11.930406   -1.167965    1.868443
      6          6           0      -12.544377   -2.208298    0.937885
      7          6           0      -11.442048   -0.979103   -0.962494
      8          6           0       11.118346   -0.003701    1.771757
      9          6           0      -11.106059    1.158790    2.266955
     10          6           0      -13.161844    0.828516    0.911772
     11          6           0       12.472470    0.719155    1.865552
     12          6           0      -12.128388   -2.021320   -0.494722
     13          6           0       13.432068    0.330226    0.755618
     14          6           0       10.610588   -0.031452    0.319834
     15          6           0       -9.466664   -0.082202    0.192948
     16          6           0       12.829180    0.722135   -0.575770
     17          6           0       11.381329    0.321750   -0.727010
     18          6           0       10.132040    0.748227    2.683460
     19          6           0       11.247187   -1.447971    2.290744
     20          6           0      -11.082332   -0.845786   -2.414323
     21          6           0       -8.507616    0.759136   -0.208596
     22          6           0        9.215320   -0.488715    0.153650
     23          6           0       10.903276    0.409477   -2.152406
     24          6           0       -7.067282    0.589892   -0.016277
     25          6           0        8.812502   -1.464407   -0.672808
     26          6           0       -6.596173   -0.655829    0.680521
     27          6           0        7.427026   -1.915155   -0.862436
     28          6           0       -6.242103    1.558984   -0.470273
     29          6           0        7.274973   -3.379431   -1.179831
     30          6           0        6.395222   -1.049854   -0.764830
     31          6           0       -4.799890    1.607262   -0.387997
     32          6           0        4.984282   -1.347971   -0.872929
     33          6           0       -4.074891    2.644140   -0.848141
     34          6           0       -2.617482    2.767252   -0.823438
     35          6           0        4.030326   -0.399163   -0.797819
     36          6           0        2.595042   -0.609998   -0.892712
     37          6           0       -2.102553    4.181971   -0.769159
     38          6           0       -1.819656    1.675508   -0.863223
     39          6           0        1.779165    0.468566   -0.807040
     40          6           0        2.100754   -2.017264   -1.085305
     41          6           0       -0.379801    1.639869   -0.794678
     42          6           0        0.340665    0.501360   -0.880187
     43          1           0      -11.048287    1.080960   -0.584874
     44          1           0      -12.544464   -1.122709    2.773384
     45          1           0      -10.940887   -1.522184    2.178679
     46          1           0      -12.219059   -3.206659    1.271030
     47          1           0      -10.138816    0.769263    2.593807
     48          1           0      -10.933609    2.151279    1.838281
     49          1           0      -11.739060    1.281883    3.151106
     50          1           0      -13.693953    0.232004    0.171526
     51          1           0      -13.791391    0.871176    1.805067
     52          1           0      -13.049233    1.848937    0.530204
     53          1           0       12.321767    1.803640    1.804709
     54          1           0       12.919487    0.515117    2.847415
     55          1           0      -12.443910   -2.800299   -1.189658
     56          1           0       13.592964   -0.758265    0.769248
     57          1           0       -9.195923   -1.002712    0.705407
     58          1           0       13.416918    0.289867   -1.393822
     59          1           0       12.926406    1.811209   -0.684401
     60          1           0        9.192985    0.205816    2.814149
     61          1           0        9.904081    1.742088    2.286993
     62          1           0       10.572881    0.876253    3.676950
     63          1           0       11.992626   -2.015934    1.728000
     64          1           0       10.295160   -1.977079    2.200109
     65          1           0       11.539192   -1.452994    3.346167
     66          1           0      -10.001858   -0.720603   -2.537217
     67          1           0      -11.554883    0.042873   -2.848333
     68          1           0      -11.398343   -1.716772   -2.992428
     69          1           0      -14.363637   -2.666146    0.379694
     70          1           0        8.466327   -0.027600    0.793695
     71          1           0       -8.805433    1.670385   -0.726540
     72          1           0       11.319243   -0.403546   -2.759117
     73          1           0        9.818797    0.373690   -2.240563
     74          1           0       11.261570    1.342550   -2.602211
     75          1           0       15.079861    0.750542    1.703154
     76          1           0        9.570292   -2.008059   -1.235917
     77          1           0       -5.512482   -0.700674    0.776105
     78          1           0       -7.023038   -0.719556    1.686831
     79          1           0       -6.923328   -1.549145    0.138558
     80          1           0       -6.704882    2.416499   -0.956991
     81          1           0        7.574129   -3.997444   -0.326047
     82          1           0        6.257932   -3.655512   -1.456676
     83          1           0        7.932052   -3.655548   -2.011642
     84          1           0        6.637453   -0.002068   -0.599174
     85          1           0       -4.280518    0.778054    0.082879
     86          1           0        4.690219   -2.383041   -1.014077
     87          1           0       -4.614478    3.500672   -1.252867
     88          1           0        4.346323    0.633030   -0.652475
     89          1           0       -1.023498    4.251934   -0.901273
     90          1           0       -2.358968    4.653814    0.185604
     91          1           0       -2.572626    4.784400   -1.553832
     92          1           0       -2.302281    0.706741   -0.974586
     93          1           0        2.256196    1.438023   -0.669004
     94          1           0        2.431730   -2.659102   -0.262448
     95          1           0        1.014943   -2.077974   -1.138479
     96          1           0        2.504728   -2.445859   -2.008288
     97          1           0        0.156549    2.575848   -0.660565
     98          1           0       -0.195848   -0.434901   -1.010939
 ---------------------------------------------------------------------

 The electronic state is 1-A.
 Alpha  occ. eigenvalues --  -19.20856 -19.20740 -10.30274 -10.29828 -10.26997
 Alpha  occ. eigenvalues --  -10.26993 -10.26985 -10.26847 -10.26661 -10.26567
 Alpha  occ. eigenvalues --  -10.26161 -10.26141 -10.26113 -10.26112 -10.26044
 Alpha  occ. eigenvalues --  -10.25984 -10.25945 -10.25798 -10.25778 -10.25728
 Alpha  occ. eigenvalues --  -10.25724 -10.25672 -10.25638 -10.25585 -10.25555
 Alpha  occ. eigenvalues --  -10.25471 -10.25443 -10.25422 -10.25336 -10.25334
 Alpha  occ. eigenvalues --  -10.25332 -10.25305 -10.25021 -10.24701 -10.24693
 Alpha  occ. eigenvalues --  -10.24531 -10.24376 -10.24369 -10.24336 -10.24160
 Alpha  occ. eigenvalues --  -10.23563 -10.22844  -1.09292  -1.08969  -0.93511
 Alpha  occ. eigenvalues --   -0.93391  -0.91950  -0.91449  -0.90466  -0.89815
 Alpha  occ. eigenvalues --   -0.87132  -0.86830  -0.86675  -0.85376  -0.84611
 Alpha  occ. eigenvalues --   -0.83035  -0.82209  -0.80623  -0.80125  -0.78257
 Alpha  occ. eigenvalues --   -0.76952  -0.76408  -0.76099  -0.76054  -0.75686
 Alpha  occ. eigenvalues --   -0.75414  -0.75123  -0.74962  -0.73763  -0.70022
 Alpha  occ. eigenvalues --   -0.68685  -0.67666  -0.66345  -0.64871  -0.63678
 Alpha  occ. eigenvalues --   -0.63047  -0.62600  -0.62268  -0.60750  -0.60029
 Alpha  occ. eigenvalues --   -0.59605  -0.58666  -0.58354  -0.57630  -0.56239
 Alpha  occ. eigenvalues --   -0.55593  -0.55038  -0.54701  -0.54165  -0.53637
 Alpha  occ. eigenvalues --   -0.53169  -0.52885  -0.52674  -0.52025  -0.51193
 Alpha  occ. eigenvalues --   -0.50339  -0.50175  -0.49456  -0.49068  -0.48793
 Alpha  occ. eigenvalues --   -0.48735  -0.48633  -0.48453  -0.48367  -0.48279
 Alpha  occ. eigenvalues --   -0.48088  -0.47541  -0.46913  -0.46732  -0.46171
 Alpha  occ. eigenvalues --   -0.45988  -0.45769  -0.45422  -0.45312  -0.45116
 Alpha  occ. eigenvalues --   -0.44876  -0.44790  -0.44369  -0.44029  -0.43758
 Alpha  occ. eigenvalues --   -0.43606  -0.43327  -0.43096  -0.42652  -0.42314
 Alpha  occ. eigenvalues --   -0.42158  -0.41889  -0.41866  -0.41187  -0.40975
 Alpha  occ. eigenvalues --   -0.40824  -0.40732  -0.40098  -0.40022  -0.39847
 Alpha  occ. eigenvalues --   -0.39608  -0.39496  -0.39025  -0.39004  -0.38897
 Alpha  occ. eigenvalues --   -0.38183  -0.37070  -0.36948  -0.36734  -0.36262
 Alpha  occ. eigenvalues --   -0.35954  -0.34701  -0.33689  -0.32216  -0.32085
 Alpha  occ. eigenvalues --   -0.31835  -0.29795  -0.28961  -0.27001  -0.24471
 Alpha  occ. eigenvalues --   -0.21184
 Alpha virt. eigenvalues --   -0.03325   0.00294   0.03619   0.06501   0.07798
 Alpha virt. eigenvalues --    0.09984   0.11666   0.12798   0.12920   0.13677
 Alpha virt. eigenvalues --    0.13725   0.14198   0.14238   0.14785   0.15120

 Mulliken charges:
               1
     1  O   -0.546005
     2  O   -0.562059
     3  C    0.015915
     4  C   -0.139779
     5  C   -0.180395
     6  C    0.146667
     7  C    0.129366
     8  C   -0.017530
     9  C   -0.299257
    10  C   -0.291113
    11  C   -0.187804
    12  C   -0.153787
    13  C    0.166816
    14  C    0.056098
    15  C   -0.079976
    16  C   -0.221227
    17  C    0.050284
    18  C   -0.311834
    19  C   -0.300428
    20  C   -0.363134
    21  C   -0.092610
    22  C   -0.124946
    23  C   -0.365735
    24  C    0.123942
    25  C   -0.102585
    26  C   -0.380071
    27  C    0.078033
    28  C   -0.139231
    29  C   -0.372399
    30  C   -0.113845
    31  C   -0.060502
    32  C   -0.086313
    33  C   -0.125057
    34  C    0.085625
    35  C   -0.111032
    36  C    0.122649
    37  C   -0.374582
    38  C   -0.120329
    39  C   -0.138829
    40  C   -0.379919
    41  C   -0.076446
    42  C   -0.080980
    43  H    0.083171
    44  H    0.109217
    45  H    0.087938
    46  H    0.077696
    47  H    0.098893
    48  H    0.094961
    49  H    0.096696
    50  H    0.113756
    51  H    0.100422
    52  H    0.083165
    53  H    0.100336
    54  H    0.072861
    55  H    0.067985
    56  H    0.075133
    57  H    0.084736
    58  H    0.107418
    59  H    0.120504
    60  H    0.103629
    61  H    0.104989
    62  H    0.098361
    63  H    0.099811
    64  H    0.108262
    65  H    0.094239
    66  H    0.122797
    67  H    0.115032
    68  H    0.106498
    69  H    0.300882
    70  H    0.091288
    71  H    0.075739
    72  H    0.112002
    73  H    0.121724
    74  H    0.106407
    75  H    0.302409
    76  H    0.083857
    77  H    0.108636
    78  H    0.123069
    79  H    0.122663
    80  H    0.076268
    81  H    0.124195
    82  H    0.110010
    83  H    0.116493
    84  H    0.078676
    85  H    0.084772
    86  H    0.077585
    87  H    0.079648
    88  H    0.077370
    89  H    0.111700
    90  H    0.126726
    91  H    0.117453
    92  H    0.077926
    93  H    0.076535
    94  H    0.123006
    95  H    0.107963
    96  H    0.123195
    97  H    0.079103
    98  H    0.078537
 Sum of Mulliken charges =   0.00000

 Dipole moment (field-independent basis, Debye):
    X=              0.2317    Y=             -1.7908    Z=             -0.1724  Tot=              1.8139
 Quadrupole moment (field-independent basis, Debye-Ang):
   XX=           -279.4750   YY=           -243.6709   ZZ=           -258.1064
   XY=             -5.6822   XZ=             31.9922   YZ=              2.2284

 Normal termination of Gaussian 09 at Thu Mar 28 05:34:18 2019.
