 Gaussian 16, Revision A.03,
 Gaussian 16:  ES64L-G16RevA.03 25-Dec-2016

 ----------------
 #n B3LYP/SVP Opt
 ----------------

 -----------------------
 phycocyanobilin-s0-geom
 -----------------------
 Symbolic Z-matrix:
 Charge =  0 Multiplicity = 1

 SCF Done:  E(RB3LYP) =  -1949.33000554     A.U. after   16 cycles
 SCF Done:  E(RB3LYP) =  -1949.37483808     A.U. after   15 cycles
 SCF Done:  E(RB3LYP) =  -1949.36449636     A.U. after   16 cycles
 SCF Done:  E(RB3LYP) =  -1949.39826198     A.U. after   14 cycles
 SCF Done:  E(RB3LYP) =  -1949.39749352     A.U. after   15 cycles
 SCF Done:  E(RB3LYP) =  -1949.40369763     A.U. after   14 cycles
 SCF Done:  E(RB3LYP) =  -1949.40574162     A.U. after   14 cycles
 SCF Done:  E(RB3LYP) =  -1949.40833224     A.U. after   14 cycles
 SCF Done:  E(RB3LYP) =  -1949.40485980     A.U. after   14 cycles
 SCF Done:  E(RB3LYP) =  -1949.40948603     A.U. after   13 cycles
 SCF Done:  E(RB3LYP) =  -1949.41357425     A.U. after    8 cycles
 SCF Done:  E(RB3LYP) =  -1949.41357680     A.U. after    9 cycles
 SCF Done:  E(RB3LYP) =  -1949.41357812     A.U. after    8 cycles
 SCF Done:  E(RB3LYP) =  -1949.41357890     A.U. after    8 cycles
 SCF Done:  E(RB3LYP) =  -1949.41357971     A.U. after    8 cycles
 SCF Done:  E(RB3LYP) =  -1949.41358033     A.U. after    8 cycles
 SCF Done:  E(RB3LYP) =  -1949.41358055     A.U. after    8 cycles
 SCF Done:  E(RB3LYP) =  -1949.41358077     A.U. after    8 cycles
 SCF Done:  E(RB3LYP) =  -1949.41358084     A.U. after    7 cycles
 SCF Done:  E(RB3LYP) =  -1949.41358085     A.U. after    6 cycles
 Optimization completed.
    -- Stationary point found.

                         Standard orientation:
 ---------------------------------------------------------------------
 Center     Atomic      Atomic             Coordinates (Angstroms)
 Number     Number       Type             X           Y           Z
 ---------------------------------------------------------------------
      1          8           0       -4.519814   -4.728337    1.886610
      2          8           0        2.934085   -4.835305    1.290953
      3          8           0        7.056303   -1.515487    1.847049
      4          8           0        3.752053   -3.139125    0.081816
      5          8           0        7.612793   -0.606712   -0.124818
      6          8           0       -3.016312    2.476473   -0.240646
      7          7           0       -0.286343   -0.576362   -0.593373
      8          7           0        1.553550    1.796009   -0.373563
      9          7           0       -3.431219   -3.128803    0.635700
     10          7           0       -0.745498    2.925872   -0.109523
     11          6           0        0.647173   -2.465805   -1.368550
     12          6           0        0.930413   -1.140656   -0.944064
     13          6           0       -0.747292   -2.671015   -1.257367
     14          6           0       -1.309247   -1.473324   -0.744832
     15          6           0        3.790884    1.424618   -0.348368
     16          6           0        2.493241    0.806323   -0.574696
     17          6           0        2.199825   -0.508874   -0.877624
     18          6           0        3.572177    2.749410   -0.002747
     19          6           0        1.637747   -3.467760   -1.897375
     20          6           0       -5.587703   -2.570318    1.349876
     21          6           0       -3.639871   -1.848742    0.112305
     22          6           0        2.137958    2.965428   -0.025475
     23          6           0       -5.058657   -1.524342    0.373159
     24          6           0        5.105399    0.702559   -0.430091
     25          6           0       -2.670670   -1.071787   -0.455557
     26          6           0       -1.501358   -3.874810   -1.746809
     27          6           0       -4.496249   -3.644207    1.348879
     28          6           0        2.044438   -4.558185   -0.890755
     29          6           0        5.421541   -0.149851    0.808417
     30          6           0        4.572888    3.807018    0.347593
     31          6           0        1.348308    4.105688    0.248738
     32          6           0       -6.979503   -3.145843    1.093764
     33          6           0       -5.814382   -0.562039   -0.195926
     34          6           0       -0.049430    4.043195    0.203873
     35          6           0       -0.969487    5.189143    0.493991
     36          6           0       -2.225936    4.709071    0.346348
     37          6           0        2.991131   -4.074312    0.186456
     38          6           0       -5.423405    0.438542   -1.239686
     39          6           0        6.804582   -0.757781    0.758183
     40          6           0       -3.561488    5.367537    0.482297
     41          6           0       -2.085107    3.248336   -0.038814
     42          6           0       -0.507461    6.561316    0.869347
     43          6           0       -4.223715    5.676617   -0.871758
     44          1           0       -0.434383    0.333088   -0.164149
     45          1           0        3.049559   -1.170511   -1.045006
     46          1           0        2.546791   -2.963545   -2.255230
     47          1           0        1.201264   -3.971265   -2.775598
     48          1           0       -5.563719   -2.155487    2.377672
     49          1           0        5.126779    0.051876   -1.318975
     50          1           0        5.920602    1.426008   -0.578019
     51          1           0       -2.899167   -0.014458   -0.610803
     52          1           0        0.517094    1.838013   -0.495342
     53          1           0       -1.525158   -4.708615   -1.021006
     54          1           0       -2.544334   -3.622622   -1.986282
     55          1           0       -1.041146   -4.278388   -2.663041
     56          1           0       -2.532959   -3.597596    0.628556
     57          1           0        1.171093   -5.025204   -0.411853
     58          1           0        2.576963   -5.373542   -1.414163
     59          1           0        4.706023   -0.979869    0.923929
     60          1           0        5.348553    0.445386    1.734638
     61          1           0        4.445590    4.704708   -0.280674
     62          1           0        5.604451    3.451991    0.214040
     63          1           0        4.466764    4.134211    1.396427
     64          1           0        1.842526    5.040413    0.512007
     65          1           0       -7.763313   -2.389815    1.250955
     66          1           0       -7.164673   -3.981973    1.784674
     67          1           0       -7.068268   -3.522075    0.062494
     68          1           0       -6.857138   -0.516126    0.139616
     69          1           0       -4.921400    1.318611   -0.801600
     70          1           0       -6.311543    0.794942   -1.783590
     71          1           0       -4.715097    0.012354   -1.968261
     72          1           0       -3.470114    6.293926    1.073440
     73          1           0       -4.222392    4.689283    1.049077
     74          1           0        0.125558    6.540291    1.772882
     75          1           0       -1.354877    7.233190    1.067725
     76          1           0        0.099321    7.014880    0.066866
     77          1           0       -3.616022    6.381733   -1.461370
     78          1           0       -5.220768    6.123427   -0.728056
     79          1           0       -4.344054    4.755772   -1.462148
     80          1           0        3.597180   -4.488572    1.913751
     81          1           0        7.957663   -1.864391    1.737630
 ---------------------------------------------------------------------

 The electronic state is 1-A.
 Alpha  occ. eigenvalues --  -19.19910 -19.18269 -19.14446 -19.12642 -19.10929
 Alpha  occ. eigenvalues --  -19.09860 -14.37779 -14.36998 -14.35518 -14.28538
 Alpha  occ. eigenvalues --  -10.33648 -10.31880 -10.28939 -10.25936 -10.24381
 Alpha  occ. eigenvalues --  -10.23759 -10.23547 -10.23099 -10.23086 -10.22514
 Alpha  occ. eigenvalues --  -10.22019 -10.21305 -10.21137 -10.20533 -10.20413
 Alpha  occ. eigenvalues --  -10.20412 -10.20098 -10.20010 -10.19977 -10.19948
 Alpha  occ. eigenvalues --  -10.19828 -10.19748 -10.19625 -10.19516 -10.19321
 Alpha  occ. eigenvalues --  -10.19297 -10.18753 -10.18609 -10.18601 -10.18533
 Alpha  occ. eigenvalues --  -10.18180 -10.17479 -10.17447  -1.11665  -1.09912
 Alpha  occ. eigenvalues --   -1.03605  -1.02352  -1.00727  -1.00683  -0.98644
 Alpha  occ. eigenvalues --   -0.97765  -0.95273  -0.91330  -0.82642  -0.82075
 Alpha  occ. eigenvalues --   -0.81438  -0.81132  -0.79371  -0.78859  -0.78052
 Alpha  occ. eigenvalues --   -0.77382  -0.76407  -0.75080  -0.74210  -0.72516
 Alpha  occ. eigenvalues --   -0.71428  -0.69747  -0.69292  -0.68815  -0.67971
 Alpha  occ. eigenvalues --   -0.67832  -0.65516  -0.64589  -0.62321  -0.61711
 Alpha  occ. eigenvalues --   -0.61058  -0.59704  -0.58806  -0.58015  -0.57294
 Alpha  occ. eigenvalues --   -0.56105  -0.55408  -0.55226  -0.53765  -0.53147
 Alpha  occ. eigenvalues --   -0.52387  -0.51882  -0.51214  -0.50321  -0.49806
 Alpha  occ. eigenvalues --   -0.49534  -0.49176  -0.48835  -0.48088  -0.47984
 Alpha  occ. eigenvalues --   -0.47311  -0.46610  -0.45911  -0.45697  -0.44858
 Alpha  occ. eigenvalues --   -0.44649  -0.44219  -0.44095  -0.43993  -0.43535
 Alpha  occ. eigenvalues --   -0.43355  -0.43185  -0.42684  -0.42278  -0.42075
 Alpha  occ. eigenvalues --   -0.42032  -0.41455  -0.41418  -0.41228  -0.41044
 Alpha  occ. eigenvalues --   -0.40714  -0.40514  -0.40212  -0.40087  -0.39787
 Alpha  occ. eigenvalues --   -0.39627  -0.39578  -0.39317  -0.39016  -0.38727
 Alpha  occ. eigenvalues --   -0.38608  -0.38080  -0.37925  -0.37806  -0.37044
 Alpha  occ. eigenvalues --   -0.36915  -0.36682  -0.36304  -0.35949  -0.35574
 Alpha  occ. eigenvalues --   -0.34927  -0.34802  -0.34146  -0.34065  -0.33761
 Alpha  occ. eigenvalues --   -0.33257  -0.32969  -0.32583  -0.30118  -0.29849
 Alpha  occ. eigenvalues --   -0.28311  -0.27552  -0.26544  -0.25949  -0.25546
 Alpha  occ. eigenvalues --   -0.25351  -0.24986  -0.23929  -0.23309  -0.21625
 Alpha  occ. eigenvalues --   -0.17950
 Alpha virt. eigenvalues --   -0.10063  -0.05255  -0.03415  -0.01302   0.00582
 Alpha virt. eigenvalues --    0.00746   0.02684   0.03403   0.04220   0.04698
 Alpha virt. eigenvalues --    0.04957   0.05212   0.05795   0.06011   0.06812

 Mulliken charges:
               1
     1  O   -0.204392
     2  O   -0.166538
     3  O   -0.185366
     4  O   -0.223855
     5  O   -0.226023
     6  O   -0.216746
     7  N   -0.064573
     8  N   -0.082232
     9  N   -0.113373
    10  N   -0.307444
    11  C   -0.110200
    12  C    0.067267
    13  C   -0.168428
    14  C    0.059121
    15  C   -0.085552
    16  C    0.089216
    17  C   -0.057592
    18  C   -0.138211
    19  C    0.122662
    20  C   -0.060275
    21  C    0.101588
    22  C    0.076368
    23  C   -0.009849
    24  C    0.117150
    25  C   -0.115192
    26  C    0.085119
    27  C    0.108241
    28  C    0.025524
    29  C   -0.004613
    30  C    0.115144
    31  C   -0.129913
    32  C    0.056140
    33  C   -0.149677
    34  C    0.096519
    35  C   -0.107239
    36  C   -0.190882
    37  C    0.114302
    38  C    0.066877
    39  C    0.128393
    40  C    0.092911
    41  C    0.149619
    42  C    0.121429
    43  C    0.000306
    44  H    0.131479
    45  H   -0.001605
    46  H    0.010835
    47  H    0.001241
    48  H    0.044135
    49  H    0.015424
    50  H    0.007525
    51  H    0.016780
    52  H    0.139834
    53  H    0.022380
    54  H    0.029537
    55  H    0.011862
    56  H    0.124896
    57  H    0.029484
    58  H    0.045380
    59  H    0.047546
    60  H    0.030161
    61  H    0.023945
    62  H    0.006957
    63  H    0.023006
    64  H   -0.036986
    65  H    0.016726
    66  H    0.030771
    67  H    0.012662
    68  H   -0.013360
    69  H    0.074118
    70  H    0.003391
    71  H    0.023443
    72  H   -0.011323
    73  H    0.008742
    74  H    0.020657
    75  H    0.007948
    76  H    0.021604
    77  H    0.005975
    78  H    0.009302
    79  H    0.027016
    80  H    0.185725
    81  H    0.177058
 Sum of Mulliken charges =  -0.00000

 Dipole moment (field-independent basis, Debye):
    X=              2.8872    Y=              0.0588    Z=              0.6490  Tot=              2.9598
 Quadrupole moment (field-independent basis, Debye-Ang):
   XX=           -251.3764   YY=           -238.3139   ZZ=           -253.3491
   XY=            -16.5395   XZ=             16.5979   YZ=             13.7081

 1\1\GINC-ISRAEL-ARCH\FOpt\RB3LYP\SVP\C33H38N4O6\ISRAEL\28-Mar-2019\0\\
 #n B3LYP/SVP Opt\\phycocyanobilin-s0-geom\\0,1\O,-4.8233765251,-3.8286
 46357,3.0345746964\O,2.6426001104,-4.2450708192,3.1470401082\O,6.85151
 59959,-1.0008828124,2.8582853477\O,3.6205369124,-3.0929193462,1.496495
 7609\O,7.5916199101,-0.8498397307,0.7480140666\O,-2.8565683336,2.14933
 13614,-1.3346896189\N,-0.2422091819,-0.8721373505,-0.3688717287\N,1.67
 69161756,1.3997972252,-0.8346353641\N,-3.5768793366,-2.7855380874,1.40
 1634243\N,-0.5844963916,2.5834357336,-1.176602295\C,0.6639098483,-2.92

 Normal termination of Gaussian 16 at Thu Mar 28 01:01:16 2019.
