 Gaussian 09, Revision C.01,
 Gaussian 09:  EM64L-G09RevC.01 23-Sep-2011

 ---------------------------------------------------------------
 # freq=savenormalmodes B3LYP/6-31g(d) nosymm geom=allcheckpoint
 ---------------------------------------------------------------

 Structure from the checkpoint file:  NaphtaleneB3LYPS0.chk
 --------------------------------
 Naphtalene Optimization S0 B3LYP
 --------------------------------
 Charge =  0 Multiplicity = 1

                          Input orientation:
 ---------------------------------------------------------------------
 Center     Atomic      Atomic             Coordinates (Angstroms)
 Number     Number       Type             X           Y           Z
 ---------------------------------------------------------------------
      1          6           0       -3.645429   -0.275170    0.000332
      2          6           0       -2.268833   -0.273334    0.000149
      3          6           0       -1.541030    0.947262    0.000239
      4          6           0       -2.265520    2.184505    0.000516
      5          6           0       -3.686117    2.147120    0.000694
      6          6           0       -4.361413    0.947533    0.000607
      7          1           0        0.426968    0.044730   -0.000160
      8          1           0       -4.189247   -1.216041    0.000265
      9          1           0       -1.716912   -1.210601   -0.000062
     10          6           0       -0.120430    0.984646    0.000059
     11          6           0       -1.537722    3.405111    0.000603
     12          1           0       -4.233523    3.087031    0.000908
     13          1           0       -5.448046    0.933681    0.000750
     14          6           0       -0.161130    3.406941    0.000423
     15          6           0        0.554855    2.184238    0.000151
     16          1           0       -2.089652    4.342370    0.000811
     17          1           0        0.382706    4.347803    0.000495
     18          1           0        1.641487    2.198098    0.000011
 ---------------------------------------------------------------------

 SCF Done:  E(RB3LYP) =  -385.892719681     A.U. after   13 cycles

 Alpha  occ. eigenvalues --  -10.19553 -10.19511 -10.18959 -10.18959 -10.18922
 Alpha  occ. eigenvalues --  -10.18921 -10.18862 -10.18861 -10.18853 -10.18852
 Alpha  occ. eigenvalues --   -0.86856  -0.81613  -0.76905  -0.73650  -0.71502
 Alpha  occ. eigenvalues --   -0.62193  -0.60732  -0.59226  -0.51088  -0.50813
 Alpha  occ. eigenvalues --   -0.48958  -0.44597  -0.43624  -0.41479  -0.41183
 Alpha  occ. eigenvalues --   -0.39820  -0.38543  -0.36661  -0.33560  -0.32795
 Alpha  occ. eigenvalues --   -0.32307  -0.28117  -0.24023  -0.21269
 Alpha virt. eigenvalues --   -0.03524  -0.00539   0.03591   0.09507   0.10301
 Alpha virt. eigenvalues --    0.11298   0.12176   0.16609   0.16773   0.17455
 Alpha virt. eigenvalues --    0.18281   0.20402   0.20598   0.24693   0.28424

 Mulliken atomic charges:
              1
     1  C   -0.134967
     2  C   -0.190828
     3  C    0.134473
     4  C    0.134468
     5  C   -0.190889
     6  C   -0.134996
     7  H    0.129091
     8  H    0.129509
     9  H    0.129077
    10  C   -0.190886
    11  C   -0.190823
    12  H    0.129090
    13  H    0.129530
    14  C   -0.134968
    15  C   -0.134997
    16  H    0.129078
    17  H    0.129509
    18  H    0.129530
 Sum of Mulliken atomic charges =   0.00000

 Dipole moment (field-independent basis, Debye):
    X=              0.0000    Y=              0.0000    Z=              0.0000  Tot=              0.0000
 Quadrupole moment (field-independent basis, Debye-Ang):
   XX=            -50.7647   YY=            -50.9477   ZZ=            -62.1911
   XY=              0.1610   XZ=             -0.0015   YZ=              0.0017

  Exact polarizability: 142.615  18.854 121.453  -0.012   0.011  32.656
 Approx polarizability: 248.031  29.427 214.999  -0.021   0.021  50.909

                     1                      2                      3
                     A                      A                      A
 Frequencies --   176.0397               190.3892               363.8118
 Red. masses --     4.1791                 3.4413                 3.8400
 Frc consts  --     0.0763                 0.0735                 0.2995
 IR Inten    --     1.5635                 0.0010                 1.2076

                     4                      5                      6
                     A                      A                      A
 Frequencies --   396.6059               482.1297               491.0815
 Red. masses --     3.2469                 3.3907                 2.5517
 Frc consts  --     0.3009                 0.4644                 0.3626
 IR Inten    --     0.0000                 0.0000                12.3160

                     7                      8                      9
                     A                      A                      A
 Frequencies --   517.7713               520.4942               633.4946
 Red. masses --     7.0975                 6.6051                 3.6263
 Frc consts  --     1.1211                 1.0543                 0.8574
 IR Inten    --     0.0000                 0.0000                 0.0000

                    10                     11                     12
                     A                      A                      A
 Frequencies --   635.6627               734.3641               776.4427
 Red. masses --     6.4494                 1.1450                 4.5698
 Frc consts  --     1.5354                 0.3638                 1.6232
 IR Inten    --     3.4353                 0.0000                 0.0000

                    13                     14                     15
                     A                      A                      A
 Frequencies --   785.0731               804.0206               808.1668
 Red. masses --     3.0333                 1.3626                 5.3920
 Frc consts  --     1.1015                 0.5190                 2.0749
 IR Inten    --     0.0000                90.8021                 0.3404

                    16                     17                     18
                     A                      A                      A
 Frequencies --   852.0672               899.9370               946.9180
 Red. masses --     1.2667                 1.7474                 1.2972
 Frc consts  --     0.5419                 0.8338                 0.6853
 IR Inten    --     0.0038                 0.0000                 0.0000

                    19                     20                     21
                     A                      A                      A
 Frequencies --   949.3873               963.0504               985.3430
 Red. masses --     5.1984                 1.3720                 1.2573
 Frc consts  --     2.7606                 0.7497                 0.7192
 IR Inten    --     0.0000                 3.2993                 0.0001

                    22                     23                     24
                     A                      A                      A
 Frequencies --   993.9602              1045.0364              1055.5268
 Red. masses --     1.2836                 2.6479                 2.1346
 Frc consts  --     0.7472                 1.7038                 1.4012
 IR Inten    --     0.0000                 4.5795                 0.0000

                    25                     26                     27
                     A                      A                      A
 Frequencies --  1156.8504              1181.3571              1184.3022
 Red. masses --     1.7445                 1.2834                 1.2284
 Frc consts  --     1.3755                 1.0553                 1.0151
 IR Inten    --     3.1302                 0.0000                 0.6976

                    28                     29                     30
                     A                      A                      A
 Frequencies --  1193.8135              1243.8156              1277.8650
 Red. masses --     1.0773                 2.0703                 1.5745
 Frc consts  --     0.9046                 1.8871                 1.5148
 IR Inten    --     0.0000                 0.9929                 0.0000

                    31                     32                     33
                     A                      A                      A
 Frequencies --  1296.7112              1410.2074              1417.1068
 Red. masses --     1.7908                 3.6334                 8.5014
 Frc consts  --     1.7741                 4.2573                10.0588
 IR Inten    --     7.9455                 1.1877                 0.0000

                    34                     35                     36
                     A                      A                      A
 Frequencies --  1430.9091              1506.0202              1509.4794
 Red. masses --     1.5968                 2.3867                 1.9128
 Frc consts  --     1.9263                 3.1894                 2.5679
 IR Inten    --     3.0390                 0.0000                 0.0000

                    37                     38                     39
                     A                      A                      A
 Frequencies --  1567.3393              1630.5343              1658.9363
 Red. masses --     3.2256                 6.7876                 4.8713
 Frc consts  --     4.6686                10.6323                 7.8987
 IR Inten    --     7.3018                 0.0000                 4.9371

                    40                     41                     42
                     A                      A                      A
 Frequencies --  1688.2902              3175.1210              3177.4100
 Red. masses --     5.9759                 1.0857                 1.0855
 Frc consts  --    10.0357                 6.4489                 6.4570
 IR Inten    --     0.0000                 0.0000                 8.9275

                    43                     44                     45
                     A                      A                      A
 Frequencies --  3178.6439              3182.7194              3194.0436
 Red. masses --     1.0885                 1.0878                 1.0930
 Frc consts  --     6.4800                 6.4925                 6.5701
 IR Inten    --     0.8809                 0.0000                 0.0000

                    46                     47                     48
                     A                      A                      A
 Frequencies --  3195.4080              3207.4525              3208.7521
 Red. masses --     1.0932                 1.0972                 1.0969
 Frc consts  --     6.5769                 6.6508                 6.6543
 IR Inten    --    69.5554                59.4858                 0.0002

 - Thermochemistry -
 -------------------
 Temperature   298.150 Kelvin.  Pressure   1.00000 Atm.
 Atom     1 has atomic number  6 and mass  12.00000

 Molecular mass:   128.06260 amu.
 Principal axes and moments of inertia in atomic units:
                           1         2         3
     Eigenvalues --   578.816061467.357832046.17388
           X            0.86296  -0.50528   0.00013
           Y            0.50528   0.86296  -0.00015
           Z           -0.00004   0.00019   1.00000
 This molecule is an asymmetric top.
 Rotational symmetry number  1.
 Warning -- assumption of classical behavior for rotation
           may cause significant error
 Rotational temperatures (Kelvin)      0.14964     0.05903     0.04233
 Rotational constants (GHZ):           3.11799     1.22993     0.88201
 Zero-point vibrational energy     388067.8 (Joules/Mol)
                                   92.75042 (Kcal/Mol)
 Warning -- explicit consideration of   8 degrees of freedom as
           vibrations may cause significant error
 Vibrational temperatures:    253.28   273.93   523.44   570.63   693.68
          (Kelvin)            706.56   744.96   748.87   911.46   914.58
                             1056.58  1117.13  1129.54  1156.80  1162.77
                             1225.93  1294.81  1362.40  1365.95  1385.61
                             1417.69  1430.09  1503.57  1518.67  1664.45
                             1699.71  1703.94  1717.63  1789.57  1838.56
                             1865.68  2028.97  2038.90  2058.76  2166.82
                             2171.80  2255.05  2345.97  2386.84  2429.07
                             4568.29  4571.58  4573.35  4579.22  4595.51
                             4597.47  4614.80  4616.67

 Zero-point correction=                           0.147807 (Hartree/Particle)
 Thermal correction to Energy=                    0.154608
 Thermal correction to Enthalpy=                  0.155553
 Thermal correction to Gibbs Free Energy=         0.116612
 Sum of electronic and zero-point Energies=           -385.744912
 Sum of electronic and thermal Energies=              -385.738111
 Sum of electronic and thermal Enthalpies=            -385.737167
 Sum of electronic and thermal Free Energies=         -385.776107

                     E (Thermal)             CV                S
                      KCal/Mol        Cal/Mol-Kelvin    Cal/Mol-Kelvin
 Total                   97.018             28.802             81.957
 Electronic               0.000              0.000              0.000
 Translational            0.889              2.981             40.455
 Rotational               0.889              2.981             28.943
 Vibrational             95.241             22.841             12.559
 Vibration     1          0.628              1.872              2.370
 Vibration     2          0.634              1.853              2.224
 Vibration     3          0.737              1.547              1.106
 Vibration     4          0.763              1.477              0.975
 Vibration     5          0.838              1.290              0.704
 Vibration     6          0.847              1.270              0.681
 Vibration     7          0.873              1.211              0.615
 Vibration     8          0.875              1.205              0.609

 Optimization completed.
    -- Stationary point found.
 Normal termination of Gaussian 09 at Sat Jun 20 17:58:29 2015.
