 Gaussian 09, Revision C.01,
 Gaussian 09:  EM64L-G09RevC.01 23-Sep-2011

 ---------------------------
 # opt B3LYP/6-31g(d) nosymm
 ---------------------------

 99/9=1/99;
 --------------------------------
 Naphtalene Optimization S0 B3LYP
 --------------------------------
 Charge =  0 Multiplicity = 1

 SCF Done:  E(RB3LYP) =  -385.891609891     A.U. after   13 cycles
 SCF Done:  E(RB3LYP) =  -385.892693952     A.U. after   12 cycles
 SCF Done:  E(RB3LYP) =  -385.892715912     A.U. after    8 cycles
 SCF Done:  E(RB3LYP) =  -385.892719681     A.U. after    8 cycles
 Optimization completed.
    -- Stationary point found.

                          Input orientation:
 ---------------------------------------------------------------------
 Center     Atomic      Atomic             Coordinates (Angstroms)
 Number     Number       Type             X           Y           Z
 ---------------------------------------------------------------------
      1          6           0       -3.645429   -0.275170    0.000332
      2          6           0       -2.268833   -0.273334    0.000149
      3          6           0       -1.541030    0.947262    0.000239
      4          6           0       -2.265520    2.184505    0.000516
      5          6           0       -3.686117    2.147120    0.000694
      6          6           0       -4.361413    0.947533    0.000607
      7          1           0        0.426968    0.044730   -0.000160
      8          1           0       -4.189247   -1.216041    0.000265
      9          1           0       -1.716912   -1.210601   -0.000062
     10          6           0       -0.120430    0.984646    0.000059
     11          6           0       -1.537722    3.405111    0.000603
     12          1           0       -4.233523    3.087031    0.000908
     13          1           0       -5.448046    0.933681    0.000750
     14          6           0       -0.161130    3.406941    0.000423
     15          6           0        0.554855    2.184238    0.000151
     16          1           0       -2.089652    4.342370    0.000811
     17          1           0        0.382706    4.347803    0.000495
     18          1           0        1.641487    2.198098    0.000011
 ---------------------------------------------------------------------

 Alpha  occ. eigenvalues --  -10.19553 -10.19511 -10.18959 -10.18959 -10.18922
 Alpha  occ. eigenvalues --  -10.18921 -10.18862 -10.18861 -10.18853 -10.18852
 Alpha  occ. eigenvalues --   -0.86856  -0.81613  -0.76905  -0.73650  -0.71502
 Alpha  occ. eigenvalues --   -0.62193  -0.60732  -0.59226  -0.51088  -0.50813
 Alpha  occ. eigenvalues --   -0.48958  -0.44597  -0.43624  -0.41479  -0.41183
 Alpha  occ. eigenvalues --   -0.39820  -0.38543  -0.36661  -0.33560  -0.32795
 Alpha  occ. eigenvalues --   -0.32307  -0.28117  -0.24023  -0.21269
 Alpha virt. eigenvalues --   -0.03524  -0.00539   0.03591   0.09507   0.10301
 Alpha virt. eigenvalues --    0.11298   0.12176   0.16609   0.16773   0.17455
 Alpha virt. eigenvalues --    0.18281   0.20402   0.20598   0.24693   0.28424

 Mulliken atomic charges:
              1
     1  C   -0.134967
     2  C   -0.190827
     3  C    0.134473
     4  C    0.134468
     5  C   -0.190889
     6  C   -0.134996
     7  H    0.129091
     8  H    0.129509
     9  H    0.129077
    10  C   -0.190885
    11  C   -0.190823
    12  H    0.129090
    13  H    0.129530
    14  C   -0.134968
    15  C   -0.134997
    16  H    0.129078
    17  H    0.129509
    18  H    0.129530
 Sum of Mulliken atomic charges =   0.00000

 Dipole moment (field-independent basis, Debye):
    X=              0.0000    Y=              0.0000    Z=              0.0000  Tot=              0.0000
 Quadrupole moment (field-independent basis, Debye-Ang):
   XX=            -50.7647   YY=            -50.9478   ZZ=            -62.1911
   XY=              0.1610   XZ=             -0.0015   YZ=              0.0017

 Normal termination of Gaussian 09 at Sat Jun 20 17:56:33 2015.
