 Gaussian 16, Revision A.03,
 Gaussian 16:  ES64L-G16RevA.03 25-Dec-2016

 --------------------------
 # td=(NStates=1) B3LYP/SVP
 --------------------------

 --
 TD
 --
 Symbolic Z-matrix:
 Charge =  0 Multiplicity = 1

                         Standard orientation:
 ---------------------------------------------------------------------
 Center     Atomic      Atomic             Coordinates (Angstroms)
 Number     Number       Type             X           Y           Z
 ---------------------------------------------------------------------
      1          6           0       -5.219510   -1.884046    0.467164
      2          6           0       -4.638215    2.778721    1.368916
      3          6           0       -9.208546    3.305532   -0.158880
      4          6           0       -9.867443   -1.432438   -0.947724
      5          7           0       -5.132550    0.537146    0.603977
      6          6           0       -4.514896   -0.728584    0.750596
      7          6           0       -3.102440   -0.632172    1.270518
      8          6           0       -3.012637    0.826393    1.708622
      9          6           0       -4.340089    1.384974    1.145493
     10          6           0       -2.789698    1.092708    3.278607
     11          6           0       -2.029792   -0.957603    0.173588
     12          6           0       -0.561471   -0.836765    0.510321
     13          6           0        0.363247   -1.214000   -0.555972
     14          8           0        0.085692   -1.606267   -1.623576
     15          8           0        1.640088   -0.991916   -0.216971
     16          7           0       -6.899230    2.866914    0.521209
     17          6           0       -5.834678    3.452723    1.005058
     18          6           0       -6.072270    4.803292    1.000234
     19          6           0       -7.331193    4.982448    0.505417
     20          6           0       -7.937380    3.693363    0.251404
     21          6           0       -5.244948    5.998540    1.399515
     22          6           0       -8.014460    6.267615    0.244488
     23          6           0       -9.028438    6.674926   -0.548807
     24          7           0       -9.146938    0.789260   -0.493362
     25          6           0       -9.821502    2.075223   -0.491429
     26          6           0      -11.324430    1.903721   -0.821035
     27          6           0      -11.467975    0.588128   -1.151872
     28          6           0      -10.148775   -0.012855   -0.896791
     29          6           0      -12.194303    3.084016   -0.976695
     30          6           0      -12.684905   -0.165295   -1.530628
     31          6           0      -12.688951   -0.350600   -3.116240
     32          7           0       -7.530075   -1.162393   -0.095678
     33          6           0       -8.598645   -1.954596   -0.661849
     34          6           0       -8.288914   -3.440588   -0.680107
     35          6           0       -6.886974   -3.398892   -0.310661
     36          6           0       -6.453292   -2.040358    0.058657
     37          6           0       -9.057231   -4.613471   -1.082663
     38          6           0       -5.731800   -4.260662    0.039593
     39          8           0       -5.664340   -5.451986   -0.234857
     40          6           0       -4.612092   -3.335349    0.579999
     41          6           0       -4.007876   -3.859401    1.845818
     42          8           0       -4.350240   -3.373148    2.877720
     43          8           0       -3.237698   -4.927607    1.670828
     44          6           0       -2.708216   -5.537550    2.900328
     45          6           0        2.604477   -1.047909   -1.171551
     46          6           0        3.916836   -0.824740   -0.561479
     47          6           0        5.000405   -0.002716   -1.141603
     48          6           0        5.024218    0.534690   -2.525934
     49          6           0        6.272521    0.232658   -0.327461
     50          6           0        7.487024   -0.417014   -0.989571
     51          6           0        8.800359   -0.233791   -0.222479
     52          6           0       10.029248   -0.790312   -0.886726
     53          6           0        9.955851   -2.312141   -0.983242
     54          6           0       11.250314   -0.315464   -0.010996
     55          6           0       12.670075   -0.596488   -0.685373
     56          6           0       13.785041   -0.144664    0.298805
     57          6           0       15.207976   -0.122020   -0.340353
     58          6           0       15.688301   -1.596418   -0.743776
     59          6           0       16.292437    0.569373    0.525253
     60          6           0       17.603802    0.748637   -0.112357
     61          6           0       18.563621    1.556880    0.719946
     62          6           0       20.014390    1.768575    0.166894
     63          6           0       20.090339    2.300160   -1.149642
     64          6           0       20.951091    2.414877    1.175415
     65          1           0       -3.912228    3.342178    1.810217
     66          1           0      -10.002484    4.034437   -0.322863
     67          1           0      -10.671644   -2.243910   -1.322032
     68          1           0       -3.071445   -1.343768    2.061287
     69          1           0       -2.130307    1.488314    1.188789
     70          1           0       -1.522490    0.917061    3.600141
     71          1           0       -3.042532    2.139340    3.640354
     72          1           0       -3.424994    0.560981    3.669354
     73          1           0       -2.273557   -1.904903   -0.250780
     74          1           0       -2.203471   -0.379009   -0.833242
     75          1           0       -0.321322    0.139028    0.915843
     76          1           0       -0.213994   -1.489341    1.281742
     77          1           0       -4.368275    5.987747    0.816454
     78          1           0       -5.695513    6.970699    1.388369
     79          1           0       -4.870711    5.868297    2.432571
     80          1           0       -7.423858    6.982495    0.578850
     81          1           0       -9.850993    6.127019   -1.167567
     82          1           0       -9.515676    7.704133   -0.406593
     83          1           0      -11.876033    3.878844   -0.043378
     84          1           0      -12.161660    3.512754   -2.073066
     85          1           0      -13.235872    2.708101   -0.596138
     86          1           0      -12.733993   -1.274869   -1.117783
     87          1           0      -13.465256    0.313211   -1.140234
     88          1           0      -12.890407    0.773968   -3.515481
     89          1           0      -11.818128   -0.842351   -3.531121
     90          1           0      -13.378850   -0.894195   -3.393411
     91          1           0      -10.205849   -4.483056   -0.747004
     92          1           0       -8.995850   -4.772407   -2.396162
     93          1           0       -8.520252   -5.491992   -0.668853
     94          1           0       -3.711145   -3.403381   -0.253755
     95          1           0       -2.259157   -6.419092    2.553114
     96          1           0       -2.367205   -4.791270    3.537187
     97          1           0       -3.494923   -6.025894    3.383030
     98          1           0        2.560379   -2.045477   -1.467645
     99          1           0        2.423596   -0.406648   -1.996237
    100          1           0        4.108226   -1.199214    0.439455
    101          1           0        5.328690    1.641518   -2.860293
    102          1           0        5.620553   -0.022917   -3.142913
    103          1           0        4.085521    0.411517   -2.961356
    104          1           0        6.284333    1.432079    0.071012
    105          1           0        6.210525   -0.230079    0.606521
    106          1           0        7.177400   -1.482598   -0.935535
    107          1           0        7.864459   -0.086858   -2.067529
    108          1           0        8.912777    0.949636   -0.149790
    109          1           0        8.550208   -0.522181    0.880382
    110          1           0        9.922947   -0.212578   -1.800564
    111          1           0        9.101251   -2.418074   -1.435775
    112          1           0       10.708527   -2.637828   -1.717797
    113          1           0       10.174798   -2.829278   -0.187240
    114          1           0       11.209053    0.809019    0.268013
    115          1           0       11.232097   -0.740347    1.205503
    116          1           0       12.794697   -1.598291   -1.102829
    117          1           0       12.753529    0.095873   -1.580951
    118          1           0       13.563361    0.970838    0.706289
    119          1           0       13.749736   -0.868938    1.370026
    120          1           0       15.182692    0.529207   -1.432355
    121          1           0       14.803115   -2.228176   -1.128185
    122          1           0       16.646722   -1.533605   -1.403295
    123          1           0       16.068241   -2.101199    0.223557
    124          1           0       15.927558    1.485967    0.685071
    125          1           0       16.387331    0.046627    1.466081
    126          1           0       18.065209   -0.281886   -0.386643
    127          1           0       17.430643    1.276063   -1.111750
    128          1           0       17.964767    2.582803    1.013291
    129          1           0       18.605474    1.153858    1.660785
    130          1           0       20.517825    0.769748    0.157940
    131          1           0       19.805786    3.392419   -1.171409
    132          1           0       21.065272    2.363805   -1.598304
    133          1           0       19.477185    1.849794   -1.811956
    134          1           0       21.184148    1.929145    2.080837
    135          1           0       22.036687    2.616003    0.637399
    136          1           0       20.687768    3.427408    1.538975
    137          1           0       -6.778374    1.825153    0.446969
    138          1           0       -7.496642   -0.086205   -0.264311
 ---------------------------------------------------------------------

 SCF Done:  E(RB3LYP) =  -2732.98775114     A.U. after   17 cycles

 Excitation energies and oscillator strengths:

 Excited State   1:      Singlet-A      1.9886 eV  623.48 nm  f=0.1964  <S**2>=0.000
     235 -> 237       -0.15427
     235 -> 238       -0.26145
     236 -> 237        0.62070
     236 -> 238       -0.14648
 This state for optimization and/or second-order correction.
 Total Energy, E(TD-HF/TD-DFT) =  -2732.91467216
 Copying the excited state density for this state as the 1-particle RhoCI density.

 The electronic state is 1-A.
 Alpha  occ. eigenvalues --  -19.18423 -19.16655 -19.12366 -19.12184 -19.11721
 Alpha  occ. eigenvalues --  -14.36371 -14.36364 -14.32938 -14.30501 -10.31633
 Alpha  occ. eigenvalues --  -10.30908 -10.27596 -10.24071 -10.24043 -10.23501
 Alpha  occ. eigenvalues --  -10.23198 -10.23116 -10.22916 -10.22813 -10.22782
 Alpha  occ. eigenvalues --  -10.22736 -10.22511 -10.22318 -10.22032 -10.21909
 Alpha  occ. eigenvalues --  -10.21643 -10.21466 -10.21442 -10.21082 -10.20785
 Alpha  occ. eigenvalues --  -10.20689 -10.20663 -10.20509 -10.20234 -10.20211
 Alpha  occ. eigenvalues --  -10.19973 -10.19958 -10.19890 -10.19832 -10.19750
 Alpha  occ. eigenvalues --  -10.19605 -10.19596 -10.19572 -10.19537 -10.19438
 Alpha  occ. eigenvalues --  -10.19411 -10.19378 -10.19342 -10.19241 -10.19185
 Alpha  occ. eigenvalues --  -10.19171 -10.19120 -10.18860 -10.18721 -10.18690
 Alpha  occ. eigenvalues --  -10.18533 -10.18441 -10.18358 -10.18285 -10.18129
 Alpha  occ. eigenvalues --  -10.17935 -10.16551 -10.16107 -10.15849  -1.11852
 Alpha  occ. eigenvalues --   -1.10251  -1.02679  -1.01806  -1.01716  -1.00391
 Alpha  occ. eigenvalues --   -0.95924  -0.94781  -0.91800  -0.84690  -0.82529
 Alpha  occ. eigenvalues --   -0.82186  -0.82051  -0.81871  -0.80713  -0.80513
 Alpha  occ. eigenvalues --   -0.79967  -0.79758  -0.79619  -0.78685  -0.77838
 Alpha  occ. eigenvalues --   -0.76624  -0.76389  -0.75781  -0.75470  -0.74682
 Alpha  occ. eigenvalues --   -0.73685  -0.73428  -0.72949  -0.71808  -0.71002
 Alpha  occ. eigenvalues --   -0.70763  -0.69816  -0.69166  -0.69059  -0.68460
 Alpha  occ. eigenvalues --   -0.67619  -0.66832  -0.66367  -0.65381  -0.64961
 Alpha  occ. eigenvalues --   -0.64125  -0.63188  -0.63122  -0.62458  -0.60992
 Alpha  occ. eigenvalues --   -0.60913  -0.58623  -0.58175  -0.57613  -0.57477
 Alpha  occ. eigenvalues --   -0.56969  -0.56252  -0.56211  -0.55593  -0.55582
 Alpha  occ. eigenvalues --   -0.55241  -0.54220  -0.53880  -0.53580  -0.52892
 Alpha  occ. eigenvalues --   -0.52432  -0.52233  -0.51727  -0.51353  -0.51068
 Alpha  occ. eigenvalues --   -0.50602  -0.49584  -0.49044  -0.48544  -0.48152
 Alpha  occ. eigenvalues --   -0.48038  -0.47953  -0.47728  -0.47529  -0.47229
 Alpha  occ. eigenvalues --   -0.46765  -0.46649  -0.46128  -0.45868  -0.45783
 Alpha  occ. eigenvalues --   -0.45711  -0.45386  -0.45237  -0.44817  -0.44766
 Alpha  occ. eigenvalues --   -0.44533  -0.44221  -0.43932  -0.43905  -0.43632
 Alpha  occ. eigenvalues --   -0.43570  -0.43357  -0.42986  -0.42887  -0.42508
 Alpha  occ. eigenvalues --   -0.42313  -0.42266  -0.41895  -0.41858  -0.41647
 Alpha  occ. eigenvalues --   -0.41403  -0.40892  -0.40687  -0.40611  -0.40484
 Alpha  occ. eigenvalues --   -0.40215  -0.39978  -0.39777  -0.39668  -0.39443
 Alpha  occ. eigenvalues --   -0.39354  -0.39284  -0.38992  -0.38901  -0.38547
 Alpha  occ. eigenvalues --   -0.38450  -0.38108  -0.38034  -0.37704  -0.37568
 Alpha  occ. eigenvalues --   -0.37418  -0.37154  -0.36975  -0.36865  -0.36677
 Alpha  occ. eigenvalues --   -0.36547  -0.36386  -0.36274  -0.36128  -0.35785
 Alpha  occ. eigenvalues --   -0.35552  -0.35509  -0.35199  -0.35063  -0.34982
 Alpha  occ. eigenvalues --   -0.34698  -0.34305  -0.34048  -0.34029  -0.33864
 Alpha  occ. eigenvalues --   -0.33754  -0.33289  -0.33174  -0.32925  -0.32762
 Alpha  occ. eigenvalues --   -0.31868  -0.31686  -0.31576  -0.31447  -0.31235
 Alpha  occ. eigenvalues --   -0.31066  -0.30812  -0.30528  -0.30438  -0.30393
 Alpha  occ. eigenvalues --   -0.30250  -0.29694  -0.29047  -0.28469  -0.28391
 Alpha  occ. eigenvalues --   -0.28044  -0.27552  -0.27319  -0.25799  -0.25453
 Alpha  occ. eigenvalues --   -0.24512  -0.23498  -0.23094  -0.22869  -0.19959
 Alpha  occ. eigenvalues --   -0.18218
 Alpha virt. eigenvalues --   -0.10069  -0.07664  -0.04885  -0.01821  -0.01613
 Alpha virt. eigenvalues --   -0.00090   0.00768   0.01268   0.01929   0.02713
 Alpha virt. eigenvalues --    0.03548   0.03982   0.04086   0.04439   0.04546

 Mulliken charges:
               1
     1  C    0.090437
     2  C   -0.036850
     3  C   -0.051996
     4  C   -0.123563
     5  N   -0.167538
     6  C   -0.161768
     7  C    0.119189
     8  C   -0.111506
     9  C   -0.009492
    10  C    0.083233
    11  C    0.032543
    12  C    0.120973
    13  C    0.112084
    14  O   -0.193707
    15  O   -0.303147
    16  N    0.003118
    17  C    0.027360
    18  C   -0.113145
    19  C    0.003937
    20  C    0.122771
    21  C    0.154083
    22  C    0.087324
    23  C   -0.107298
    24  N   -0.275945
    25  C    0.009680
    26  C   -0.129030
    27  C   -0.061974
    28  C    0.079882
    29  C   -0.018717
    30  C    0.075724
    31  C    0.088640
    32  N   -0.128802
    33  C    0.093007
    34  C   -0.101468
    35  C   -0.002951
    36  C    0.070881
    37  C   -0.019586
    38  C    0.070900
    39  O   -0.187505
    40  C   -0.099106
    41  C    0.182767
    42  O   -0.219285
    43  O   -0.302832
    44  C    0.285175
    45  C    0.385338
    46  C   -0.119459
    47  C   -0.168382
    48  C    0.121985
    49  C    0.081987
    50  C   -0.016477
    51  C   -0.074997
    52  C   -0.023470
    53  C    0.230385
    54  C   -0.067326
    55  C    0.062343
    56  C   -0.050731
    57  C   -0.137095
    58  C   -0.029913
    59  C    0.142217
    60  C   -0.015767
    61  C    0.046120
    62  C   -0.037150
    63  C    0.114285
    64  C   -0.005433
    65  H   -0.079793
    66  H   -0.050088
    67  H    0.016460
    68  H   -0.004886
    69  H    0.032587
    70  H    0.038341
    71  H    0.022032
    72  H   -0.039863
    73  H   -0.022657
    74  H    0.018260
    75  H    0.018673
    76  H    0.003009
    77  H    0.005375
    78  H    0.015227
    79  H    0.010028
    80  H   -0.075792
    81  H    0.036418
    82  H    0.028357
    83  H    0.053217
    84  H    0.075116
    85  H    0.034758
    86  H    0.011942
    87  H   -0.039747
    88  H    0.024767
    89  H    0.017490
    90  H   -0.066052
    91  H    0.057355
    92  H    0.070080
    93  H    0.060894
    94  H    0.093097
    95  H    0.018579
    96  H    0.026795
    97  H   -0.001940
    98  H   -0.020641
    99  H   -0.005017
   100  H   -0.009210
   101  H    0.029598
   102  H    0.000032
   103  H   -0.035624
   104  H    0.024615
   105  H   -0.034677
   106  H    0.019337
   107  H    0.014091
   108  H    0.000864
   109  H   -0.007652
   110  H   -0.015803
   111  H   -0.054825
   112  H   -0.011748
   113  H   -0.029900
   114  H    0.001895
   115  H    0.009925
   116  H    0.006553
   117  H    0.000379
   118  H    0.016454
   119  H    0.017045
   120  H    0.006688
   121  H    0.027029
   122  H    0.035727
   123  H    0.009046
   124  H   -0.054129
   125  H   -0.015459
   126  H    0.001275
   127  H    0.001590
   128  H   -0.009225
   129  H   -0.044266
   130  H   -0.008740
   131  H   -0.013188
   132  H   -0.012201
   133  H   -0.025222
   134  H   -0.004090
   135  H    0.006636
   136  H   -0.003821
   137  H    0.148697
   138  H    0.204964
 Sum of Mulliken charges =  -0.00000

 Dipole moment (field-independent basis, Debye):
    X=              1.4350    Y=              2.1329    Z=              1.1350  Tot=              2.8101
 Quadrupole moment (field-independent basis, Debye-Ang):
   XX=           -357.0415   YY=           -384.2064   ZZ=           -392.3686
   XY=            -15.9434   XZ=              7.3401   YZ=             -5.6350

 Normal termination of Gaussian 16 at Thu Aug 29 18:38:37 2019.
