 Gaussian 16, Revision A.03,
 Gaussian 16:  ES64L-G16RevA.03 25-Dec-2016

 --------------------------
 # td=(NStates=1) B3LYP/SVP
 --------------------------

 --
 TD
 --
 Symbolic Z-matrix:
 Charge =  0 Multiplicity = 1

                         Standard orientation:
 ---------------------------------------------------------------------
 Center     Atomic      Atomic             Coordinates (Angstroms)
 Number     Number       Type             X           Y           Z
 ---------------------------------------------------------------------
      1          6           0       -5.136462   -1.992862    0.575818
      2          6           0       -4.677006    2.728261    1.521121
      3          6           0       -9.275295    3.275965   -0.203586
      4          6           0       -9.848749   -1.468382   -1.030269
      5          7           0       -5.221175    0.540029    0.972636
      6          6           0       -4.508316   -0.729744    0.914779
      7          6           0       -3.105400   -0.590882    1.392127
      8          6           0       -3.128990    0.747710    2.000823
      9          6           0       -4.378169    1.385918    1.526257
     10          6           0       -2.896155    0.725244    3.608537
     11          6           0       -2.078914   -0.763951    0.215215
     12          6           0       -0.617542   -0.792738    0.601383
     13          6           0        0.241690   -1.006703   -0.526049
     14          8           0       -0.089656   -1.476813   -1.595564
     15          8           0        1.460832   -0.582648   -0.202837
     16          7           0       -6.987592    2.727919    0.669957
     17          6           0       -5.886748    3.289771    1.169495
     18          6           0       -6.197686    4.698046    1.161872
     19          6           0       -7.417359    4.980035    0.635059
     20          6           0       -7.971922    3.610364    0.351563
     21          6           0       -5.184198    5.866404    1.567702
     22          6           0       -8.035297    6.247615    0.343477
     23          6           0       -8.992029    6.537307   -0.628122
     24          7           0       -9.219418    0.800394   -0.383003
     25          6           0       -9.817809    2.009541   -0.455959
     26          6           0      -11.236218    1.917010   -1.080525
     27          6           0      -11.442600    0.567449   -1.245831
     28          6           0      -10.140854   -0.027516   -0.905993
     29          6           0      -12.118979    3.068417   -1.330814
     30          6           0      -12.685041   -0.027175   -1.809749
     31          6           0      -12.567637   -0.278876   -3.438195
     32          7           0       -7.509040   -1.264090   -0.308642
     33          6           0       -8.534796   -1.985107   -0.749260
     34          6           0       -8.134928   -3.402834   -0.789065
     35          6           0       -6.885739   -3.440606   -0.256876
     36          6           0       -6.487554   -2.065392    0.082472
     37          6           0       -9.179814   -4.543203   -1.182764
     38          6           0       -5.684984   -4.361197    0.064374
     39          8           0       -5.592118   -5.507168   -0.072086
     40          6           0       -4.534305   -3.276502    0.464347
     41          6           0       -3.954625   -3.868303    1.826623
     42          8           0       -4.209683   -3.474866    2.885291
     43          8           0       -3.000856   -4.846397    1.600431
     44          6           0       -2.559386   -5.663711    2.693639
     45          6           0        2.575848   -0.917291   -1.107384
     46          6           0        3.966893   -0.633642   -0.614455
     47          6           0        4.944110    0.082460   -1.204355
     48          6           0        4.822070    0.832931   -2.563365
     49          6           0        6.309184    0.280334   -0.460390
     50          6           0        7.429820   -0.363182   -1.134080
     51          6           0        8.723377   -0.242170   -0.262451
     52          6           0       10.017327   -0.710999   -0.955568
     53          6           0        9.974182   -2.295442   -1.048860
     54          6           0       11.276615   -0.265434   -0.200131
     55          6           0       12.676143   -0.572377   -0.670137
     56          6           0       13.716954    0.092415    0.135510
     57          6           0       15.239684   -0.158269   -0.415535
     58          6           0       15.695104   -1.692783   -0.257752
     59          6           0       16.179616    0.842652    0.266972
     60          6           0       17.742161    0.620618   -0.094770
     61          6           0       18.566980    1.625968    0.579203
     62          6           0       20.142085    1.613830    0.156725
     63          6           0       20.333463    1.809329   -1.299143
     64          6           0       20.826641    2.502565    1.175723
     65          1           0       -4.059531    3.519132    2.004577
     66          1           0       -9.882033    4.142825   -0.326162
     67          1           0      -10.530517   -2.278042   -1.492479
     68          1           0       -2.969562   -1.461996    2.209579
     69          1           0       -2.221856    1.081359    1.733920
     70          1           0       -1.817647    0.364871    3.982022
     71          1           0       -3.156719    1.689114    4.016764
     72          1           0       -3.610377    0.105808    4.099013
     73          1           0       -2.209695   -1.732854   -0.179945
     74          1           0       -2.301530   -0.129093   -0.717095
     75          1           0       -0.356347    0.144674    1.208985
     76          1           0       -0.221713   -1.698550    1.312691
     77          1           0       -4.345074    5.694177    0.997810
     78          1           0       -5.425288    6.954337    1.773330
     79          1           0       -4.822221    5.714051    2.589473
     80          1           0       -7.542366    7.085310    0.980621
     81          1           0       -9.245028    5.873019   -1.379490
     82          1           0       -9.364243    7.500724   -0.497607
     83          1           0      -12.716594    3.290445   -0.445583
     84          1           0      -11.713349    4.168790   -1.801243
     85          1           0      -12.859687    2.862217   -2.274055
     86          1           0      -12.911419   -1.059843   -1.496088
     87          1           0      -13.307743    0.654301   -1.542321
     88          1           0      -12.100262    0.724293   -3.825872
     89          1           0      -11.729393   -0.954473   -3.261449
     90          1           0      -13.482893   -0.765028   -3.986550
     91          1           0      -10.193221   -4.370055   -0.673454
     92          1           0       -9.546311   -4.290673   -2.297104
     93          1           0       -8.643963   -5.564608   -1.036721
     94          1           0       -3.692147   -3.246297   -0.347791
     95          1           0       -1.896238   -6.516457    2.152825
     96          1           0       -2.120333   -4.854701    3.203151
     97          1           0       -3.572674   -5.938894    3.201034
     98          1           0        2.554529   -1.866922   -1.413977
     99          1           0        2.463227   -0.371801   -2.101431
    100          1           0        4.223274   -1.129770    0.276526
    101          1           0        5.159298    2.001888   -2.429391
    102          1           0        5.377167    0.515161   -3.095685
    103          1           0        3.796909    0.822428   -2.938684
    104          1           0        6.451890    1.306099   -0.428465
    105          1           0        6.015733   -0.357413    0.493829
    106          1           0        7.339093   -1.356301   -1.210455
    107          1           0        7.458449    0.223611   -2.096814
    108          1           0        8.882863    0.826021   -0.034990
    109          1           0        8.491059   -0.748749    0.766848
    110          1           0       10.101899   -0.341206   -1.964719
    111          1           0        9.291929   -2.722027   -1.961133
    112          1           0       10.914882   -2.749357   -1.259410
    113          1           0        9.974117   -2.680688    0.023126
    114          1           0       11.129761    0.908157   -0.041832
    115          1           0       11.352942   -0.569861    0.848060
    116          1           0       12.866272   -1.670569   -0.670440
    117          1           0       12.805926   -0.229893   -1.703084
    118          1           0       13.613583    1.226881    0.293928
    119          1           0       13.936988   -0.246241    1.167411
    120          1           0       15.058850    0.161081   -1.385143
    121          1           0       15.027167   -2.228540   -0.705704
    122          1           0       16.673826   -2.023263   -0.582505
    123          1           0       15.888397   -2.038714    0.822428
    124          1           0       15.911093    1.809545    0.524738
    125          1           0       16.161044    0.627068    1.320027
    126          1           0       18.189296   -0.332376    0.162104
    127          1           0       17.946425    0.752955   -1.194217
    128          1           0       18.071582    2.613471    0.472388
    129          1           0       18.577808    1.617659    1.762159
    130          1           0       20.369544    0.548613    0.234057
    131          1           0       19.882454    2.820389   -1.666442
    132          1           0       21.554093    1.978260   -1.358768
    133          1           0       20.023360    1.042852   -2.156946
    134          1           0       20.476492    2.421727    2.308564
    135          1           0       21.932112    2.321451    1.159124
    136          1           0       20.723289    3.668999    0.969497
    137          1           0       -7.061512    1.573057    0.766650
    138          1           0       -7.617347   -0.283529   -0.090826
 ---------------------------------------------------------------------

 SCF Done:  E(RB3LYP) =  -2732.97504237     A.U. after   16 cycles

 Excitation energies and oscillator strengths:

 Excited State   1:      Singlet-A      1.9988 eV  620.28 nm  f=0.1761  <S**2>=0.000
     235 -> 237       -0.11094
     235 -> 238        0.28080
     236 -> 237        0.63016
     236 -> 238        0.10435
 This state for optimization and/or second-order correction.
 Total Energy, E(TD-HF/TD-DFT) =  -2732.90158661
 Copying the excited state density for this state as the 1-particle RhoCI density.

 The electronic state is 1-A.
 Alpha  occ. eigenvalues --  -19.17855 -19.15800 -19.13942 -19.13342 -19.11987
 Alpha  occ. eigenvalues --  -14.37339 -14.37162 -14.32924 -14.30477 -10.31575
 Alpha  occ. eigenvalues --  -10.30998 -10.29060 -10.25343 -10.24433 -10.23784
 Alpha  occ. eigenvalues --  -10.23605 -10.23461 -10.23115 -10.22970 -10.22415
 Alpha  occ. eigenvalues --  -10.22131 -10.22117 -10.22065 -10.21635 -10.21408
 Alpha  occ. eigenvalues --  -10.21312 -10.21276 -10.21152 -10.21112 -10.20745
 Alpha  occ. eigenvalues --  -10.20727 -10.20325 -10.20321 -10.20217 -10.19809
 Alpha  occ. eigenvalues --  -10.19765 -10.19716 -10.19619 -10.19568 -10.19562
 Alpha  occ. eigenvalues --  -10.19430 -10.19419 -10.19345 -10.19174 -10.19173
 Alpha  occ. eigenvalues --  -10.19123 -10.19102 -10.19092 -10.19060 -10.18961
 Alpha  occ. eigenvalues --  -10.18872 -10.18846 -10.18756 -10.18713 -10.18516
 Alpha  occ. eigenvalues --  -10.18472 -10.18435 -10.18394 -10.18223 -10.17894
 Alpha  occ. eigenvalues --  -10.17827 -10.17807 -10.17495 -10.17392  -1.10021
 Alpha  occ. eigenvalues --   -1.09335  -1.06989  -1.01621  -1.00341  -0.99478
 Alpha  occ. eigenvalues --   -0.98570  -0.94481  -0.93864  -0.84805  -0.83173
 Alpha  occ. eigenvalues --   -0.82105  -0.81612  -0.80875  -0.80672  -0.80245
 Alpha  occ. eigenvalues --   -0.79824  -0.79516  -0.79269  -0.78424  -0.77692
 Alpha  occ. eigenvalues --   -0.77110  -0.75524  -0.75219  -0.74736  -0.74029
 Alpha  occ. eigenvalues --   -0.73543  -0.72470  -0.72381  -0.71977  -0.70066
 Alpha  occ. eigenvalues --   -0.69658  -0.68884  -0.68485  -0.68076  -0.67786
 Alpha  occ. eigenvalues --   -0.66999  -0.66854  -0.66423  -0.65809  -0.65345
 Alpha  occ. eigenvalues --   -0.64009  -0.63458  -0.62455  -0.61993  -0.61081
 Alpha  occ. eigenvalues --   -0.60955  -0.58726  -0.58476  -0.58061  -0.57747
 Alpha  occ. eigenvalues --   -0.57256  -0.56614  -0.56220  -0.55918  -0.55563
 Alpha  occ. eigenvalues --   -0.54950  -0.54839  -0.54051  -0.53460  -0.53329
 Alpha  occ. eigenvalues --   -0.52923  -0.52366  -0.51230  -0.50943  -0.50740
 Alpha  occ. eigenvalues --   -0.50479  -0.49554  -0.49222  -0.48980  -0.48275
 Alpha  occ. eigenvalues --   -0.47649  -0.47532  -0.47478  -0.47252  -0.46918
 Alpha  occ. eigenvalues --   -0.46677  -0.46453  -0.46032  -0.45810  -0.45648
 Alpha  occ. eigenvalues --   -0.45477  -0.45194  -0.45173  -0.44734  -0.44580
 Alpha  occ. eigenvalues --   -0.44484  -0.44178  -0.44114  -0.43967  -0.43847
 Alpha  occ. eigenvalues --   -0.43684  -0.43474  -0.43156  -0.42896  -0.42600
 Alpha  occ. eigenvalues --   -0.42531  -0.42141  -0.41964  -0.41727  -0.41679
 Alpha  occ. eigenvalues --   -0.41210  -0.40989  -0.40881  -0.40705  -0.40428
 Alpha  occ. eigenvalues --   -0.40187  -0.40008  -0.39930  -0.39599  -0.39416
 Alpha  occ. eigenvalues --   -0.39075  -0.39039  -0.38916  -0.38745  -0.38596
 Alpha  occ. eigenvalues --   -0.38558  -0.38276  -0.38132  -0.38098  -0.37666
 Alpha  occ. eigenvalues --   -0.37608  -0.37207  -0.36858  -0.36749  -0.36511
 Alpha  occ. eigenvalues --   -0.36313  -0.36234  -0.35932  -0.35718  -0.35572
 Alpha  occ. eigenvalues --   -0.35379  -0.35309  -0.35000  -0.34874  -0.34800
 Alpha  occ. eigenvalues --   -0.34762  -0.34439  -0.34080  -0.34006  -0.33612
 Alpha  occ. eigenvalues --   -0.33555  -0.33385  -0.33146  -0.32910  -0.32750
 Alpha  occ. eigenvalues --   -0.32194  -0.32086  -0.32036  -0.31311  -0.30927
 Alpha  occ. eigenvalues --   -0.30804  -0.30537  -0.30470  -0.30298  -0.30185
 Alpha  occ. eigenvalues --   -0.29350  -0.29289  -0.28735  -0.28631  -0.27937
 Alpha  occ. eigenvalues --   -0.27502  -0.27227  -0.27157  -0.26482  -0.25940
 Alpha  occ. eigenvalues --   -0.25560  -0.25313  -0.23233  -0.23029  -0.19621
 Alpha  occ. eigenvalues --   -0.18106
 Alpha virt. eigenvalues --   -0.09737  -0.07450  -0.04090  -0.02361  -0.00315
 Alpha virt. eigenvalues --   -0.00105   0.00348   0.01168   0.01675   0.03602
 Alpha virt. eigenvalues --    0.04057   0.04129   0.04460   0.04755   0.05052

 Mulliken charges:
               1
     1  C    0.021789
     2  C   -0.079039
     3  C   -0.060356
     4  C   -0.078185
     5  N   -0.228641
     6  C   -0.013009
     7  C   -0.115927
     8  C    0.121519
     9  C    0.054364
    10  C    0.027786
    11  C    0.082533
    12  C   -0.019251
    13  C    0.168456
    14  O   -0.242585
    15  O   -0.313830
    16  N   -0.079517
    17  C    0.051398
    18  C   -0.127454
    19  C    0.030104
    20  C    0.023032
    21  C    0.099794
    22  C   -0.097002
    23  C    0.041625
    24  N   -0.210289
    25  C    0.087881
    26  C   -0.113664
    27  C   -0.115727
    28  C    0.062879
    29  C   -0.034134
    30  C    0.148564
    31  C   -0.055851
    32  N    0.044078
    33  C   -0.007037
    34  C   -0.170267
    35  C   -0.051108
    36  C    0.047761
    37  C    0.023060
    38  C    0.115640
    39  O   -0.086177
    40  C   -0.157064
    41  C    0.178467
    42  O   -0.162330
    43  O   -0.354375
    44  C    0.159129
    45  C    0.345321
    46  C   -0.094376
    47  C   -0.183263
    48  C    0.243940
    49  C    0.085088
    50  C    0.083869
    51  C    0.008442
    52  C    0.011784
    53  C   -0.005222
    54  C   -0.032632
    55  C    0.124367
    56  C   -0.083574
    57  C   -0.003486
    58  C    0.091123
    59  C    0.071114
    60  C    0.079142
    61  C   -0.071117
    62  C   -0.027756
    63  C   -0.068399
    64  C   -0.010460
    65  H   -0.024589
    66  H   -0.041459
    67  H    0.006150
    68  H    0.047680
    69  H   -0.062707
    70  H    0.035049
    71  H    0.000330
    72  H    0.009611
    73  H   -0.015594
    74  H    0.032553
    75  H    0.043307
    76  H    0.056882
    77  H    0.006916
    78  H    0.032063
    79  H    0.001628
    80  H    0.014941
    81  H    0.015783
    82  H    0.010874
    83  H    0.043035
    84  H    0.047679
    85  H    0.035413
    86  H   -0.001546
    87  H   -0.042539
    88  H    0.033525
    89  H    0.007639
    90  H    0.051221
    91  H    0.045967
    92  H    0.039267
    93  H    0.070371
    94  H    0.100337
    95  H    0.079756
    96  H    0.021073
    97  H    0.048886
    98  H   -0.015031
    99  H    0.002814
   100  H   -0.031702
   101  H    0.019056
   102  H   -0.122824
   103  H    0.013370
   104  H   -0.013097
   105  H    0.005058
   106  H   -0.040727
   107  H   -0.001951
   108  H   -0.020145
   109  H    0.008424
   110  H   -0.018336
   111  H    0.041065
   112  H   -0.018075
   113  H    0.003921
   114  H   -0.004576
   115  H   -0.015549
   116  H    0.007178
   117  H   -0.018043
   118  H    0.002990
   119  H   -0.009582
   120  H   -0.028955
   121  H   -0.041207
   122  H    0.001539
   123  H    0.004790
   124  H   -0.044908
   125  H   -0.043914
   126  H   -0.008691
   127  H   -0.004723
   128  H   -0.017532
   129  H   -0.012341
   130  H   -0.008730
   131  H    0.014184
   132  H    0.016696
   133  H    0.053116
   134  H    0.032683
   135  H    0.011239
   136  H    0.021196
   137  H    0.224098
   138  H    0.126779
 Sum of Mulliken charges =  -0.00000

 Dipole moment (field-independent basis, Debye):
    X=              3.6823    Y=              2.3732    Z=              0.8078  Tot=              4.4547
 Quadrupole moment (field-independent basis, Debye-Ang):
   XX=           -358.4055   YY=           -380.9526   ZZ=           -395.2546
   XY=            -20.7989   XZ=              6.5658   YZ=             -0.3361

 Normal termination of Gaussian 16 at Thu Aug 15 15:42:43 2019.
