 Gaussian 16, Revision A.03,
 Gaussian 16:  ES64L-G16RevA.03 25-Dec-2016

 --------------------------
 # td=(NStates=1) B3LYP/SVP
 --------------------------

 --
 TD
 --
 Symbolic Z-matrix:
 Charge =  0 Multiplicity = 1

                         Standard orientation:
 ---------------------------------------------------------------------
 Center     Atomic      Atomic             Coordinates (Angstroms)
 Number     Number       Type             X           Y           Z
 ---------------------------------------------------------------------
      1          6           0       -5.205719   -2.103141    0.377742
      2          6           0       -4.480228    2.639696    1.669153
      3          6           0       -8.925812    3.584664   -0.230316
      4          6           0       -9.799906   -1.128643   -1.047432
      5          7           0       -5.087409    0.331198    0.809060
      6          6           0       -4.594881   -0.852439    0.842208
      7          6           0       -3.217783   -0.860672    1.261006
      8          6           0       -3.082032    0.551265    1.964570
      9          6           0       -4.310580    1.235449    1.382289
     10          6           0       -2.987862    0.490093    3.461199
     11          6           0       -2.030543   -1.089037    0.249148
     12          6           0       -0.638839   -1.101860    0.679441
     13          6           0        0.451109   -1.440101   -0.308191
     14          8           0        0.089956   -1.825244   -1.477469
     15          8           0        1.706862   -1.277812    0.052241
     16          7           0       -6.851042    2.786129    0.689016
     17          6           0       -5.616540    3.323889    1.153437
     18          6           0       -5.742802    4.749170    1.172073
     19          6           0       -6.934021    5.074614    0.591665
     20          6           0       -7.659596    3.827856    0.264053
     21          6           0       -4.742760    5.682940    1.715082
     22          6           0       -7.524185    6.384838    0.477907
     23          6           0       -8.391478    6.988011   -0.306710
     24          7           0       -9.025347    1.137600   -0.577065
     25          6           0       -9.567721    2.343080   -0.571848
     26          6           0      -10.989337    2.300615   -1.106138
     27          6           0      -11.313652    0.951835   -1.289828
     28          6           0      -10.023205    0.343625   -0.982312
     29          6           0      -11.773977    3.542260   -1.426222
     30          6           0      -12.549741    0.334071   -1.716380
     31          6           0      -12.613777    0.072135   -3.239195
     32          7           0       -7.559714   -1.153271   -0.254909
     33          6           0       -8.671752   -1.820266   -0.630716
     34          6           0       -8.362789   -3.207443   -0.824323
     35          6           0       -7.090790   -3.401891   -0.334001
     36          6           0       -6.579962   -2.059809    0.104986
     37          6           0       -9.366160   -4.290992   -1.160480
     38          6           0       -5.980006   -4.333237   -0.224875
     39          8           0       -5.874054   -5.559829   -0.456871
     40          6           0       -4.712950   -3.461113    0.384040
     41          6           0       -4.184221   -3.974567    1.625015
     42          8           0       -4.325363   -3.470493    2.719041
     43          8           0       -3.328304   -4.987396    1.457505
     44          6           0       -3.040041   -5.602051    2.693561
     45          6           0        2.742300   -1.507896   -0.929492
     46          6           0        4.002741   -1.094408   -0.461912
     47          6           0        4.798049   -0.100241   -0.961983
     48          6           0        4.590796    0.533191   -2.290288
     49          6           0        6.168972    0.189791   -0.376566
     50          6           0        7.346353   -0.663000   -0.936022
     51          6           0        8.597043   -0.331759   -0.192036
     52          6           0        9.918346   -0.839040   -0.876696
     53          6           0       10.000326   -2.369926   -0.982247
     54          6           0       11.110992   -0.323625   -0.086147
     55          6           0       12.581947   -0.635431   -0.598918
     56          6           0       13.725897   -0.067483    0.183767
     57          6           0       15.100960   -0.205187   -0.420574
     58          6           0       15.656778   -1.754573   -0.425504
     59          6           0       16.055307    0.719243    0.403927
     60          6           0       17.540493    0.848737   -0.150493
     61          6           0       18.338893    1.726213    0.669736
     62          6           0       19.827082    1.936197   -0.049772
     63          6           0       19.821287    2.606539   -1.424660
     64          6           0       20.818355    2.683179    0.872241
     65          1           0       -3.682497    3.266883    2.068441
     66          1           0       -9.489397    4.451781   -0.246314
     67          1           0      -10.641450   -1.796238   -1.697604
     68          1           0       -3.230370   -1.762023    2.007565
     69          1           0       -2.144159    1.123039    1.593518
     70          1           0       -2.191224   -0.112425    4.060916
     71          1           0       -2.796403    1.620871    3.725326
     72          1           0       -4.005508    0.025970    3.981061
     73          1           0       -1.990883   -2.081453   -0.390117
     74          1           0       -2.080406   -0.653186   -0.722196
     75          1           0       -0.230909   -0.053299    0.983838
     76          1           0       -0.455775   -1.599418    1.472081
     77          1           0       -3.861448    5.755841    1.096584
     78          1           0       -5.038638    6.862863    1.594351
     79          1           0       -4.634847    5.423121    2.693915
     80          1           0       -7.111239    7.121159    1.153312
     81          1           0       -8.631423    6.293618   -1.090186
     82          1           0       -8.635076    8.019739   -0.236415
     83          1           0      -11.683872    4.125358   -0.521049
     84          1           0      -11.438241    4.200614   -2.473430
     85          1           0      -12.703179    3.174324   -1.504187
     86          1           0      -12.727231   -0.663898   -1.198354
     87          1           0      -13.523999    0.889822   -1.511049
     88          1           0      -12.410264    0.797203   -3.792948
     89          1           0      -11.660969   -0.537490   -3.728452
     90          1           0      -13.382685   -0.484396   -3.523970
     91          1           0      -10.186661   -4.274930   -0.407763
     92          1           0       -9.803288   -4.226171   -2.235647
     93          1           0       -8.846961   -5.263241   -1.356250
     94          1           0       -3.905352   -3.464205   -0.477454
     95          1           0       -2.327356   -6.456699    2.472594
     96          1           0       -2.563186   -5.110320    3.576983
     97          1           0       -3.933741   -5.851932    3.271386
     98          1           0        2.841058   -2.564521   -0.888345
     99          1           0        2.359900   -1.308734   -1.901683
    100          1           0        4.311152   -1.531966    0.561901
    101          1           0        4.557528    1.572434   -2.293273
    102          1           0        5.487042    0.205519   -2.782490
    103          1           0        3.679843    0.350025   -2.827385
    104          1           0        6.591135    1.288186   -0.452675
    105          1           0        5.994329    0.197491    0.710969
    106          1           0        7.109801   -1.810816   -0.840464
    107          1           0        7.556222   -0.483118   -1.982942
    108          1           0        8.762457    0.789083   -0.065565
    109          1           0        8.553111   -0.649060    0.859334
    110          1           0        9.971884   -0.352888   -1.836150
    111          1           0        9.217647   -2.820720   -1.508676
    112          1           0       10.711849   -2.768876   -1.616195
    113          1           0       10.281825   -2.934237    0.128634
    114          1           0       11.159833    0.898291    0.226395
    115          1           0       11.280029   -0.758431    0.930133
    116          1           0       12.710203   -1.770481   -0.806871
    117          1           0       12.474256   -0.062562   -1.547726
    118          1           0       13.262426    0.829125    0.462910
    119          1           0       13.689224   -0.549860    0.994323
    120          1           0       15.204554    0.066075   -1.529307
    121          1           0       14.642430   -2.310777   -0.920416
    122          1           0       16.381045   -2.067064   -1.063365
    123          1           0       15.620429   -2.396982    0.548855
    124          1           0       15.753692    1.660342    0.536032
    125          1           0       16.096087    0.246535    1.462176
    126          1           0       17.979027   -0.204223   -0.090828
    127          1           0       17.472458    1.179426   -1.185665
    128          1           0       17.645334    2.704653    0.858552
    129          1           0       18.447854    1.373950    1.677700
    130          1           0       20.204530    0.880468   -0.271527
    131          1           0       19.496718    3.843976   -1.199740
    132          1           0       20.890246    2.708650   -2.005053
    133          1           0       19.127124    2.206991   -1.905975
    134          1           0       21.178594    2.262608    1.846727
    135          1           0       21.820085    2.827392    0.410514
    136          1           0       20.536995    3.710140    1.167137
    137          1           0       -7.129726    1.892129    0.868060
    138          1           0       -7.400043   -0.114659   -0.200610
 ---------------------------------------------------------------------

 SCF Done:  E(RB3LYP) =  -2732.97539304     A.U. after   17 cycles

 Excitation energies and oscillator strengths:

 Excited State   1:      Singlet-A      1.9618 eV  632.00 nm  f=0.1504  <S**2>=0.000
     235 -> 238        0.31542
     236 -> 237        0.62156
 This state for optimization and/or second-order correction.
 Total Energy, E(TD-HF/TD-DFT) =  -2732.90329937
 Copying the excited state density for this state as the 1-particle RhoCI density.

 The electronic state is 1-A.
 Alpha  occ. eigenvalues --  -19.18576 -19.18420 -19.12649 -19.12422 -19.10937
 Alpha  occ. eigenvalues --  -14.37196 -14.36742 -14.32105 -14.30062 -10.31585
 Alpha  occ. eigenvalues --  -10.31434 -10.28926 -10.24181 -10.24102 -10.23846
 Alpha  occ. eigenvalues --  -10.23669 -10.23613 -10.23435 -10.23280 -10.22956
 Alpha  occ. eigenvalues --  -10.21923 -10.21886 -10.21746 -10.21390 -10.21346
 Alpha  occ. eigenvalues --  -10.20875 -10.20780 -10.20764 -10.20647 -10.20487
 Alpha  occ. eigenvalues --  -10.20437 -10.20392 -10.20263 -10.20258 -10.20205
 Alpha  occ. eigenvalues --  -10.20191 -10.20169 -10.20136 -10.20078 -10.19909
 Alpha  occ. eigenvalues --  -10.19785 -10.19766 -10.19641 -10.19518 -10.19438
 Alpha  occ. eigenvalues --  -10.19420 -10.19251 -10.19129 -10.19099 -10.19082
 Alpha  occ. eigenvalues --  -10.18993 -10.18985 -10.18903 -10.18837 -10.18721
 Alpha  occ. eigenvalues --  -10.18555 -10.18538 -10.18220 -10.18075 -10.17880
 Alpha  occ. eigenvalues --  -10.17703 -10.17606 -10.16831 -10.16126  -1.11132
 Alpha  occ. eigenvalues --   -1.09722  -1.00879  -1.00701  -0.98490  -0.97552
 Alpha  occ. eigenvalues --   -0.97207  -0.96940  -0.94626  -0.85273  -0.83364
 Alpha  occ. eigenvalues --   -0.82964  -0.82212  -0.81266  -0.81067  -0.80789
 Alpha  occ. eigenvalues --   -0.80416  -0.80173  -0.79687  -0.78298  -0.78114
 Alpha  occ. eigenvalues --   -0.77471  -0.76621  -0.76158  -0.75751  -0.75075
 Alpha  occ. eigenvalues --   -0.74439  -0.73238  -0.73023  -0.72077  -0.71649
 Alpha  occ. eigenvalues --   -0.70143  -0.69980  -0.68918  -0.68396  -0.67687
 Alpha  occ. eigenvalues --   -0.67417  -0.67383  -0.66601  -0.65922  -0.65799
 Alpha  occ. eigenvalues --   -0.64248  -0.63470  -0.63262  -0.62854  -0.61615
 Alpha  occ. eigenvalues --   -0.61377  -0.58962  -0.58820  -0.57936  -0.57437
 Alpha  occ. eigenvalues --   -0.57249  -0.56919  -0.56550  -0.56431  -0.56060
 Alpha  occ. eigenvalues --   -0.55598  -0.55538  -0.54943  -0.54227  -0.54152
 Alpha  occ. eigenvalues --   -0.52825  -0.52457  -0.52050  -0.51739  -0.50662
 Alpha  occ. eigenvalues --   -0.50504  -0.49966  -0.49159  -0.48999  -0.48893
 Alpha  occ. eigenvalues --   -0.48415  -0.48135  -0.47777  -0.47446  -0.47335
 Alpha  occ. eigenvalues --   -0.47025  -0.46481  -0.46419  -0.46182  -0.45961
 Alpha  occ. eigenvalues --   -0.45614  -0.45414  -0.45281  -0.45083  -0.44901
 Alpha  occ. eigenvalues --   -0.44767  -0.44588  -0.44377  -0.43731  -0.43552
 Alpha  occ. eigenvalues --   -0.43305  -0.43229  -0.43116  -0.42889  -0.42500
 Alpha  occ. eigenvalues --   -0.42291  -0.42264  -0.42090  -0.41989  -0.41670
 Alpha  occ. eigenvalues --   -0.41525  -0.41156  -0.40924  -0.40740  -0.40461
 Alpha  occ. eigenvalues --   -0.40368  -0.40311  -0.40107  -0.39864  -0.39632
 Alpha  occ. eigenvalues --   -0.39344  -0.39221  -0.39048  -0.39042  -0.38091
 Alpha  occ. eigenvalues --   -0.38025  -0.37875  -0.37597  -0.37545  -0.37423
 Alpha  occ. eigenvalues --   -0.37258  -0.37129  -0.36956  -0.36828  -0.36610
 Alpha  occ. eigenvalues --   -0.36502  -0.36294  -0.36054  -0.35876  -0.35844
 Alpha  occ. eigenvalues --   -0.35605  -0.35209  -0.34988  -0.34879  -0.34723
 Alpha  occ. eigenvalues --   -0.34622  -0.34239  -0.34104  -0.33928  -0.33805
 Alpha  occ. eigenvalues --   -0.33680  -0.32948  -0.32814  -0.32312  -0.32242
 Alpha  occ. eigenvalues --   -0.31860  -0.31734  -0.31674  -0.31514  -0.31325
 Alpha  occ. eigenvalues --   -0.31014  -0.30849  -0.30309  -0.30013  -0.29804
 Alpha  occ. eigenvalues --   -0.29109  -0.28675  -0.28388  -0.28119  -0.28074
 Alpha  occ. eigenvalues --   -0.27280  -0.26979  -0.26606  -0.26467  -0.25358
 Alpha  occ. eigenvalues --   -0.24960  -0.24762  -0.24302  -0.22669  -0.19939
 Alpha  occ. eigenvalues --   -0.18445
 Alpha virt. eigenvalues --   -0.10061  -0.08439  -0.05083  -0.01581  -0.01194
 Alpha virt. eigenvalues --   -0.01028   0.00214   0.00382   0.02294   0.03685
 Alpha virt. eigenvalues --    0.04270   0.04295   0.04595   0.04750   0.05212

 Mulliken charges:
               1
     1  C   -0.084662
     2  C   -0.086688
     3  C   -0.057985
     4  C   -0.140666
     5  N   -0.081528
     6  C   -0.043679
     7  C   -0.026721
     8  C   -0.055886
     9  C    0.013045
    10  C   -0.019060
    11  C    0.053008
    12  C    0.139273
    13  C    0.153310
    14  O   -0.325214
    15  O   -0.288608
    16  N   -0.067925
    17  C    0.109268
    18  C   -0.140039
    19  C    0.127620
    20  C    0.061605
    21  C    0.106371
    22  C   -0.121311
    23  C    0.017060
    24  N   -0.165104
    25  C    0.062692
    26  C   -0.202624
    27  C   -0.041019
    28  C    0.016525
    29  C    0.139469
    30  C    0.029215
    31  C    0.108818
    32  N   -0.065129
    33  C    0.102768
    34  C   -0.145906
    35  C    0.012672
    36  C    0.067261
    37  C    0.062395
    38  C    0.076725
    39  O   -0.195994
    40  C   -0.014966
    41  C    0.216720
    42  O   -0.243033
    43  O   -0.255712
    44  C    0.179443
    45  C    0.369624
    46  C   -0.126627
    47  C   -0.128995
    48  C    0.144250
    49  C   -0.005214
    50  C    0.064957
    51  C    0.001670
    52  C    0.016073
    53  C    0.050629
    54  C   -0.086217
    55  C   -0.034473
    56  C    0.202541
    57  C   -0.042682
    58  C   -0.028141
    59  C    0.052318
    60  C    0.015988
    61  C    0.025398
    62  C   -0.088777
    63  C    0.050247
    64  C    0.030748
    65  H   -0.006801
    66  H   -0.063714
    67  H    0.042666
    68  H    0.047996
    69  H    0.014635
    70  H    0.037811
    71  H    0.016877
    72  H    0.041765
    73  H    0.010214
    74  H   -0.023272
    75  H    0.014323
    76  H   -0.048592
    77  H    0.028905
    78  H    0.026780
    79  H    0.021490
    80  H   -0.021966
    81  H    0.009427
    82  H    0.015311
    83  H    0.019263
    84  H    0.055964
    85  H   -0.034608
    86  H    0.008637
    87  H    0.015756
    88  H   -0.055297
    89  H   -0.009571
    90  H   -0.017715
    91  H    0.055017
    92  H    0.024913
    93  H    0.038399
    94  H    0.092883
    95  H    0.036138
    96  H    0.016125
    97  H    0.013238
    98  H   -0.011873
    99  H    0.011335
   100  H    0.005791
   101  H   -0.007612
   102  H    0.010493
   103  H   -0.001720
   104  H    0.004277
   105  H    0.005623
   106  H    0.023907
   107  H   -0.005024
   108  H   -0.005518
   109  H   -0.009454
   110  H   -0.013380
   111  H   -0.018632
   112  H   -0.015020
   113  H    0.029222
   114  H    0.006980
   115  H   -0.012008
   116  H    0.021191
   117  H   -0.017050
   118  H   -0.040103
   119  H   -0.085090
   120  H    0.003119
   121  H   -0.006628
   122  H    0.005828
   123  H    0.025783
   124  H   -0.046127
   125  H   -0.007130
   126  H    0.003136
   127  H    0.003223
   128  H   -0.001241
   129  H   -0.011557
   130  H    0.005758
   131  H    0.009387
   132  H    0.043383
   133  H   -0.062111
   134  H   -0.001825
   135  H   -0.007906
   136  H    0.002537
   137  H    0.107136
   138  H    0.166776
 Sum of Mulliken charges =  -0.00000

 Dipole moment (field-independent basis, Debye):
    X=              2.6193    Y=              4.3313    Z=              0.9959  Tot=              5.1587
 Quadrupole moment (field-independent basis, Debye-Ang):
   XX=           -357.1152   YY=           -387.9526   ZZ=           -391.9473
   XY=            -28.0702   XZ=              2.8844   YZ=             -2.4492

 Normal termination of Gaussian 16 at Fri Aug 23 05:01:00 2019.
