 Gaussian 16, Revision A.03,
 Gaussian 16:  ES64L-G16RevA.03 25-Dec-2016

 --------------------------
 # td=(NStates=1) B3LYP/SVP
 --------------------------

 --
 TD
 --
 Symbolic Z-matrix:
 Charge =  0 Multiplicity = 1

                         Standard orientation:
 ---------------------------------------------------------------------
 Center     Atomic      Atomic             Coordinates (Angstroms)
 Number     Number       Type             X           Y           Z
 ---------------------------------------------------------------------
      1          6           0       -5.155221   -2.076846    0.523119
      2          6           0       -4.711468    2.556453    1.627305
      3          6           0       -9.202834    3.522961   -0.058048
      4          6           0       -9.788493   -1.439737   -0.804207
      5          7           0       -5.185100    0.382405    0.834261
      6          6           0       -4.469622   -0.810859    0.794815
      7          6           0       -3.095400   -0.710781    1.268081
      8          6           0       -3.075981    0.781033    1.931822
      9          6           0       -4.413340    1.245482    1.431960
     10          6           0       -2.806965    0.738391    3.380937
     11          6           0       -2.079317   -0.866216    0.113067
     12          6           0       -0.614915   -0.961658    0.524536
     13          6           0        0.349863   -1.193830   -0.582213
     14          8           0        0.072633   -1.642178   -1.585664
     15          8           0        1.543314   -0.967235   -0.209946
     16          7           0       -7.036854    2.783165    0.655492
     17          6           0       -5.802635    3.319954    1.053965
     18          6           0       -6.063788    4.751539    1.102770
     19          6           0       -7.302876    5.041427    0.506475
     20          6           0       -7.905184    3.814386    0.298817
     21          6           0       -4.982688    5.742769    1.623204
     22          6           0       -7.837527    6.493264    0.359640
     23          6           0       -8.826029    6.774975   -0.607244
     24          7           0       -9.151258    0.966019   -0.406838
     25          6           0       -9.740747    2.223812   -0.464997
     26          6           0      -11.091001    2.026442   -1.036636
     27          6           0      -11.287899    0.744082   -1.213190
     28          6           0      -10.022413    0.074648   -0.860662
     29          6           0      -12.119619    3.231441   -1.145779
     30          6           0      -12.462078    0.093473   -1.941649
     31          6           0      -12.348100   -0.340722   -3.379247
     32          7           0       -7.557942   -1.270897    0.067491
     33          6           0       -8.608995   -1.954946   -0.543622
     34          6           0       -8.276508   -3.344950   -0.668708
     35          6           0       -6.919726   -3.416653   -0.279102
     36          6           0       -6.496731   -2.132782    0.179777
     37          6           0       -9.200922   -4.461127   -1.131201
     38          6           0       -5.796808   -4.356214    0.115478
     39          8           0       -5.800168   -5.574099   -0.014728
     40          6           0       -4.600614   -3.475511    0.495452
     41          6           0       -4.076529   -3.998687    1.773419
     42          8           0       -4.037062   -3.494256    2.922915
     43          8           0       -3.272752   -5.079324    1.374493
     44          6           0       -2.621970   -5.785118    2.540991
     45          6           0        2.612352   -1.092054   -1.115004
     46          6           0        3.974581   -0.688264   -0.530559
     47          6           0        4.917594    0.024298   -1.137698
     48          6           0        4.758740    0.723404   -2.418030
     49          6           0        6.163331    0.298651   -0.373600
     50          6           0        7.512288   -0.227043   -1.156198
     51          6           0        8.742948   -0.167996   -0.279906
     52          6           0       10.037617   -0.602462   -0.979040
     53          6           0       10.029256   -1.942137   -1.434451
     54          6           0       11.190775   -0.169638   -0.112768
     55          6           0       12.459699   -0.383196   -0.850061
     56          6           0       13.694621    0.122581    0.045029
     57          6           0       15.119891   -0.167006   -0.449556
     58          6           0       15.417004   -1.631978   -0.540486
     59          6           0       16.099340    0.668727    0.341302
     60          6           0       17.600946    0.628063   -0.061777
     61          6           0       18.509633    1.521221    0.761159
     62          6           0       20.003742    1.559756    0.350695
     63          6           0       20.195306    1.931416   -1.037411
     64          6           0       20.802422    2.402193    1.405555
     65          1           0       -3.837075    3.207155    1.910166
     66          1           0       -9.823717    4.437429   -0.296406
     67          1           0      -10.787593   -2.006329   -1.184515
     68          1           0       -2.894934   -1.431369    2.062907
     69          1           0       -2.332886    1.358253    1.401728
     70          1           0       -1.796135    0.427213    3.933073
     71          1           0       -3.172974    1.709983    3.999779
     72          1           0       -3.414097   -0.068986    4.008168
     73          1           0       -2.445470   -1.683954   -0.614935
     74          1           0       -2.403130   -0.017551   -0.535456
     75          1           0       -0.453284   -0.184221    1.079336
     76          1           0       -0.411546   -1.794574    1.170060
     77          1           0       -4.103044    5.688207    1.228338
     78          1           0       -5.395286    6.809924    1.589888
     79          1           0       -4.883224    5.573253    2.691404
     80          1           0       -7.352804    7.261814    0.722903
     81          1           0       -9.182268    6.094371   -1.298520
     82          1           0       -8.966050    7.979633   -0.710759
     83          1           0      -12.631260    3.671662   -0.274862
     84          1           0      -11.702295    4.185617   -1.736236
     85          1           0      -12.894436    2.856631   -2.073923
     86          1           0      -12.646083   -0.764226   -1.375970
     87          1           0      -13.316152    0.700753   -1.663250
     88          1           0      -12.381528    0.556107   -4.168761
     89          1           0      -11.400959   -0.664255   -3.486797
     90          1           0      -13.086979   -1.050434   -3.804338
     91          1           0      -10.033202   -4.421860   -0.459633
     92          1           0       -9.684347   -4.163211   -2.060100
     93          1           0       -8.658654   -5.477244   -0.992007
     94          1           0       -3.808143   -3.605107   -0.304053
     95          1           0       -1.963515   -6.511808    1.952232
     96          1           0       -1.953039   -5.008746    3.086593
     97          1           0       -3.417727   -6.382273    3.217157
     98          1           0        2.562252   -2.242240   -1.308895
     99          1           0        2.534541   -0.561934   -2.191571
    100          1           0        4.113544   -1.210177    0.447300
    101          1           0        5.146565    1.798853   -2.566265
    102          1           0        5.446198    0.203177   -3.035621
    103          1           0        3.860386    0.656433   -2.803855
    104          1           0        6.182955    1.424403    0.077697
    105          1           0        5.889767   -0.441166    0.573648
    106          1           0        7.267240   -1.185630   -1.496587
    107          1           0        7.638242    0.397916   -2.159292
    108          1           0        8.789098    0.762572    0.226775
    109          1           0        8.676950   -0.829549    0.584475
    110          1           0       10.125104    0.127066   -1.774498
    111          1           0        9.258384   -2.408217   -1.970253
    112          1           0       10.952896   -1.996976   -2.121574
    113          1           0       10.458384   -2.701831   -0.647668
    114          1           0       11.175343    0.884497    0.259825
    115          1           0       11.135376   -0.812601    0.765047
    116          1           0       12.599426   -1.535949   -1.135428
    117          1           0       12.632624    0.110116   -1.867559
    118          1           0       13.532208    1.111581    0.337083
    119          1           0       13.543046   -0.391469    1.125438
    120          1           0       15.115305    0.354559   -1.676043
    121          1           0       15.121880   -2.298740   -1.463025
    122          1           0       16.507842   -1.844489   -0.832195
    123          1           0       15.324843   -2.173194    0.530466
    124          1           0       15.852213    1.830491    0.196473
    125          1           0       15.868165    0.567521    1.588791
    126          1           0       18.156238   -0.465832    0.141177
    127          1           0       17.724506    1.066852   -1.082611
    128          1           0       18.151843    2.692071    0.642824
    129          1           0       18.540741    1.426070    1.959782
    130          1           0       20.516333    0.691321    0.487572
    131          1           0       19.810802    3.070373   -1.390737
    132          1           0       21.392004    2.268380   -1.267974
    133          1           0       19.958282    1.237491   -1.927620
    134          1           0       20.569096    2.028259    2.414323
    135          1           0       21.801195    2.292359    1.377472
    136          1           0       20.403178    3.392373    1.386685
    137          1           0       -7.381674    1.796288    0.572592
    138          1           0       -7.571170   -0.291587   -0.076672
 ---------------------------------------------------------------------

 SCF Done:  E(RB3LYP) =  -2733.01426776     A.U. after   16 cycles

 Excitation energies and oscillator strengths:

 Excited State   1:      Singlet-A      2.0254 eV  612.14 nm  f=0.1212  <S**2>=0.000
     235 -> 237       -0.15955
     235 -> 238       -0.30706
     236 -> 237        0.59458
     236 -> 238       -0.15248
 This state for optimization and/or second-order correction.
 Total Energy, E(TD-HF/TD-DFT) =  -2732.93983491
 Copying the excited state density for this state as the 1-particle RhoCI density.

 The electronic state is 1-A.
 Alpha  occ. eigenvalues --  -19.17644 -19.17589 -19.13575 -19.12800 -19.11084
 Alpha  occ. eigenvalues --  -14.36308 -14.36291 -14.32323 -14.30372 -10.32406
 Alpha  occ. eigenvalues --  -10.29931 -10.28655 -10.26374 -10.26223 -10.24073
 Alpha  occ. eigenvalues --  -10.23800 -10.23588 -10.22859 -10.22519 -10.22249
 Alpha  occ. eigenvalues --  -10.22158 -10.21972 -10.21893 -10.21646 -10.21391
 Alpha  occ. eigenvalues --  -10.21383 -10.21208 -10.21200 -10.21134 -10.20951
 Alpha  occ. eigenvalues --  -10.20840 -10.20824 -10.20775 -10.20660 -10.20535
 Alpha  occ. eigenvalues --  -10.20489 -10.20488 -10.20270 -10.20261 -10.20224
 Alpha  occ. eigenvalues --  -10.20034 -10.20000 -10.19942 -10.19829 -10.19781
 Alpha  occ. eigenvalues --  -10.19676 -10.19579 -10.19228 -10.19052 -10.19041
 Alpha  occ. eigenvalues --  -10.18931 -10.18616 -10.18416 -10.18319 -10.18298
 Alpha  occ. eigenvalues --  -10.18184 -10.18183 -10.18136 -10.18109 -10.18022
 Alpha  occ. eigenvalues --  -10.17743 -10.17569 -10.17258 -10.16826  -1.13717
 Alpha  occ. eigenvalues --   -1.06518  -1.03707  -1.02565  -0.98585  -0.98264
 Alpha  occ. eigenvalues --   -0.96744  -0.95332  -0.93430  -0.85893  -0.83712
 Alpha  occ. eigenvalues --   -0.82938  -0.81614  -0.81542  -0.80982  -0.80570
 Alpha  occ. eigenvalues --   -0.80118  -0.79902  -0.79215  -0.78660  -0.78292
 Alpha  occ. eigenvalues --   -0.77109  -0.76272  -0.75087  -0.74638  -0.74094
 Alpha  occ. eigenvalues --   -0.73706  -0.72986  -0.72440  -0.72225  -0.71151
 Alpha  occ. eigenvalues --   -0.70731  -0.69649  -0.68551  -0.68130  -0.67895
 Alpha  occ. eigenvalues --   -0.67417  -0.66494  -0.66150  -0.65440  -0.65180
 Alpha  occ. eigenvalues --   -0.63990  -0.62705  -0.62291  -0.61833  -0.61267
 Alpha  occ. eigenvalues --   -0.60628  -0.59133  -0.58363  -0.57513  -0.57193
 Alpha  occ. eigenvalues --   -0.57009  -0.56248  -0.55759  -0.55420  -0.55265
 Alpha  occ. eigenvalues --   -0.54879  -0.54766  -0.54197  -0.53778  -0.53165
 Alpha  occ. eigenvalues --   -0.52375  -0.52061  -0.51628  -0.51472  -0.50856
 Alpha  occ. eigenvalues --   -0.50770  -0.49583  -0.48915  -0.48684  -0.48302
 Alpha  occ. eigenvalues --   -0.48057  -0.47866  -0.47435  -0.47143  -0.46820
 Alpha  occ. eigenvalues --   -0.46649  -0.46528  -0.46045  -0.45960  -0.45697
 Alpha  occ. eigenvalues --   -0.45503  -0.45129  -0.44991  -0.44974  -0.44701
 Alpha  occ. eigenvalues --   -0.44485  -0.44119  -0.43984  -0.43747  -0.43594
 Alpha  occ. eigenvalues --   -0.43195  -0.43049  -0.42921  -0.42846  -0.42399
 Alpha  occ. eigenvalues --   -0.42359  -0.42092  -0.41666  -0.41413  -0.41335
 Alpha  occ. eigenvalues --   -0.41130  -0.40983  -0.40866  -0.40731  -0.40468
 Alpha  occ. eigenvalues --   -0.40316  -0.39825  -0.39759  -0.39488  -0.39271
 Alpha  occ. eigenvalues --   -0.39005  -0.38781  -0.38526  -0.38461  -0.38371
 Alpha  occ. eigenvalues --   -0.38242  -0.38052  -0.37884  -0.37817  -0.37607
 Alpha  occ. eigenvalues --   -0.37537  -0.37465  -0.37278  -0.37080  -0.36839
 Alpha  occ. eigenvalues --   -0.36711  -0.36507  -0.36282  -0.36180  -0.36036
 Alpha  occ. eigenvalues --   -0.35787  -0.35637  -0.35450  -0.35291  -0.35078
 Alpha  occ. eigenvalues --   -0.35030  -0.34186  -0.33970  -0.33338  -0.33080
 Alpha  occ. eigenvalues --   -0.32661  -0.32640  -0.32562  -0.32113  -0.32015
 Alpha  occ. eigenvalues --   -0.31857  -0.31800  -0.31744  -0.30749  -0.30688
 Alpha  occ. eigenvalues --   -0.30591  -0.30520  -0.30303  -0.30057  -0.30002
 Alpha  occ. eigenvalues --   -0.29475  -0.29281  -0.28566  -0.28552  -0.28217
 Alpha  occ. eigenvalues --   -0.28143  -0.27614  -0.26649  -0.26213  -0.25825
 Alpha  occ. eigenvalues --   -0.25350  -0.24871  -0.23665  -0.23480  -0.20036
 Alpha  occ. eigenvalues --   -0.18757
 Alpha virt. eigenvalues --   -0.10062  -0.08364  -0.04861  -0.02850  -0.02202
 Alpha virt. eigenvalues --   -0.00149   0.00347   0.01575   0.02878   0.03136
 Alpha virt. eigenvalues --    0.03796   0.04391   0.04719   0.04954   0.04961

 Mulliken charges:
               1
     1  C   -0.023457
     2  C   -0.060233
     3  C   -0.080403
     4  C   -0.150412
     5  N   -0.132008
     6  C   -0.053298
     7  C   -0.043684
     8  C    0.057235
     9  C   -0.026817
    10  C   -0.052753
    11  C   -0.007263
    12  C    0.206301
    13  C    0.076983
    14  O   -0.163459
    15  O   -0.240698
    16  N   -0.116417
    17  C    0.101884
    18  C   -0.178992
    19  C    0.024455
    20  C    0.079718
    21  C    0.158715
    22  C    0.062376
    23  C   -0.052382
    24  N   -0.242774
    25  C    0.037188
    26  C   -0.072068
    27  C   -0.145440
    28  C   -0.034676
    29  C   -0.020470
    30  C    0.125419
    31  C    0.053663
    32  N   -0.016125
    33  C    0.158988
    34  C   -0.177362
    35  C   -0.036828
    36  C    0.087303
    37  C    0.151283
    38  C    0.062836
    39  O   -0.170115
    40  C   -0.006582
    41  C    0.249971
    42  O   -0.251698
    43  O   -0.354541
    44  C    0.118252
    45  C    0.174614
    46  C   -0.090208
    47  C   -0.142846
    48  C    0.189889
    49  C   -0.023325
    50  C    0.016742
    51  C    0.095872
    52  C   -0.035910
    53  C    0.051559
    54  C    0.041868
    55  C   -0.019839
    56  C    0.026343
    57  C   -0.056528
    58  C   -0.009506
    59  C   -0.049909
    60  C    0.052953
    61  C   -0.082100
    62  C    0.001881
    63  C   -0.091923
    64  C    0.089260
    65  H   -0.008136
    66  H   -0.007585
    67  H    0.033064
    68  H    0.013357
    69  H   -0.002061
    70  H    0.035034
    71  H    0.025089
    72  H    0.033116
    73  H    0.017691
    74  H   -0.005621
    75  H   -0.054364
    76  H    0.010279
    77  H   -0.010640
    78  H    0.009383
    79  H    0.014357
    80  H   -0.061965
    81  H    0.026538
    82  H    0.047719
    83  H    0.050024
    84  H    0.023430
    85  H    0.031085
    86  H   -0.033699
    87  H   -0.013787
    88  H    0.006782
    89  H   -0.021144
    90  H    0.020437
    91  H    0.010202
    92  H    0.021719
    93  H    0.066815
    94  H    0.093472
    95  H    0.049769
    96  H    0.059230
    97  H    0.073853
    98  H    0.024150
    99  H    0.040745
   100  H    0.000748
   101  H    0.024873
   102  H    0.000106
   103  H   -0.052137
   104  H    0.043032
   105  H    0.011329
   106  H   -0.011523
   107  H    0.012241
   108  H   -0.034731
   109  H   -0.032538
   110  H   -0.029196
   111  H    0.005098
   112  H    0.005108
   113  H    0.005321
   114  H   -0.001718
   115  H   -0.015585
   116  H    0.014496
   117  H    0.003432
   118  H   -0.031249
   119  H   -0.012715
   120  H   -0.000067
   121  H    0.028720
   122  H    0.001175
   123  H    0.027781
   124  H    0.013905
   125  H    0.016811
   126  H    0.028566
   127  H    0.017678
   128  H   -0.003609
   129  H    0.008802
   130  H   -0.029071
   131  H    0.011174
   132  H    0.006241
   133  H    0.045050
   134  H   -0.010129
   135  H   -0.019410
   136  H   -0.004220
   137  H    0.162752
   138  H    0.134622
 Sum of Mulliken charges =  -0.00000

 Dipole moment (field-independent basis, Debye):
    X=              4.2781    Y=              2.8076    Z=             -0.1233  Tot=              5.1186
 Quadrupole moment (field-independent basis, Debye-Ang):
   XX=           -358.2721   YY=           -380.8951   ZZ=           -395.8844
   XY=            -17.1183   XZ=              9.2845   YZ=             -2.5800

 Normal termination of Gaussian 16 at Mon Aug 12 01:43:15 2019.
