 Gaussian 16, Revision A.03,
 Gaussian 16:  ES64L-G16RevA.03 25-Dec-2016

 --------------------------
 # td=(NStates=1) B3LYP/SVP
 --------------------------

 --
 TD
 --
 Symbolic Z-matrix:
 Charge =  0 Multiplicity = 1

                         Standard orientation:
 ---------------------------------------------------------------------
 Center     Atomic      Atomic             Coordinates (Angstroms)
 Number     Number       Type             X           Y           Z
 ---------------------------------------------------------------------
      1          6           0       -5.065357   -1.974212    0.512828
      2          6           0       -4.667223    2.742493    1.436670
      3          6           0       -9.308056    3.386818   -0.375376
      4          6           0       -9.704400   -1.378498   -1.200354
      5          7           0       -5.240841    0.480918    0.925063
      6          6           0       -4.514162   -0.800634    0.866115
      7          6           0       -3.141236   -0.586618    1.408257
      8          6           0       -3.142580    0.799902    2.034167
      9          6           0       -4.459353    1.287831    1.468791
     10          6           0       -3.320888    0.776942    3.628487
     11          6           0       -2.053157   -0.599993    0.363471
     12          6           0       -0.613463   -0.770673    0.873702
     13          6           0        0.321234   -0.996761   -0.386535
     14          8           0       -0.082286   -1.554569   -1.448110
     15          8           0        1.603123   -0.814578   -0.181048
     16          7           0       -7.040254    2.722512    0.428665
     17          6           0       -5.896437    3.423693    0.983753
     18          6           0       -6.171121    4.763251    1.033763
     19          6           0       -7.399787    5.040308    0.391848
     20          6           0       -7.991416    3.741059    0.081472
     21          6           0       -5.211161    5.855540    1.628148
     22          6           0       -8.068601    6.268751    0.421450
     23          6           0       -9.039615    6.739318   -0.439386
     24          7           0       -9.172776    0.999092   -0.602193
     25          6           0       -9.847290    2.090214   -0.598865
     26          6           0      -11.239560    1.935963   -1.025782
     27          6           0      -11.343841    0.602272   -1.278889
     28          6           0      -10.066993   -0.042469   -0.934468
     29          6           0      -12.318316    3.006770   -1.142215
     30          6           0      -12.575641   -0.168503   -1.795007
     31          6           0      -12.616462   -0.341068   -3.340725
     32          7           0       -7.482892   -1.263003   -0.237291
     33          6           0       -8.587194   -2.023245   -0.741272
     34          6           0       -8.059106   -3.376749   -0.819760
     35          6           0       -6.762008   -3.426439   -0.361759
     36          6           0       -6.364099   -2.120223   -0.063991
     37          6           0       -8.899528   -4.578549   -1.309590
     38          6           0       -5.631943   -4.322465   -0.043045
     39          8           0       -5.683849   -5.576228   -0.058834
     40          6           0       -4.455807   -3.372412    0.372798
     41          6           0       -4.042791   -3.924671    1.832619
     42          8           0       -4.341677   -3.503889    2.941019
     43          8           0       -3.043383   -4.837560    1.668979
     44          6           0       -2.408322   -5.423942    2.784246
     45          6           0        2.595750   -0.963846   -1.199450
     46          6           0        3.910637   -0.983376   -0.553831
     47          6           0        4.933969   -0.082262   -0.983034
     48          6           0        4.952561    0.628434   -2.283917
     49          6           0        6.223327    0.027559   -0.308724
     50          6           0        7.580011   -0.394437   -1.005084
     51          6           0        8.719903   -0.368457   -0.071332
     52          6           0       10.053616   -0.645417   -0.767499
     53          6           0       10.124140   -2.272778   -1.088306
     54          6           0       11.303812   -0.316845    0.119381
     55          6           0       12.604051   -0.509337   -0.615286
     56          6           0       13.805385   -0.041881    0.207739
     57          6           0       15.204472   -0.095381   -0.374096
     58          6           0       15.638837   -1.575419   -0.727812
     59          6           0       16.252012    0.762960    0.287632
     60          6           0       17.646585    0.805231   -0.225581
     61          6           0       18.577470    1.678430    0.601123
     62          6           0       20.049869    1.701639    0.106920
     63          6           0       20.228892    2.279223   -1.217332
     64          6           0       21.052554    2.358919    0.988200
     65          1           0       -3.873175    3.414920    1.811088
     66          1           0      -10.112216    4.147428   -0.464840
     67          1           0      -10.472900   -2.078061   -1.630277
     68          1           0       -2.902605   -1.316965    2.181060
     69          1           0       -2.536823    1.486367    1.917827
     70          1           0       -2.540727    0.238813    3.749817
     71          1           0       -3.333020    1.647386    4.046769
     72          1           0       -4.247306    0.150629    3.873538
     73          1           0       -2.186446   -1.479939   -0.344773
     74          1           0       -2.336332    0.393297   -0.413313
     75          1           0       -0.063488    0.087430    1.434415
     76          1           0       -0.416208   -1.827530    1.417005
     77          1           0       -4.147503    5.630396    1.206750
     78          1           0       -5.539376    6.758746    1.499654
     79          1           0       -5.292212    5.709394    2.785006
     80          1           0       -7.678739    6.996360    1.190991
     81          1           0       -9.188265    6.095421   -1.313496
     82          1           0       -9.587728    7.691639   -0.238894
     83          1           0      -12.380467    3.406299   -0.234923
     84          1           0      -12.026607    3.839670   -1.859589
     85          1           0      -13.261962    2.609966   -1.358089
     86          1           0      -12.504761   -1.121572   -1.276484
     87          1           0      -13.539002    0.262855   -1.374795
     88          1           0      -12.474743    0.549106   -3.790934
     89          1           0      -11.890847   -1.026786   -3.867998
     90          1           0      -13.630325   -0.711307   -3.605143
     91          1           0       -9.731350   -4.936008   -0.626871
     92          1           0       -9.452785   -4.190167   -2.114455
     93          1           0       -8.489583   -5.602554   -1.580481
     94          1           0       -3.657029   -3.449389   -0.259638
     95          1           0       -1.703313   -6.122714    2.479761
     96          1           0       -2.192948   -4.614313    3.540974
     97          1           0       -3.215715   -5.876924    3.278559
     98          1           0        2.165831   -1.952481   -1.826246
     99          1           0        2.436512   -0.202409   -2.044625
    100          1           0        4.187204   -1.716556    0.286979
    101          1           0        5.568371    1.741072   -2.304593
    102          1           0        5.544392    0.037098   -3.090096
    103          1           0        3.801320    0.952405   -2.672963
    104          1           0        6.335451    1.114714    0.183224
    105          1           0        6.058521   -0.630037    0.661410
    106          1           0        7.364465   -1.387423   -1.358020
    107          1           0        7.707404    0.348782   -1.982265
    108          1           0        8.689495    0.726288    0.307805
    109          1           0        8.756356   -1.149680    0.811736
    110          1           0       10.065535   -0.072552   -1.842933
    111          1           0        9.078646   -2.546470   -1.549894
    112          1           0       10.864753   -2.357575   -1.892906
    113          1           0       10.511252   -3.038080   -0.236414
    114          1           0       11.168390    0.816833    0.281198
    115          1           0       11.144677   -0.658421    1.017802
    116          1           0       12.781886   -1.628234   -0.514501
    117          1           0       12.675250   -0.115829   -1.626422
    118          1           0       13.415142    1.037290    0.498247
    119          1           0       13.818046   -0.429235    1.248285
    120          1           0       15.088713    0.342058   -1.482199
    121          1           0       14.564949   -2.095878   -1.059823
    122          1           0       16.557450   -1.673077   -1.563985
    123          1           0       15.677604   -2.140331    0.231179
    124          1           0       15.801559    1.679569    0.432340
    125          1           0       16.159991    0.263835    1.434413
    126          1           0       18.115764   -0.203791   -0.506031
    127          1           0       17.522073    1.339479   -1.514901
    128          1           0       18.253554    2.833924    0.430762
    129          1           0       18.348622    1.247641    1.665908
    130          1           0       20.340082    0.741154    0.151592
    131          1           0       20.050737    3.493728   -1.263271
    132          1           0       21.278822    2.037353   -1.707110
    133          1           0       19.605259    1.712630   -1.990859
    134          1           0       21.328178    1.760750    2.106587
    135          1           0       21.950447    2.384807    0.550291
    136          1           0       20.765834    3.543553    1.272590
    137          1           0       -7.124372    1.712087    0.285143
    138          1           0       -7.628767   -0.268693    0.206921
 ---------------------------------------------------------------------

 SCF Done:  E(RB3LYP) =  -2732.96690520     A.U. after   17 cycles

 Excitation energies and oscillator strengths:

 Excited State   1:      Singlet-A      1.9915 eV  622.58 nm  f=0.1579  <S**2>=0.000
     235 -> 237       -0.27815
     235 -> 238       -0.21488
     236 -> 237        0.57371
     236 -> 238       -0.20787
 This state for optimization and/or second-order correction.
 Total Energy, E(TD-HF/TD-DFT) =  -2732.89372044
 Copying the excited state density for this state as the 1-particle RhoCI density.

 The electronic state is 1-A.
 Alpha  occ. eigenvalues --  -19.18376 -19.17289 -19.13206 -19.12147 -19.11467
 Alpha  occ. eigenvalues --  -14.36762 -14.35988 -14.32085 -14.29429 -10.32552
 Alpha  occ. eigenvalues --  -10.31908 -10.28324 -10.26526 -10.24512 -10.23980
 Alpha  occ. eigenvalues --  -10.23667 -10.23426 -10.23331 -10.23177 -10.22959
 Alpha  occ. eigenvalues --  -10.22743 -10.22420 -10.22378 -10.21790 -10.21541
 Alpha  occ. eigenvalues --  -10.21528 -10.21429 -10.21227 -10.21152 -10.21054
 Alpha  occ. eigenvalues --  -10.20821 -10.20771 -10.20693 -10.20669 -10.20645
 Alpha  occ. eigenvalues --  -10.20631 -10.20588 -10.20570 -10.20563 -10.20465
 Alpha  occ. eigenvalues --  -10.20231 -10.20112 -10.20044 -10.20011 -10.20004
 Alpha  occ. eigenvalues --  -10.19963 -10.19949 -10.19902 -10.19787 -10.19384
 Alpha  occ. eigenvalues --  -10.19358 -10.19127 -10.19078 -10.19037 -10.18973
 Alpha  occ. eigenvalues --  -10.18426 -10.18298 -10.18176 -10.18060 -10.18013
 Alpha  occ. eigenvalues --  -10.18003 -10.17890 -10.17706 -10.16845  -1.10143
 Alpha  occ. eigenvalues --   -1.09050  -1.00385  -1.00305  -0.97940  -0.95958
 Alpha  occ. eigenvalues --   -0.95250  -0.94706  -0.93651  -0.85182  -0.83108
 Alpha  occ. eigenvalues --   -0.82558  -0.82120  -0.81790  -0.81638  -0.80418
 Alpha  occ. eigenvalues --   -0.79730  -0.79246  -0.78651  -0.78450  -0.78245
 Alpha  occ. eigenvalues --   -0.77399  -0.76448  -0.75524  -0.75060  -0.74064
 Alpha  occ. eigenvalues --   -0.74011  -0.73290  -0.72305  -0.71276  -0.70529
 Alpha  occ. eigenvalues --   -0.70360  -0.69645  -0.68974  -0.67666  -0.67156
 Alpha  occ. eigenvalues --   -0.66772  -0.66147  -0.66007  -0.65987  -0.65389
 Alpha  occ. eigenvalues --   -0.64361  -0.63198  -0.62197  -0.62191  -0.61188
 Alpha  occ. eigenvalues --   -0.60951  -0.59509  -0.58370  -0.57545  -0.57182
 Alpha  occ. eigenvalues --   -0.56896  -0.55771  -0.55453  -0.55112  -0.54798
 Alpha  occ. eigenvalues --   -0.54720  -0.54218  -0.53517  -0.52964  -0.52482
 Alpha  occ. eigenvalues --   -0.52241  -0.51711  -0.51702  -0.51571  -0.50507
 Alpha  occ. eigenvalues --   -0.49421  -0.49287  -0.48667  -0.48532  -0.48226
 Alpha  occ. eigenvalues --   -0.48187  -0.47973  -0.47837  -0.47376  -0.47163
 Alpha  occ. eigenvalues --   -0.46873  -0.46487  -0.46287  -0.45936  -0.45537
 Alpha  occ. eigenvalues --   -0.45213  -0.45117  -0.45056  -0.44715  -0.44617
 Alpha  occ. eigenvalues --   -0.44380  -0.44096  -0.43768  -0.43496  -0.43325
 Alpha  occ. eigenvalues --   -0.43190  -0.43062  -0.42939  -0.42857  -0.42705
 Alpha  occ. eigenvalues --   -0.42410  -0.42229  -0.41946  -0.41794  -0.41348
 Alpha  occ. eigenvalues --   -0.41253  -0.41009  -0.40622  -0.40578  -0.40046
 Alpha  occ. eigenvalues --   -0.39837  -0.39767  -0.39665  -0.39586  -0.39437
 Alpha  occ. eigenvalues --   -0.39161  -0.39024  -0.38660  -0.38472  -0.38432
 Alpha  occ. eigenvalues --   -0.38412  -0.38000  -0.37938  -0.37813  -0.37762
 Alpha  occ. eigenvalues --   -0.37434  -0.37312  -0.37049  -0.36876  -0.36823
 Alpha  occ. eigenvalues --   -0.36781  -0.36449  -0.35965  -0.35904  -0.35843
 Alpha  occ. eigenvalues --   -0.35461  -0.35333  -0.35171  -0.34954  -0.34885
 Alpha  occ. eigenvalues --   -0.34721  -0.34362  -0.33949  -0.33808  -0.33664
 Alpha  occ. eigenvalues --   -0.33530  -0.33402  -0.33177  -0.33105  -0.32875
 Alpha  occ. eigenvalues --   -0.32250  -0.32180  -0.31903  -0.31477  -0.31429
 Alpha  occ. eigenvalues --   -0.30941  -0.30751  -0.30288  -0.29683  -0.29482
 Alpha  occ. eigenvalues --   -0.29448  -0.28633  -0.28459  -0.27898  -0.27809
 Alpha  occ. eigenvalues --   -0.27439  -0.26934  -0.26294  -0.26091  -0.25400
 Alpha  occ. eigenvalues --   -0.25018  -0.24000  -0.23284  -0.22751  -0.19907
 Alpha  occ. eigenvalues --   -0.18590
 Alpha virt. eigenvalues --   -0.10486  -0.07901  -0.04905  -0.03308  -0.01875
 Alpha virt. eigenvalues --   -0.00823  -0.00477   0.00802   0.02148   0.02656
 Alpha virt. eigenvalues --    0.03062   0.03608   0.04379   0.04548   0.04585

 Mulliken charges:
               1
     1  C    0.006657
     2  C   -0.077067
     3  C   -0.088038
     4  C   -0.052268
     5  N   -0.141087
     6  C   -0.016431
     7  C    0.047549
     8  C    0.031803
     9  C   -0.040978
    10  C    0.198507
    11  C   -0.022832
    12  C    0.001735
    13  C    0.163187
    14  O   -0.300074
    15  O   -0.264938
    16  N   -0.161318
    17  C    0.134277
    18  C   -0.177585
    19  C    0.087104
    20  C    0.140247
    21  C    0.147869
    22  C   -0.122154
    23  C   -0.021619
    24  N   -0.202816
    25  C    0.000225
    26  C   -0.171425
    27  C   -0.110918
    28  C    0.057793
    29  C    0.209362
    30  C    0.048029
    31  C    0.051363
    32  N   -0.176031
    33  C    0.079489
    34  C   -0.137609
    35  C    0.058283
    36  C    0.083645
    37  C    0.071790
    38  C    0.078251
    39  O   -0.209339
    40  C   -0.000825
    41  C    0.222115
    42  O   -0.231854
    43  O   -0.314583
    44  C    0.241154
    45  C    0.175566
    46  C   -0.037851
    47  C   -0.108281
    48  C   -0.079579
    49  C   -0.010983
    50  C    0.008628
    51  C    0.032205
    52  C   -0.149985
    53  C   -0.056830
    54  C    0.108840
    55  C    0.076636
    56  C   -0.050014
    57  C   -0.053695
    58  C   -0.045223
    59  C    0.083592
    60  C   -0.065217
    61  C    0.012631
    62  C    0.026903
    63  C   -0.056610
    64  C    0.005017
    65  H   -0.025241
    66  H   -0.024699
    67  H    0.002651
    68  H   -0.007809
    69  H   -0.120653
    70  H   -0.044963
    71  H   -0.032139
    72  H    0.032615
    73  H    0.039793
    74  H    0.038560
    75  H    0.045878
    76  H    0.069984
    77  H    0.056258
    78  H   -0.039813
    79  H    0.035187
    80  H    0.008163
    81  H    0.034420
    82  H    0.038057
    83  H   -0.017506
    84  H    0.026554
    85  H   -0.015158
    86  H   -0.007793
    87  H    0.007597
    88  H   -0.015128
    89  H    0.017132
    90  H    0.007998
    91  H    0.024302
    92  H   -0.000516
    93  H    0.042410
    94  H    0.032688
    95  H    0.029697
    96  H    0.022567
    97  H   -0.000085
    98  H    0.052267
    99  H    0.028917
   100  H    0.026124
   101  H    0.036283
   102  H    0.067948
   103  H    0.048497
   104  H    0.029668
   105  H   -0.003424
   106  H    0.003245
   107  H    0.027124
   108  H    0.002885
   109  H    0.024782
   110  H    0.009558
   111  H    0.022531
   112  H    0.019050
   113  H    0.040349
   114  H   -0.016728
   115  H   -0.057601
   116  H    0.014730
   117  H    0.008593
   118  H   -0.014915
   119  H   -0.014313
   120  H   -0.013313
   121  H    0.011165
   122  H    0.064391
   123  H   -0.000267
   124  H   -0.024934
   125  H   -0.011340
   126  H    0.019525
   127  H   -0.001647
   128  H    0.014811
   129  H    0.024309
   130  H   -0.046207
   131  H    0.035501
   132  H    0.018634
   133  H    0.015298
   134  H    0.010376
   135  H   -0.021828
   136  H    0.015049
   137  H    0.142041
   138  H    0.197459
 Sum of Mulliken charges =  -0.00000

 Dipole moment (field-independent basis, Debye):
    X=              3.9686    Y=              4.2143    Z=              1.1662  Tot=              5.9051
 Quadrupole moment (field-independent basis, Debye-Ang):
   XX=           -353.7589   YY=           -387.7505   ZZ=           -396.6331
   XY=            -35.9583   XZ=              1.2639   YZ=             -0.6904

 Normal termination of Gaussian 16 at Tue Aug 13 06:30:46 2019.
