 Gaussian 16, Revision A.03,
 Gaussian 16:  ES64L-G16RevA.03 25-Dec-2016

 --------------------------
 # td=(NStates=1) B3LYP/SVP
 --------------------------

 --
 TD
 --
 Symbolic Z-matrix:
 Charge =  0 Multiplicity = 1

                         Standard orientation:
 ---------------------------------------------------------------------
 Center     Atomic      Atomic             Coordinates (Angstroms)
 Number     Number       Type             X           Y           Z
 ---------------------------------------------------------------------
      1          6           0       -5.140231   -1.895087    0.502263
      2          6           0       -4.642960    2.725839    1.232075
      3          6           0       -9.320554    3.289295   -0.273929
      4          6           0       -9.853440   -1.494559   -0.964095
      5          7           0       -5.160770    0.554106    0.775690
      6          6           0       -4.546592   -0.685094    0.805864
      7          6           0       -3.088291   -0.493336    1.202486
      8          6           0       -3.008001    0.987071    1.714140
      9          6           0       -4.282530    1.439993    1.203487
     10          6           0       -3.005842    1.061575    3.248424
     11          6           0       -2.118074   -0.753515   -0.039164
     12          6           0       -0.579292   -0.685236    0.571016
     13          6           0        0.435678   -1.071949   -0.559470
     14          8           0        0.189431   -1.574931   -1.588613
     15          8           0        1.653870   -0.608596   -0.174970
     16          7           0       -7.057713    2.717286    0.403438
     17          6           0       -5.869927    3.420767    0.912364
     18          6           0       -6.221527    4.770935    1.004624
     19          6           0       -7.489702    4.976301    0.508877
     20          6           0       -8.030760    3.604113    0.178943
     21          6           0       -5.387129    5.766024    1.668114
     22          6           0       -8.166959    6.179509    0.367553
     23          6           0       -9.211970    6.543057   -0.481388
     24          7           0       -9.191459    0.839896   -0.665202
     25          6           0       -9.838596    2.044656   -0.548044
     26          6           0      -11.244829    1.857574   -0.969585
     27          6           0      -11.371009    0.617875   -1.265396
     28          6           0      -10.031913   -0.097956   -0.957262
     29          6           0      -12.336820    2.934271   -1.078864
     30          6           0      -12.609738   -0.170631   -1.650789
     31          6           0      -12.654728   -0.615825   -3.066002
     32          7           0       -7.449395   -1.272010   -0.161926
     33          6           0       -8.584039   -2.074783   -0.563913
     34          6           0       -8.155693   -3.440142   -0.538345
     35          6           0       -6.851306   -3.426147   -0.100601
     36          6           0       -6.447482   -2.052604    0.092484
     37          6           0       -8.988572   -4.573718   -0.976699
     38          6           0       -5.762142   -4.237766    0.068291
     39          8           0       -5.547630   -5.461575   -0.114785
     40          6           0       -4.484386   -3.304688    0.403891
     41          6           0       -3.883670   -3.778241    1.760761
     42          8           0       -4.128952   -3.380837    2.841424
     43          8           0       -3.052620   -4.819087    1.625681
     44          6           0       -2.515101   -5.280312    2.856999
     45          6           0        2.675185   -1.011311   -1.039643
     46          6           0        4.022558   -0.721255   -0.412341
     47          6           0        4.978222    0.029031   -1.084035
     48          6           0        4.978254    0.554774   -2.618844
     49          6           0        6.292836    0.369070   -0.380231
     50          6           0        7.518763   -0.416621   -1.044748
     51          6           0        8.838598   -0.274858   -0.236202
     52          6           0       10.042151   -0.847488   -0.781646
     53          6           0       10.004016   -2.438447   -0.930838
     54          6           0       11.268632   -0.351506   -0.008746
     55          6           0       12.640833   -0.839812   -0.558929
     56          6           0       13.814062   -0.055508    0.244864
     57          6           0       15.253380   -0.210442   -0.299260
     58          6           0       15.823806   -1.759846   -0.245544
     59          6           0       16.194816    0.615342    0.440139
     60          6           0       17.519438    0.819316   -0.150925
     61          6           0       18.486542    1.835084    0.615247
     62          6           0       19.985662    1.835405    0.134549
     63          6           0       19.968513    2.156077   -1.288593
     64          6           0       20.820980    2.610292    0.931304
     65          1           0       -4.018904    3.455170    2.026802
     66          1           0      -10.078355    4.246005   -0.191015
     67          1           0      -10.453722   -2.110216   -1.381747
     68          1           0       -2.790533   -1.173197    2.011775
     69          1           0       -2.041176    1.297550    1.193800
     70          1           0       -2.301334    0.479928    3.682067
     71          1           0       -2.764817    2.121576    3.730237
     72          1           0       -3.832575    0.414329    3.566085
     73          1           0       -2.350443   -1.728325   -0.399182
     74          1           0       -2.270773    0.091469   -0.811664
     75          1           0       -0.128973    0.294249    1.037684
     76          1           0       -0.592987   -1.472384    1.495623
     77          1           0       -4.352433    6.271547    1.110335
     78          1           0       -5.973484    6.708018    1.815201
     79          1           0       -4.963573    5.435948    2.657131
     80          1           0       -7.809835    6.960007    1.067024
     81          1           0       -9.564233    5.781167   -1.395885
     82          1           0       -9.529724    7.635327   -0.681717
     83          1           0      -12.411964    3.327603   -0.095450
     84          1           0      -12.085071    3.702033   -1.662351
     85          1           0      -13.279868    2.346011   -1.371533
     86          1           0      -12.266803   -1.040953   -1.198535
     87          1           0      -13.601655    0.236114   -1.423112
     88          1           0      -12.756954    0.056119   -3.827474
     89          1           0      -11.782160   -1.252956   -3.260675
     90          1           0      -13.481855   -1.167869   -3.340207
     91          1           0       -9.896397   -4.690158   -0.388852
     92          1           0       -9.370294   -4.560485   -2.019475
     93          1           0       -8.520201   -5.608783   -1.048895
     94          1           0       -3.775528   -3.373840   -0.337970
     95          1           0       -1.636206   -5.870297    2.493043
     96          1           0       -1.946585   -4.475499    3.264895
     97          1           0       -3.295464   -5.754603    3.455098
     98          1           0        2.615112   -2.103832   -1.277713
     99          1           0        2.515329   -0.602002   -2.142489
    100          1           0        4.135653   -1.186526    0.709153
    101          1           0        5.368064    1.640787   -2.559377
    102          1           0        5.462039   -0.186186   -3.187668
    103          1           0        3.825464    0.829179   -3.081808
    104          1           0        6.513067    1.443200   -0.317857
    105          1           0        6.224674    0.133389    0.781167
    106          1           0        7.190910   -1.494142   -1.019142
    107          1           0        7.732806   -0.221029   -2.044393
    108          1           0        9.007662    0.843045   -0.310027
    109          1           0        8.612868   -0.488918    0.857655
    110          1           0       10.027905   -0.497320   -1.856229
    111          1           0        9.177721   -2.736674   -1.426512
    112          1           0       10.871556   -2.747797   -1.216691
    113          1           0       10.066164   -2.797817    0.353986
    114          1           0       11.213698    0.719391    0.164412
    115          1           0       11.025808   -0.859657    1.011771
    116          1           0       13.014164   -1.891139   -0.470769
    117          1           0       12.744900   -0.580531   -1.619147
    118          1           0       13.443721    0.954744    0.527978
    119          1           0       13.855113   -0.325001    1.342657
    120          1           0       15.204730   -0.004193   -1.505014
    121          1           0       15.089276   -2.281158   -0.892660
    122          1           0       16.737152   -2.002721   -0.850120
    123          1           0       15.977297   -2.069949    0.787588
    124          1           0       15.644386    1.617671    0.551934
    125          1           0       16.234953    0.212125    1.471461
    126          1           0       17.951184   -0.180506   -0.307445
    127          1           0       17.509459    1.161903   -1.159583
    128          1           0       18.007960    2.883352    0.325446
    129          1           0       18.656444    1.492857    1.708030
    130          1           0       20.338166    0.759212    0.298803
    131          1           0       19.511005    3.265444   -1.513341
    132          1           0       20.900468    2.163004   -1.760886
    133          1           0       19.293944    1.467683   -1.952217
    134          1           0       20.833478    2.295317    1.869378
    135          1           0       21.829233    2.557321    0.423768
    136          1           0       20.727462    3.751785    0.741627
    137          1           0       -7.345809    1.724325    0.457880
    138          1           0       -7.752459   -0.261370   -0.186685
 ---------------------------------------------------------------------

 SCF Done:  E(RB3LYP) =  -2733.05576918     A.U. after   17 cycles

 Excitation energies and oscillator strengths:

 Excited State   1:      Singlet-A      1.9271 eV  643.39 nm  f=0.2465  <S**2>=0.000
     235 -> 238        0.24641
     236 -> 237        0.66121
 This state for optimization and/or second-order correction.
 Total Energy, E(TD-HF/TD-DFT) =  -2732.98495122
 Copying the excited state density for this state as the 1-particle RhoCI density.

 The electronic state is 1-A.
 Alpha  occ. eigenvalues --  -19.17913 -19.16333 -19.13448 -19.11625 -19.11005
 Alpha  occ. eigenvalues --  -14.37303 -14.37250 -14.32186 -14.31050 -10.31643
 Alpha  occ. eigenvalues --  -10.30496 -10.26862 -10.24717 -10.24593 -10.24058
 Alpha  occ. eigenvalues --  -10.24008 -10.23565 -10.23515 -10.22831 -10.22781
 Alpha  occ. eigenvalues --  -10.22330 -10.22287 -10.21853 -10.21721 -10.21714
 Alpha  occ. eigenvalues --  -10.21689 -10.21657 -10.21464 -10.21315 -10.21300
 Alpha  occ. eigenvalues --  -10.20932 -10.20728 -10.20697 -10.20684 -10.20526
 Alpha  occ. eigenvalues --  -10.20337 -10.20231 -10.20222 -10.20173 -10.20113
 Alpha  occ. eigenvalues --  -10.19978 -10.19943 -10.19740 -10.19330 -10.19225
 Alpha  occ. eigenvalues --  -10.19121 -10.19077 -10.18812 -10.18811 -10.18704
 Alpha  occ. eigenvalues --  -10.18694 -10.18459 -10.18446 -10.18264 -10.18198
 Alpha  occ. eigenvalues --  -10.18193 -10.18013 -10.17909 -10.17733 -10.17581
 Alpha  occ. eigenvalues --  -10.17425 -10.17181 -10.16798 -10.16286  -1.11048
 Alpha  occ. eigenvalues --   -1.10345  -1.03042  -1.00631  -0.99875  -0.98721
 Alpha  occ. eigenvalues --   -0.97508  -0.95592  -0.95245  -0.84920  -0.83238
 Alpha  occ. eigenvalues --   -0.82595  -0.82227  -0.81798  -0.80901  -0.80830
 Alpha  occ. eigenvalues --   -0.80629  -0.80308  -0.79889  -0.79716  -0.77452
 Alpha  occ. eigenvalues --   -0.76544  -0.75992  -0.75488  -0.75041  -0.74077
 Alpha  occ. eigenvalues --   -0.73587  -0.72885  -0.72370  -0.70983  -0.70382
 Alpha  occ. eigenvalues --   -0.69750  -0.69660  -0.68917  -0.68473  -0.68445
 Alpha  occ. eigenvalues --   -0.67758  -0.66977  -0.66793  -0.66194  -0.65357
 Alpha  occ. eigenvalues --   -0.65065  -0.63941  -0.63169  -0.62866  -0.62012
 Alpha  occ. eigenvalues --   -0.60921  -0.59311  -0.58991  -0.58426  -0.57529
 Alpha  occ. eigenvalues --   -0.57172  -0.56292  -0.55802  -0.55432  -0.55143
 Alpha  occ. eigenvalues --   -0.54879  -0.54370  -0.53833  -0.53388  -0.52761
 Alpha  occ. eigenvalues --   -0.52638  -0.52201  -0.51875  -0.51142  -0.50973
 Alpha  occ. eigenvalues --   -0.50217  -0.49779  -0.49562  -0.48604  -0.48479
 Alpha  occ. eigenvalues --   -0.48354  -0.48187  -0.47852  -0.47308  -0.46894
 Alpha  occ. eigenvalues --   -0.46754  -0.46713  -0.46489  -0.46220  -0.46102
 Alpha  occ. eigenvalues --   -0.45821  -0.45776  -0.45274  -0.45198  -0.45083
 Alpha  occ. eigenvalues --   -0.44877  -0.44458  -0.44311  -0.44095  -0.43831
 Alpha  occ. eigenvalues --   -0.43595  -0.43202  -0.42966  -0.42796  -0.42688
 Alpha  occ. eigenvalues --   -0.42460  -0.42254  -0.41969  -0.41927  -0.41866
 Alpha  occ. eigenvalues --   -0.41651  -0.41289  -0.41217  -0.40732  -0.40423
 Alpha  occ. eigenvalues --   -0.40244  -0.40230  -0.40096  -0.39698  -0.39622
 Alpha  occ. eigenvalues --   -0.39518  -0.39189  -0.38969  -0.38797  -0.38534
 Alpha  occ. eigenvalues --   -0.38461  -0.38242  -0.38104  -0.37870  -0.37773
 Alpha  occ. eigenvalues --   -0.37163  -0.37096  -0.36728  -0.36706  -0.36621
 Alpha  occ. eigenvalues --   -0.36272  -0.36092  -0.35882  -0.35666  -0.35595
 Alpha  occ. eigenvalues --   -0.35359  -0.35215  -0.35189  -0.34795  -0.34622
 Alpha  occ. eigenvalues --   -0.34387  -0.34237  -0.34179  -0.33976  -0.33918
 Alpha  occ. eigenvalues --   -0.33548  -0.33213  -0.33107  -0.32700  -0.32278
 Alpha  occ. eigenvalues --   -0.32264  -0.32178  -0.31955  -0.31832  -0.31290
 Alpha  occ. eigenvalues --   -0.31215  -0.30620  -0.30334  -0.30222  -0.29818
 Alpha  occ. eigenvalues --   -0.29532  -0.28966  -0.28871  -0.28294  -0.28106
 Alpha  occ. eigenvalues --   -0.27674  -0.27420  -0.27249  -0.26767  -0.26606
 Alpha  occ. eigenvalues --   -0.24510  -0.24381  -0.24049  -0.23753  -0.20316
 Alpha  occ. eigenvalues --   -0.19014
 Alpha virt. eigenvalues --   -0.11277  -0.07662  -0.04741  -0.02471  -0.00363
 Alpha virt. eigenvalues --   -0.00084   0.00967   0.01429   0.02037   0.03356
 Alpha virt. eigenvalues --    0.04025   0.04406   0.04649   0.04664   0.04960

 Mulliken charges:
               1
     1  C    0.011573
     2  C   -0.059565
     3  C   -0.152266
     4  C    0.033549
     5  N   -0.151356
     6  C   -0.049361
     7  C   -0.101489
     8  C   -0.009352
     9  C   -0.006530
    10  C    0.114068
    11  C    0.076843
    12  C   -0.106260
    13  C    0.190420
    14  O   -0.180401
    15  O   -0.291201
    16  N   -0.085920
    17  C    0.063493
    18  C   -0.027877
    19  C    0.078682
    20  C    0.028961
    21  C   -0.009677
    22  C   -0.084265
    23  C   -0.122214
    24  N   -0.221084
    25  C    0.086759
    26  C   -0.196890
    27  C   -0.096368
    28  C    0.056445
    29  C    0.207766
    30  C    0.150490
    31  C    0.058527
    32  N   -0.029371
    33  C    0.003345
    34  C   -0.093508
    35  C    0.102332
    36  C    0.055711
    37  C    0.067325
    38  C   -0.004694
    39  O   -0.216045
    40  C   -0.000403
    41  C    0.170105
    42  O   -0.208754
    43  O   -0.294707
    44  C    0.216522
    45  C    0.190745
    46  C   -0.088345
    47  C   -0.125472
    48  C   -0.006765
    49  C    0.033026
    50  C    0.018617
    51  C    0.010786
    52  C   -0.080244
    53  C    0.108652
    54  C    0.019464
    55  C    0.059898
    56  C   -0.008932
    57  C   -0.114895
    58  C    0.000530
    59  C    0.080282
    60  C    0.053931
    61  C   -0.008240
    62  C   -0.096155
    63  C   -0.004021
    64  C    0.136815
    65  H    0.014891
    66  H    0.040419
    67  H   -0.104804
    68  H    0.000796
    69  H    0.011010
    70  H   -0.034653
    71  H    0.039561
    72  H    0.015882
    73  H    0.018196
    74  H    0.037502
    75  H    0.067826
    76  H    0.054893
    77  H    0.043083
    78  H    0.010817
    79  H    0.042663
    80  H    0.006437
    81  H    0.062051
    82  H    0.049648
    83  H    0.002684
    84  H   -0.015093
    85  H    0.019956
    86  H   -0.026712
    87  H    0.004220
    88  H   -0.027800
    89  H   -0.003198
    90  H   -0.026505
    91  H    0.021505
    92  H    0.021917
    93  H    0.039427
    94  H    0.024287
    95  H    0.016967
    96  H   -0.001265
    97  H    0.050133
    98  H    0.015206
    99  H    0.021941
   100  H    0.039163
   101  H    0.043123
   102  H    0.051230
   103  H    0.042762
   104  H    0.004097
   105  H    0.007802
   106  H    0.005309
   107  H   -0.018348
   108  H   -0.013682
   109  H   -0.004978
   110  H   -0.019448
   111  H   -0.002241
   112  H   -0.037442
   113  H   -0.006034
   114  H   -0.003601
   115  H    0.003231
   116  H    0.026646
   117  H   -0.004189
   118  H   -0.015962
   119  H   -0.022391
   120  H    0.001334
   121  H    0.003879
   122  H    0.018471
   123  H    0.017183
   124  H   -0.015963
   125  H   -0.013112
   126  H   -0.028773
   127  H   -0.023841
   128  H    0.015521
   129  H    0.000580
   130  H   -0.007904
   131  H    0.007918
   132  H   -0.016225
   133  H    0.021718
   134  H   -0.024362
   135  H   -0.010669
   136  H   -0.005873
   137  H    0.161115
   138  H    0.157033
 Sum of Mulliken charges =  -0.00000

 Dipole moment (field-independent basis, Debye):
    X=              1.6726    Y=              4.6337    Z=              0.5760  Tot=              4.9600
 Quadrupole moment (field-independent basis, Debye-Ang):
   XX=           -334.7409   YY=           -394.3354   ZZ=           -391.3984
   XY=            -26.0650   XZ=              3.5314   YZ=              1.4949

 Normal termination of Gaussian 16 at Thu Aug 29 09:58:47 2019.
