 Gaussian 16, Revision A.03,
 Gaussian 16:  ES64L-G16RevA.03 25-Dec-2016

 --------------------------
 # td=(NStates=1) B3LYP/SVP
 --------------------------

 --
 TD
 --
 Symbolic Z-matrix:
 Charge =  0 Multiplicity = 1

                         Standard orientation:
 ---------------------------------------------------------------------
 Center     Atomic      Atomic             Coordinates (Angstroms)
 Number     Number       Type             X           Y           Z
 ---------------------------------------------------------------------
      1          6           0       -5.255741   -1.903069    0.571057
      2          6           0       -4.804010    2.774844    1.402427
      3          6           0       -9.341880    3.245522   -0.129509
      4          6           0       -9.919294   -1.546996   -0.981777
      5          7           0       -5.298270    0.477564    0.892550
      6          6           0       -4.548500   -0.693500    0.857739
      7          6           0       -3.079038   -0.582864    1.256279
      8          6           0       -3.143628    0.794429    1.875786
      9          6           0       -4.395078    1.399787    1.442377
     10          6           0       -2.969303    0.805460    3.434768
     11          6           0       -2.141970   -0.681669    0.178637
     12          6           0       -0.715465   -0.668967    0.542869
     13          6           0        0.342925   -0.920133   -0.565085
     14          8           0        0.054572   -1.189526   -1.789712
     15          8           0        1.619166   -0.663514   -0.124318
     16          7           0       -7.003059    2.704571    0.472283
     17          6           0       -5.922684    3.350680    0.962340
     18          6           0       -6.273608    4.748325    1.066950
     19          6           0       -7.562297    4.915903    0.595670
     20          6           0       -8.105262    3.569498    0.272702
     21          6           0       -5.342397    5.835255    1.421098
     22          6           0       -8.168884    6.203842    0.283258
     23          6           0       -9.137327    6.391658   -0.655430
     24          7           0       -9.118737    0.796382   -0.523668
     25          6           0       -9.824317    1.961216   -0.393278
     26          6           0      -11.253431    1.836444   -0.812288
     27          6           0      -11.409959    0.519585   -1.212709
     28          6           0      -10.088654   -0.146664   -0.927687
     29          6           0      -12.194934    2.946801   -1.127277
     30          6           0      -12.576018   -0.159978   -1.751754
     31          6           0      -12.470864   -0.457966   -3.258624
     32          7           0       -7.676136   -1.265902   -0.063422
     33          6           0       -8.734544   -2.108250   -0.596198
     34          6           0       -8.255135   -3.432013   -0.666809
     35          6           0       -6.859541   -3.390291   -0.217689
     36          6           0       -6.593922   -2.038487    0.062626
     37          6           0       -9.025431   -4.669732   -1.113842
     38          6           0       -5.819950   -4.321835   -0.117218
     39          8           0       -5.719205   -5.512282   -0.214609
     40          6           0       -4.550494   -3.313315    0.391639
     41          6           0       -3.953890   -3.829941    1.579789
     42          8           0       -4.236996   -3.488163    2.764801
     43          8           0       -3.052436   -4.765304    1.398095
     44          6           0       -2.335317   -5.384603    2.357230
     45          6           0        2.659918   -0.799167   -1.112134
     46          6           0        4.044027   -0.588742   -0.450904
     47          6           0        4.980596    0.199191   -0.928629
     48          6           0        4.910055    1.086679   -2.141863
     49          6           0        6.312142    0.266095   -0.044754
     50          6           0        7.550160   -0.187601   -0.952426
     51          6           0        8.876438   -0.171923   -0.038352
     52          6           0       10.126274   -0.680089   -0.654169
     53          6           0        9.951232   -2.254184   -0.869041
     54          6           0       11.423259   -0.328468    0.189305
     55          6           0       12.744226   -0.658070   -0.591017
     56          6           0       13.932666   -0.290958    0.410459
     57          6           0       15.325304   -0.339834   -0.318001
     58          6           0       15.740720   -1.720335   -0.629019
     59          6           0       16.366732    0.430246    0.459806
     60          6           0       17.717194    0.754764   -0.263302
     61          6           0       18.750188    1.549098    0.637859
     62          6           0       20.152770    1.629858   -0.095829
     63          6           0       19.859666    2.453695   -1.414964
     64          6           0       21.175895    2.120541    0.855945
     65          1           0       -3.992194    3.488955    1.882398
     66          1           0      -10.095364    4.009367   -0.234654
     67          1           0      -10.514369   -2.352510   -1.277404
     68          1           0       -2.755388   -1.386810    2.015420
     69          1           0       -2.147965    1.540853    1.654363
     70          1           0       -2.156903   -0.019031    3.895449
     71          1           0       -2.788159    1.886013    3.790688
     72          1           0       -3.974535    0.366076    3.860992
     73          1           0       -2.421883   -1.412664   -0.447209
     74          1           0       -2.210513    0.189224   -0.780438
     75          1           0       -0.658572    0.508959    0.908904
     76          1           0       -0.515860   -1.308610    1.509407
     77          1           0       -4.559929    6.059031    0.560414
     78          1           0       -6.038396    6.896833    1.795220
     79          1           0       -4.516070    5.440982    2.230404
     80          1           0       -7.839660    7.007180    1.006846
     81          1           0       -9.463023    5.804100   -1.372283
     82          1           0       -9.624201    7.425735   -0.520389
     83          1           0      -12.547745    3.494623   -0.293192
     84          1           0      -11.814606    3.869850   -1.790397
     85          1           0      -12.966583    2.712820   -1.612034
     86          1           0      -12.658096   -1.149486   -1.208897
     87          1           0      -13.586981    0.475117   -1.503865
     88          1           0      -12.456578    0.530123   -3.705379
     89          1           0      -11.506479   -1.008469   -3.435960
     90          1           0      -13.231908   -1.080787   -3.788533
     91          1           0       -9.624215   -5.036254   -0.142786
     92          1           0       -9.671048   -4.345433   -2.172619
     93          1           0       -8.396221   -5.702442   -1.646498
     94          1           0       -4.022992   -3.494414   -0.464980
     95          1           0       -1.506442   -6.110687    1.871685
     96          1           0       -1.910538   -4.705436    3.306078
     97          1           0       -3.042652   -5.901320    3.059846
     98          1           0        2.320169   -1.646857   -1.546930
     99          1           0        2.267415   -0.160483   -2.035332
    100          1           0        4.139148   -1.128318    0.476615
    101          1           0        4.983131    2.450306   -2.021011
    102          1           0        5.734634    0.755193   -2.769011
    103          1           0        3.981304    1.138717   -2.913034
    104          1           0        6.362954    1.244460    0.493768
    105          1           0        6.153220   -0.528045    0.829969
    106          1           0        7.297842   -1.178801   -1.509716
    107          1           0        7.774560    0.620121   -1.875824
    108          1           0        8.852082    0.892616    0.410821
    109          1           0        8.654709   -0.734525    0.840176
    110          1           0       10.396288   -0.144661   -1.555237
    111          1           0        9.145210   -2.444752   -1.370825
    112          1           0       10.762036   -2.703184   -1.252905
    113          1           0        9.707138   -2.876126    0.033302
    114          1           0       11.414267    0.807352    0.546817
    115          1           0       11.559423   -0.892298    1.180010
    116          1           0       12.948971   -1.664843   -0.762924
    117          1           0       12.681141   -0.298128   -1.521639
    118          1           0       13.866553    0.627277    0.780554
    119          1           0       13.840177   -0.983444    1.356740
    120          1           0       15.218252    0.321068   -1.286856
    121          1           0       15.245478   -2.489518   -1.233394
    122          1           0       16.775409   -1.603553   -0.941736
    123          1           0       15.635699   -2.261055    0.281039
    124          1           0       15.927565    1.430173    0.651017
    125          1           0       16.704441   -0.007667    1.402520
    126          1           0       18.135899   -0.144317   -0.729733
    127          1           0       17.531284    1.322576   -1.244367
    128          1           0       18.284623    2.638148    0.949072
    129          1           0       19.009980    0.943181    1.693510
    130          1           0       20.483037    0.587485   -0.625882
    131          1           0       19.322126    3.317495   -1.204291
    132          1           0       20.611147    2.850189   -2.139527
    133          1           0       19.193383    1.997364   -2.186437
    134          1           0       21.289602    1.412355    1.836224
    135          1           0       22.086485    2.129607    0.136553
    136          1           0       21.091537    3.269616    1.093661
    137          1           0       -7.223873    1.589304    0.570339
    138          1           0       -7.613506   -0.302134    0.032824
 ---------------------------------------------------------------------

 SCF Done:  E(RB3LYP) =  -2732.93213825     A.U. after   17 cycles

 Excitation energies and oscillator strengths:

 Excited State   1:      Singlet-A      2.0770 eV  596.94 nm  f=0.1349  <S**2>=0.000
     235 -> 238        0.33200
     236 -> 237        0.62165
 This state for optimization and/or second-order correction.
 Total Energy, E(TD-HF/TD-DFT) =  -2732.85581015
 Copying the excited state density for this state as the 1-particle RhoCI density.

 The electronic state is 1-A.
 Alpha  occ. eigenvalues --  -19.18045 -19.17598 -19.12996 -19.12897 -19.09870
 Alpha  occ. eigenvalues --  -14.37316 -14.36518 -14.33625 -14.31184 -10.32864
 Alpha  occ. eigenvalues --  -10.30458 -10.28000 -10.25850 -10.24228 -10.24224
 Alpha  occ. eigenvalues --  -10.24178 -10.23997 -10.23899 -10.23725 -10.23702
 Alpha  occ. eigenvalues --  -10.23700 -10.23448 -10.22573 -10.22532 -10.22358
 Alpha  occ. eigenvalues --  -10.22237 -10.22201 -10.21983 -10.21781 -10.21581
 Alpha  occ. eigenvalues --  -10.21472 -10.21310 -10.21138 -10.21120 -10.21025
 Alpha  occ. eigenvalues --  -10.21023 -10.20911 -10.20840 -10.20753 -10.20477
 Alpha  occ. eigenvalues --  -10.20325 -10.20301 -10.20060 -10.19865 -10.19711
 Alpha  occ. eigenvalues --  -10.19565 -10.19380 -10.19379 -10.19313 -10.19310
 Alpha  occ. eigenvalues --  -10.19044 -10.19012 -10.19006 -10.18965 -10.18724
 Alpha  occ. eigenvalues --  -10.18645 -10.18543 -10.18285 -10.17754 -10.17732
 Alpha  occ. eigenvalues --  -10.17557 -10.16855 -10.16653 -10.16269  -1.10750
 Alpha  occ. eigenvalues --   -1.07879  -1.03778  -0.98116  -0.97906  -0.97699
 Alpha  occ. eigenvalues --   -0.97014  -0.94365  -0.92480  -0.84117  -0.83234
 Alpha  occ. eigenvalues --   -0.82085  -0.81891  -0.81798  -0.81516  -0.80850
 Alpha  occ. eigenvalues --   -0.80242  -0.80017  -0.79309  -0.79298  -0.77640
 Alpha  occ. eigenvalues --   -0.76778  -0.76252  -0.75717  -0.75117  -0.74374
 Alpha  occ. eigenvalues --   -0.74248  -0.72923  -0.72229  -0.71369  -0.69754
 Alpha  occ. eigenvalues --   -0.69551  -0.69206  -0.68533  -0.68075  -0.68011
 Alpha  occ. eigenvalues --   -0.67713  -0.67237  -0.66518  -0.66064  -0.64992
 Alpha  occ. eigenvalues --   -0.64715  -0.63228  -0.62442  -0.61762  -0.61697
 Alpha  occ. eigenvalues --   -0.61163  -0.58944  -0.58331  -0.57902  -0.57662
 Alpha  occ. eigenvalues --   -0.57152  -0.56248  -0.56235  -0.56067  -0.55653
 Alpha  occ. eigenvalues --   -0.55002  -0.54930  -0.53921  -0.53791  -0.53682
 Alpha  occ. eigenvalues --   -0.53172  -0.52604  -0.51875  -0.51230  -0.50437
 Alpha  occ. eigenvalues --   -0.49248  -0.49006  -0.48438  -0.48254  -0.47881
 Alpha  occ. eigenvalues --   -0.47708  -0.47447  -0.47081  -0.47069  -0.46775
 Alpha  occ. eigenvalues --   -0.46495  -0.46148  -0.46117  -0.45790  -0.45533
 Alpha  occ. eigenvalues --   -0.45166  -0.45080  -0.44903  -0.44724  -0.44603
 Alpha  occ. eigenvalues --   -0.44387  -0.44309  -0.44071  -0.43936  -0.43824
 Alpha  occ. eigenvalues --   -0.43403  -0.43353  -0.43011  -0.42602  -0.42287
 Alpha  occ. eigenvalues --   -0.41956  -0.41739  -0.41570  -0.41535  -0.41138
 Alpha  occ. eigenvalues --   -0.40915  -0.40736  -0.40609  -0.40512  -0.40421
 Alpha  occ. eigenvalues --   -0.39875  -0.39828  -0.39578  -0.39311  -0.39177
 Alpha  occ. eigenvalues --   -0.39130  -0.38836  -0.38632  -0.38540  -0.38307
 Alpha  occ. eigenvalues --   -0.37850  -0.37648  -0.37595  -0.37335  -0.37225
 Alpha  occ. eigenvalues --   -0.37138  -0.36982  -0.36721  -0.36563  -0.36069
 Alpha  occ. eigenvalues --   -0.36031  -0.35923  -0.35758  -0.35269  -0.35247
 Alpha  occ. eigenvalues --   -0.35143  -0.35079  -0.34862  -0.34789  -0.34718
 Alpha  occ. eigenvalues --   -0.34232  -0.34157  -0.34103  -0.33599  -0.33545
 Alpha  occ. eigenvalues --   -0.33439  -0.33093  -0.33028  -0.32811  -0.32326
 Alpha  occ. eigenvalues --   -0.32152  -0.31894  -0.31638  -0.31234  -0.31133
 Alpha  occ. eigenvalues --   -0.30859  -0.30675  -0.30504  -0.30183  -0.30043
 Alpha  occ. eigenvalues --   -0.29712  -0.29429  -0.28731  -0.27934  -0.27816
 Alpha  occ. eigenvalues --   -0.27572  -0.27526  -0.26517  -0.26187  -0.25812
 Alpha  occ. eigenvalues --   -0.25774  -0.24346  -0.24053  -0.22969  -0.20183
 Alpha  occ. eigenvalues --   -0.19444
 Alpha virt. eigenvalues --   -0.10538  -0.08291  -0.04862  -0.02805  -0.02213
 Alpha virt. eigenvalues --   -0.00859  -0.00685  -0.00198   0.01427   0.01929
 Alpha virt. eigenvalues --    0.02912   0.03212   0.03938   0.04120   0.04247

 Mulliken charges:
               1
     1  C    0.013704
     2  C   -0.128709
     3  C   -0.112068
     4  C   -0.045130
     5  N   -0.235585
     6  C   -0.018066
     7  C    0.040618
     8  C   -0.108699
     9  C    0.050584
    10  C   -0.033889
    11  C    0.057602
    12  C   -0.033956
    13  C    0.244348
    14  O   -0.299533
    15  O   -0.325627
    16  N   -0.137888
    17  C    0.164670
    18  C   -0.078216
    19  C    0.024117
    20  C    0.142688
    21  C   -0.052118
    22  C   -0.051601
    23  C    0.021110
    24  N   -0.278023
    25  C    0.086555
    26  C   -0.141486
    27  C   -0.069588
    28  C    0.135696
    29  C    0.183550
    30  C    0.010461
    31  C    0.005820
    32  N   -0.012961
    33  C    0.071180
    34  C   -0.058706
    35  C   -0.015633
    36  C    0.078530
    37  C   -0.094158
    38  C    0.025978
    39  O   -0.141757
    40  C   -0.078497
    41  C    0.206557
    42  O   -0.298717
    43  O   -0.216358
    44  C    0.106159
    45  C    0.261196
    46  C   -0.023614
    47  C   -0.071610
    48  C   -0.039931
    49  C    0.017608
    50  C   -0.092625
    51  C    0.042403
    52  C    0.009057
    53  C    0.151863
    54  C   -0.045640
    55  C    0.104023
    56  C    0.060733
    57  C   -0.083672
    58  C    0.090652
    59  C    0.052256
    60  C   -0.019086
    61  C   -0.047559
    62  C   -0.122676
    63  C    0.021054
    64  C    0.010789
    65  H   -0.008757
    66  H   -0.035635
    67  H   -0.058123
    68  H    0.041889
    69  H    0.033498
    70  H    0.050954
    71  H    0.037797
    72  H    0.041156
    73  H   -0.032712
    74  H    0.015817
    75  H    0.058163
    76  H    0.047408
    77  H    0.057581
    78  H    0.063570
    79  H    0.041719
    80  H    0.012693
    81  H   -0.015072
    82  H    0.033023
    83  H   -0.004044
    84  H    0.017104
    85  H   -0.074242
    86  H    0.015060
    87  H    0.024588
    88  H    0.010212
    89  H    0.017018
    90  H    0.020215
    91  H    0.082505
    92  H    0.056596
    93  H    0.083985
    94  H    0.014688
    95  H    0.063707
    96  H    0.025454
    97  H    0.020791
    98  H   -0.027605
    99  H    0.017045
   100  H   -0.004239
   101  H    0.042010
   102  H    0.032270
   103  H    0.041395
   104  H    0.030787
   105  H    0.019173
   106  H    0.036382
   107  H    0.030572
   108  H   -0.003984
   109  H   -0.022824
   110  H   -0.017181
   111  H   -0.058778
   112  H   -0.028473
   113  H   -0.007869
   114  H    0.009958
   115  H   -0.005817
   116  H   -0.025002
   117  H   -0.045554
   118  H   -0.058859
   119  H    0.003861
   120  H   -0.006677
   121  H    0.005995
   122  H   -0.007217
   123  H   -0.024847
   124  H   -0.007956
   125  H   -0.011008
   126  H   -0.007031
   127  H   -0.003408
   128  H    0.032470
   129  H    0.014911
   130  H    0.026885
   131  H   -0.024128
   132  H   -0.004361
   133  H    0.006815
   134  H    0.048600
   135  H    0.014851
   136  H    0.023613
   137  H    0.222080
   138  H    0.106366
 Sum of Mulliken charges =  -0.00000

 Dipole moment (field-independent basis, Debye):
    X=              1.7378    Y=              4.7817    Z=             -0.2724  Tot=              5.0950
 Quadrupole moment (field-independent basis, Debye-Ang):
   XX=           -340.0105   YY=           -383.9174   ZZ=           -399.8496
   XY=            -27.4675   XZ=             10.0204   YZ=              5.0220

 Normal termination of Gaussian 16 at Sat Aug 10 16:01:12 2019.
