 Gaussian 16, Revision A.03,
 Gaussian 16:  ES64L-G16RevA.03 25-Dec-2016

 --------------------------
 # td=(NStates=1) B3LYP/SVP
 --------------------------

 --
 TD
 --
 Symbolic Z-matrix:
 Charge =  0 Multiplicity = 1

                         Standard orientation:
 ---------------------------------------------------------------------
 Center     Atomic      Atomic             Coordinates (Angstroms)
 Number     Number       Type             X           Y           Z
 ---------------------------------------------------------------------
      1          6           0       -5.104949   -1.992692    0.443744
      2          6           0       -4.743352    2.707612    1.589793
      3          6           0       -9.156255    3.405575   -0.193657
      4          6           0       -9.853204   -1.284020   -0.953847
      5          7           0       -5.131134    0.353489    0.820230
      6          6           0       -4.541655   -0.849158    0.864887
      7          6           0       -3.039447   -0.627974    1.359351
      8          6           0       -3.033818    0.779301    1.939754
      9          6           0       -4.413677    1.266836    1.420229
     10          6           0       -3.056618    0.676035    3.569671
     11          6           0       -1.938415   -0.775472    0.346939
     12          6           0       -0.534870   -0.930217    0.675426
     13          6           0        0.406980   -1.115259   -0.556268
     14          8           0        0.013962   -1.240979   -1.679925
     15          8           0        1.699503   -1.023396   -0.084569
     16          7           0       -6.986570    2.795189    0.558338
     17          6           0       -5.810969    3.357471    1.121495
     18          6           0       -6.061168    4.777569    1.285716
     19          6           0       -7.292920    5.012817    0.619252
     20          6           0       -7.795214    3.717895    0.234866
     21          6           0       -5.075903    5.678345    1.813066
     22          6           0       -7.823699    6.348048    0.357806
     23          6           0       -8.705297    6.725193   -0.559508
     24          7           0       -9.117227    1.035239   -0.579701
     25          6           0       -9.713326    2.195736   -0.584003
     26          6           0      -11.120184    2.102983   -1.067785
     27          6           0      -11.331475    0.728039   -1.278995
     28          6           0      -10.024310    0.129250   -0.904436
     29          6           0      -12.142533    3.197966   -1.199780
     30          6           0      -12.573481    0.015007   -1.857011
     31          6           0      -12.574693   -0.360869   -3.352069
     32          7           0       -7.489964   -1.170627   -0.261138
     33          6           0       -8.532319   -1.924706   -0.648220
     34          6           0       -8.243769   -3.306617   -0.739391
     35          6           0       -6.922635   -3.449407   -0.370388
     36          6           0       -6.471715   -2.131414   -0.055303
     37          6           0       -9.129120   -4.524826   -1.040033
     38          6           0       -5.814289   -4.312820    0.084731
     39          8           0       -5.786510   -5.551685   -0.049158
     40          6           0       -4.582443   -3.467283    0.363921
     41          6           0       -4.064544   -3.910061    1.764889
     42          8           0       -4.326968   -3.456389    2.881331
     43          8           0       -3.287240   -5.048624    1.550570
     44          6           0       -2.853257   -5.607957    2.820978
     45          6           0        2.629694   -1.099422   -1.232588
     46          6           0        4.019267   -0.758561   -0.616910
     47          6           0        4.880299    0.104978   -1.222866
     48          6           0        4.764530    0.844163   -2.555467
     49          6           0        6.295849    0.348096   -0.425936
     50          6           0        7.519760   -0.268864   -1.264100
     51          6           0        8.713828   -0.249542   -0.283331
     52          6           0       10.011866   -0.721887   -0.965319
     53          6           0        9.954561   -2.200108   -1.446664
     54          6           0       11.212903   -0.388765   -0.049153
     55          6           0       12.614470   -0.523261   -0.653007
     56          6           0       13.722596   -0.032648    0.213660
     57          6           0       15.128219   -0.068662   -0.467513
     58          6           0       15.538434   -1.651256   -0.716685
     59          6           0       16.197112    0.677180    0.398055
     60          6           0       17.505861    0.802247   -0.092042
     61          6           0       18.558218    1.572279    0.795119
     62          6           0       20.057757    1.616360    0.299809
     63          6           0       20.055554    2.490647   -1.030603
     64          6           0       21.139118    2.014148    1.376085
     65          1           0       -3.896301    3.242982    1.903157
     66          1           0       -9.898389    4.275717   -0.220862
     67          1           0      -10.371783   -2.136446   -1.506422
     68          1           0       -2.949010   -1.435146    2.032299
     69          1           0       -2.192337    1.299066    1.677394
     70          1           0       -2.185206    0.275518    4.052235
     71          1           0       -3.239498    1.644620    4.120824
     72          1           0       -3.778086   -0.108773    3.963994
     73          1           0       -2.154317   -1.746169   -0.228876
     74          1           0       -1.915997   -0.063853   -0.454845
     75          1           0       -0.411527    0.000538    1.355191
     76          1           0       -0.439943   -1.941850    1.372808
     77          1           0       -3.991645    5.385433    1.516445
     78          1           0       -5.442414    6.813347    1.509665
     79          1           0       -5.147894    5.459427    3.000275
     80          1           0       -7.463821    7.086771    1.142847
     81          1           0       -9.031775    5.947747   -1.329723
     82          1           0       -9.261895    7.543075   -0.472441
     83          1           0      -12.551525    3.599551   -0.131765
     84          1           0      -11.707491    3.884944   -1.801349
     85          1           0      -12.911790    2.719431   -1.725830
     86          1           0      -12.593449   -1.021300   -1.234302
     87          1           0      -13.453908    0.609317   -1.621789
     88          1           0      -12.490519    0.692998   -3.862101
     89          1           0      -11.905673   -1.216564   -3.769863
     90          1           0      -13.777388   -0.731068   -3.557150
     91          1           0      -10.112447   -4.484562   -0.757048
     92          1           0       -9.100054   -4.629677   -2.342332
     93          1           0       -8.475912   -5.539974   -0.559215
     94          1           0       -3.769073   -3.849133   -0.327323
     95          1           0       -2.136187   -6.553042    2.841682
     96          1           0       -2.414140   -4.873035    3.435845
     97          1           0       -3.786300   -6.043815    3.521635
     98          1           0        2.686505   -2.028508   -1.894403
     99          1           0        2.622844   -0.357085   -2.103974
    100          1           0        4.205422   -1.336732    0.230217
    101          1           0        5.121979    1.745621   -2.306755
    102          1           0        5.237381    0.291160   -3.374458
    103          1           0        3.592860    0.920460   -2.651793
    104          1           0        6.416262    1.488508   -0.066724
    105          1           0        6.251029   -0.214673    0.671655
    106          1           0        7.028276   -1.242803   -1.424984
    107          1           0        7.622095    0.591977   -2.045815
    108          1           0        8.770337    0.796724   -0.064608
    109          1           0        8.491071   -1.062122    0.543334
    110          1           0        9.965899   -0.097425   -1.904087
    111          1           0        9.168735   -2.552657   -2.094217
    112          1           0       10.938229   -2.682929   -1.656270
    113          1           0        9.629116   -2.741440   -0.555469
    114          1           0       11.219399    0.489607    0.275256
    115          1           0       11.147895   -0.957796    0.874481
    116          1           0       12.865613   -1.600971   -1.037225
    117          1           0       12.583779    0.273103   -1.588555
    118          1           0       13.529348    0.829296    0.411336
    119          1           0       13.633770   -0.736513    1.086380
    120          1           0       15.020481    0.095664   -1.494190
    121          1           0       14.790451   -2.224630   -1.436650
    122          1           0       16.590272   -1.903408   -1.021176
    123          1           0       15.429721   -2.187726    0.205324
    124          1           0       15.907572    1.631945    0.598122
    125          1           0       16.248984    0.025510    1.287359
    126          1           0       17.854153   -0.283203   -0.301125
    127          1           0       17.484207    1.289779   -1.204634
    128          1           0       18.195959    2.706384    0.620745
    129          1           0       18.354721    1.171164    1.769499
    130          1           0       20.532155    0.545848   -0.015629
    131          1           0       19.591369    3.556475   -1.007754
    132          1           0       20.904343    2.578032   -1.543083
    133          1           0       19.363672    1.994041   -1.918460
    134          1           0       20.830019    1.456335    2.279760
    135          1           0       22.166077    1.895378    0.926493
    136          1           0       21.101965    3.070877    1.777014
    137          1           0       -7.011695    1.763621    0.589882
    138          1           0       -7.660403   -0.175702    0.053846
 ---------------------------------------------------------------------

 SCF Done:  E(RB3LYP) =  -2732.96657790     A.U. after   17 cycles

 Excitation energies and oscillator strengths:

 Excited State   1:      Singlet-A      2.0159 eV  615.04 nm  f=0.2272  <S**2>=0.000
     235 -> 237        0.13487
     235 -> 238        0.23495
     236 -> 237        0.64406
     236 -> 238       -0.10917
 This state for optimization and/or second-order correction.
 Total Energy, E(TD-HF/TD-DFT) =  -2732.89249584
 Copying the excited state density for this state as the 1-particle RhoCI density.

 The electronic state is 1-A.
 Alpha  occ. eigenvalues --  -19.19486 -19.18806 -19.14359 -19.13935 -19.11812
 Alpha  occ. eigenvalues --  -14.37765 -14.37152 -14.32904 -14.29873 -10.32865
 Alpha  occ. eigenvalues --  -10.32792 -10.28118 -10.25624 -10.25525 -10.24685
 Alpha  occ. eigenvalues --  -10.24088 -10.23825 -10.23550 -10.23068 -10.22969
 Alpha  occ. eigenvalues --  -10.22885 -10.22771 -10.21923 -10.21881 -10.21565
 Alpha  occ. eigenvalues --  -10.21443 -10.21400 -10.21359 -10.21188 -10.21144
 Alpha  occ. eigenvalues --  -10.21038 -10.21013 -10.20989 -10.20911 -10.20875
 Alpha  occ. eigenvalues --  -10.20843 -10.20664 -10.20565 -10.19923 -10.19909
 Alpha  occ. eigenvalues --  -10.19832 -10.19761 -10.19651 -10.19548 -10.19417
 Alpha  occ. eigenvalues --  -10.19216 -10.19191 -10.19036 -10.19034 -10.19007
 Alpha  occ. eigenvalues --  -10.18929 -10.18910 -10.18805 -10.18767 -10.18717
 Alpha  occ. eigenvalues --  -10.18713 -10.18530 -10.18491 -10.18401 -10.18274
 Alpha  occ. eigenvalues --  -10.17637 -10.17100 -10.16556 -10.16365  -1.09516
 Alpha  occ. eigenvalues --   -1.08419  -1.02310  -1.00950  -1.00662  -1.00316
 Alpha  occ. eigenvalues --   -0.98116  -0.95864  -0.95413  -0.84841  -0.83116
 Alpha  occ. eigenvalues --   -0.82465  -0.82119  -0.81437  -0.81396  -0.80480
 Alpha  occ. eigenvalues --   -0.80117  -0.78985  -0.78875  -0.78207  -0.77336
 Alpha  occ. eigenvalues --   -0.76887  -0.76450  -0.75296  -0.74753  -0.74360
 Alpha  occ. eigenvalues --   -0.73360  -0.72898  -0.72262  -0.71502  -0.71173
 Alpha  occ. eigenvalues --   -0.69268  -0.68830  -0.68041  -0.67952  -0.67526
 Alpha  occ. eigenvalues --   -0.67373  -0.67145  -0.66511  -0.65804  -0.64869
 Alpha  occ. eigenvalues --   -0.64488  -0.63558  -0.61909  -0.61587  -0.60458
 Alpha  occ. eigenvalues --   -0.60282  -0.59129  -0.58603  -0.57820  -0.57375
 Alpha  occ. eigenvalues --   -0.56500  -0.56279  -0.55989  -0.55705  -0.55192
 Alpha  occ. eigenvalues --   -0.55118  -0.54908  -0.54601  -0.54383  -0.52879
 Alpha  occ. eigenvalues --   -0.52794  -0.51903  -0.51548  -0.50558  -0.50285
 Alpha  occ. eigenvalues --   -0.49695  -0.49528  -0.49347  -0.49007  -0.48800
 Alpha  occ. eigenvalues --   -0.48384  -0.48300  -0.48128  -0.47659  -0.47578
 Alpha  occ. eigenvalues --   -0.47231  -0.46719  -0.46459  -0.46295  -0.46051
 Alpha  occ. eigenvalues --   -0.45763  -0.45405  -0.45194  -0.45147  -0.44890
 Alpha  occ. eigenvalues --   -0.44567  -0.44119  -0.43956  -0.43910  -0.43837
 Alpha  occ. eigenvalues --   -0.43397  -0.43166  -0.43006  -0.42560  -0.42401
 Alpha  occ. eigenvalues --   -0.42212  -0.42008  -0.41881  -0.41626  -0.41511
 Alpha  occ. eigenvalues --   -0.41266  -0.40857  -0.40371  -0.40219  -0.40036
 Alpha  occ. eigenvalues --   -0.39925  -0.39696  -0.39580  -0.39192  -0.39182
 Alpha  occ. eigenvalues --   -0.39002  -0.38696  -0.38674  -0.38332  -0.38234
 Alpha  occ. eigenvalues --   -0.37960  -0.37908  -0.37693  -0.37656  -0.37506
 Alpha  occ. eigenvalues --   -0.37365  -0.37255  -0.37139  -0.36918  -0.36912
 Alpha  occ. eigenvalues --   -0.36567  -0.36537  -0.36408  -0.36061  -0.35907
 Alpha  occ. eigenvalues --   -0.35722  -0.35638  -0.35359  -0.35311  -0.34839
 Alpha  occ. eigenvalues --   -0.34821  -0.34617  -0.33917  -0.33546  -0.33475
 Alpha  occ. eigenvalues --   -0.33181  -0.32975  -0.32249  -0.32197  -0.32008
 Alpha  occ. eigenvalues --   -0.31911  -0.31852  -0.31548  -0.31393  -0.31168
 Alpha  occ. eigenvalues --   -0.31082  -0.30603  -0.30602  -0.30438  -0.30326
 Alpha  occ. eigenvalues --   -0.29700  -0.29584  -0.29244  -0.28893  -0.28746
 Alpha  occ. eigenvalues --   -0.28280  -0.27274  -0.26834  -0.26761  -0.26083
 Alpha  occ. eigenvalues --   -0.24936  -0.24833  -0.23946  -0.22922  -0.20266
 Alpha  occ. eigenvalues --   -0.18545
 Alpha virt. eigenvalues --   -0.10558  -0.07403  -0.05220  -0.02736  -0.01231
 Alpha virt. eigenvalues --   -0.01070  -0.00169   0.00410   0.02105   0.03250
 Alpha virt. eigenvalues --    0.03586   0.03734   0.03977   0.04546   0.04802

 Mulliken charges:
               1
     1  C    0.105448
     2  C   -0.059858
     3  C   -0.150685
     4  C   -0.086218
     5  N   -0.119802
     6  C   -0.140393
     7  C    0.078459
     8  C    0.000949
     9  C   -0.036539
    10  C    0.004234
    11  C    0.030107
    12  C   -0.041873
    13  C    0.220858
    14  O   -0.198047
    15  O   -0.310606
    16  N    0.000387
    17  C    0.143394
    18  C   -0.103528
    19  C    0.013602
    20  C    0.074974
    21  C   -0.012985
    22  C   -0.067167
    23  C    0.013024
    24  N   -0.163657
    25  C    0.045466
    26  C   -0.204732
    27  C   -0.083297
    28  C    0.093352
    29  C    0.179326
    30  C    0.037428
    31  C   -0.067894
    32  N   -0.051791
    33  C   -0.043737
    34  C   -0.155105
    35  C    0.068099
    36  C    0.018288
    37  C   -0.000911
    38  C    0.062449
    39  O   -0.209970
    40  C   -0.013691
    41  C    0.213172
    42  O   -0.233345
    43  O   -0.312309
    44  C    0.135450
    45  C    0.221128
    46  C   -0.058443
    47  C   -0.170086
    48  C    0.127248
    49  C   -0.102846
    50  C    0.010607
    51  C    0.018214
    52  C   -0.054490
    53  C    0.050041
    54  C    0.195120
    55  C   -0.086536
    56  C    0.196487
    57  C   -0.062507
    58  C   -0.069197
    59  C    0.152745
    60  C   -0.060865
    61  C    0.040756
    62  C   -0.104331
    63  C    0.002252
    64  C    0.022707
    65  H   -0.045687
    66  H   -0.003043
    67  H    0.016627
    68  H   -0.029570
    69  H   -0.021082
    70  H    0.002332
    71  H    0.014513
    72  H    0.033547
    73  H   -0.003330
    74  H   -0.010156
    75  H    0.034851
    76  H    0.042265
    77  H    0.061151
    78  H    0.056399
    79  H    0.054886
    80  H    0.011183
    81  H    0.039990
    82  H   -0.013344
    83  H    0.050989
    84  H   -0.008358
    85  H   -0.020790
    86  H    0.021709
    87  H    0.010272
    88  H    0.032566
    89  H    0.054816
    90  H    0.025627
    91  H    0.014990
    92  H    0.049582
    93  H    0.087176
    94  H    0.083751
    95  H    0.053801
    96  H    0.020967
    97  H    0.043594
    98  H    0.040110
    99  H    0.002876
   100  H   -0.019903
   101  H   -0.008044
   102  H    0.056055
   103  H    0.031720
   104  H    0.024711
   105  H    0.012879
   106  H    0.023834
   107  H    0.029373
   108  H   -0.009670
   109  H    0.014870
   110  H   -0.019182
   111  H    0.004814
   112  H    0.016230
   113  H   -0.029882
   114  H   -0.101348
   115  H   -0.031341
   116  H    0.016800
   117  H   -0.007245
   118  H   -0.105765
   119  H   -0.005486
   120  H   -0.017800
   121  H    0.027794
   122  H    0.024298
   123  H   -0.011350
   124  H   -0.037951
   125  H   -0.011325
   126  H   -0.008374
   127  H    0.002266
   128  H    0.018450
   129  H   -0.009374
   130  H    0.017875
   131  H    0.018165
   132  H   -0.029966
   133  H    0.014537
   134  H    0.012875
   135  H    0.029230
   136  H    0.003584
   137  H    0.151806
   138  H    0.168296
 Sum of Mulliken charges =  -0.00000

 Dipole moment (field-independent basis, Debye):
    X=              2.5827    Y=              5.0805    Z=              1.4571  Tot=              5.8826
 Quadrupole moment (field-independent basis, Debye-Ang):
   XX=           -366.5122   YY=           -387.7560   ZZ=           -395.9934
   XY=            -27.3818   XZ=              5.0339   YZ=              0.1972

 Normal termination of Gaussian 16 at Sun Sep  1 09:42:05 2019.
