 Gaussian 16, Revision A.03,
 Gaussian 16:  ES64L-G16RevA.03 25-Dec-2016

 --------------------------
 # td=(NStates=1) B3LYP/SVP
 --------------------------

 --
 TD
 --
 Symbolic Z-matrix:
 Charge =  0 Multiplicity = 1

                         Standard orientation:
 ---------------------------------------------------------------------
 Center     Atomic      Atomic             Coordinates (Angstroms)
 Number     Number       Type             X           Y           Z
 ---------------------------------------------------------------------
      1          6           0       -5.089810   -1.979767    0.423355
      2          6           0       -4.725448    2.751548    1.523364
      3          6           0       -9.360964    3.343568   -0.168908
      4          6           0       -9.808677   -1.458849   -0.874130
      5          7           0       -5.252266    0.334875    0.955891
      6          6           0       -4.514156   -0.778621    0.829708
      7          6           0       -2.980820   -0.571737    1.122453
      8          6           0       -3.094075    0.871021    1.808274
      9          6           0       -4.450796    1.375511    1.393212
     10          6           0       -2.966909    0.757065    3.440742
     11          6           0       -2.094957   -0.562525   -0.123618
     12          6           0       -0.626439   -0.693628    0.446512
     13          6           0        0.343394   -0.950145   -0.738213
     14          8           0        0.033178   -1.079649   -1.933701
     15          8           0        1.622165   -0.940086   -0.283593
     16          7           0       -7.090210    2.697776    0.625681
     17          6           0       -5.959609    3.387390    1.094110
     18          6           0       -6.239003    4.754390    0.993910
     19          6           0       -7.514850    5.037234    0.495685
     20          6           0       -8.059609    3.680762    0.219299
     21          6           0       -5.250499    5.884772    1.406361
     22          6           0       -8.173848    6.297756    0.314449
     23          6           0       -9.040051    6.617056   -0.643125
     24          7           0       -9.136581    0.917706   -0.484067
     25          6           0       -9.838045    2.088253   -0.499498
     26          6           0      -11.251379    1.896338   -0.904674
     27          6           0      -11.349689    0.545456   -1.159761
     28          6           0      -10.001282    0.048862   -0.855197
     29          6           0      -12.267731    3.006262   -0.984349
     30          6           0      -12.548318   -0.335993   -1.519841
     31          6           0      -12.590945   -0.333889   -3.122701
     32          7           0       -7.461199   -1.236937   -0.348064
     33          6           0       -8.572399   -2.102095   -0.725740
     34          6           0       -8.119563   -3.381552   -0.686196
     35          6           0       -6.786876   -3.394727   -0.284830
     36          6           0       -6.434721   -2.069830   -0.014759
     37          6           0       -9.007348   -4.639488   -1.137975
     38          6           0       -5.628449   -4.269776    0.114116
     39          8           0       -5.615217   -5.497669    0.029192
     40          6           0       -4.353987   -3.409240    0.484453
     41          6           0       -3.798388   -3.900633    1.866058
     42          8           0       -3.969797   -3.326177    2.897599
     43          8           0       -3.165666   -4.906916    1.592373
     44          6           0       -2.698764   -5.602480    2.732082
     45          6           0        2.655879   -1.150485   -1.254799
     46          6           0        3.968188   -0.866978   -0.510984
     47          6           0        4.937321    0.030513   -0.945081
     48          6           0        4.942728    0.724198   -2.313000
     49          6           0        6.203128   -0.015747   -0.131238
     50          6           0        7.496061   -0.364367   -1.093610
     51          6           0        8.723869   -0.301948   -0.195214
     52          6           0       10.036642   -0.683344   -0.979929
     53          6           0       10.086524   -2.231896   -1.267093
     54          6           0       11.355557   -0.214195   -0.098682
     55          6           0       12.688873   -0.442543   -0.685698
     56          6           0       13.782361    0.016243    0.182348
     57          6           0       15.163085   -0.238163   -0.391326
     58          6           0       15.614942   -1.741740   -0.419499
     59          6           0       16.171469    0.553789    0.489637
     60          6           0       17.693781    0.627267   -0.019624
     61          6           0       18.548434    1.518413    0.704140
     62          6           0       20.065649    1.770796    0.153585
     63          6           0       20.092273    2.423114   -1.238366
     64          6           0       20.806611    2.570325    1.282109
     65          1           0       -3.849965    3.426456    1.909595
     66          1           0      -10.167882    4.102117   -0.354296
     67          1           0      -10.665525   -2.031190   -1.348113
     68          1           0       -2.539619   -1.332891    1.847252
     69          1           0       -2.181453    1.625645    1.624636
     70          1           0       -2.007795    0.659971    3.763835
     71          1           0       -3.358163    1.747291    3.957513
     72          1           0       -3.606234   -0.069114    3.644170
     73          1           0       -2.237230   -1.384157   -0.738597
     74          1           0       -2.154549    0.308928   -0.874147
     75          1           0       -0.260027    0.323966    1.096491
     76          1           0       -0.607004   -1.579748    1.082211
     77          1           0       -4.054633    5.556951    0.975165
     78          1           0       -5.708439    7.073234    0.884641
     79          1           0       -5.329029    5.885679    2.633684
     80          1           0       -7.988119    7.138453    1.070242
     81          1           0       -9.449116    5.988301   -1.412489
     82          1           0       -9.435708    7.538488   -0.431614
     83          1           0      -12.469522    3.398103    0.050123
     84          1           0      -11.832246    3.585505   -1.765997
     85          1           0      -13.314897    2.669928   -1.304773
     86          1           0      -12.468053   -1.360127   -1.152552
     87          1           0      -13.464979    0.286076   -0.923272
     88          1           0      -12.616621    0.714635   -3.723056
     89          1           0      -11.538016   -0.697495   -3.573173
     90          1           0      -13.463089   -0.978971   -3.475531
     91          1           0      -10.094231   -4.470406   -0.435307
     92          1           0       -9.209605   -4.726883   -2.243281
     93          1           0       -8.440875   -5.677194   -0.802779
     94          1           0       -3.752906   -3.546007   -0.394648
     95          1           0       -2.094395   -6.522341    2.375319
     96          1           0       -2.099174   -4.966343    3.418919
     97          1           0       -3.439882   -6.087704    3.253964
     98          1           0        2.250679   -2.146285   -1.694115
     99          1           0        2.372396   -0.344026   -2.069318
    100          1           0        4.002673   -1.219054    0.425422
    101          1           0        5.821554    1.724860   -2.264683
    102          1           0        5.468799    0.216899   -3.083866
    103          1           0        3.927544    0.826820   -2.409909
    104          1           0        6.374268    0.971979    0.385378
    105          1           0        5.880458   -0.900743    0.692350
    106          1           0        7.437157   -1.450757   -1.606630
    107          1           0        7.562721    0.375610   -1.896228
    108          1           0        8.656939    0.786844    0.168419
    109          1           0        8.586573   -0.968687    0.694492
    110          1           0       10.042040   -0.272030   -1.939213
    111          1           0        9.231390   -2.473877   -1.919823
    112          1           0       10.970035   -2.363987   -1.883868
    113          1           0        9.849698   -2.780692   -0.418311
    114          1           0       11.215212    0.865027    0.200557
    115          1           0       11.244831   -0.618287    1.045937
    116          1           0       12.790531   -1.545462   -0.685371
    117          1           0       12.745051   -0.050506   -1.644386
    118          1           0       13.706877    0.983973    0.541230
    119          1           0       13.865964   -0.448777    1.111936
    120          1           0       15.048489   -0.102868   -1.420918
    121          1           0       14.885262   -2.350406   -0.981364
    122          1           0       16.639058   -1.844573   -1.000312
    123          1           0       15.601094   -2.368415    0.615713
    124          1           0       15.704767    1.657069    0.591466
    125          1           0       16.228155    0.322459    1.475905
    126          1           0       18.043530   -0.379202   -0.057242
    127          1           0       17.603680    1.015303   -1.039081
    128          1           0       18.009331    2.599657    0.831935
    129          1           0       18.690180    1.042660    1.879653
    130          1           0       20.290757    0.748465   -0.077769
    131          1           0       19.624437    3.290263   -1.254534
    132          1           0       21.225567    2.608903   -1.418749
    133          1           0       19.686495    1.768417   -1.946168
    134          1           0       20.858360    1.912062    2.155466
    135          1           0       21.986558    2.849984    0.920253
    136          1           0       20.436661    3.587482    1.321078
    137          1           0       -6.988792    1.763387    0.623140
    138          1           0       -7.403716   -0.227738   -0.457489
 ---------------------------------------------------------------------

 SCF Done:  E(RB3LYP) =  -2733.00431557     A.U. after   17 cycles

 Excitation energies and oscillator strengths:

 Excited State   1:      Singlet-A      1.9999 eV  619.95 nm  f=0.1597  <S**2>=0.000
     235 -> 237       -0.14957
     235 -> 238        0.29216
     236 -> 237        0.61490
     236 -> 238        0.10904
 This state for optimization and/or second-order correction.
 Total Energy, E(TD-HF/TD-DFT) =  -2732.93082009
 Copying the excited state density for this state as the 1-particle RhoCI density.

 The electronic state is 1-A.
 Alpha  occ. eigenvalues --  -19.20829 -19.17326 -19.12833 -19.12429 -19.12109
 Alpha  occ. eigenvalues --  -14.36282 -14.35863 -14.32224 -14.29429 -10.32110
 Alpha  occ. eigenvalues --  -10.31774 -10.28173 -10.25746 -10.25739 -10.24371
 Alpha  occ. eigenvalues --  -10.24343 -10.23473 -10.23020 -10.22972 -10.22864
 Alpha  occ. eigenvalues --  -10.22744 -10.22666 -10.21982 -10.21538 -10.21428
 Alpha  occ. eigenvalues --  -10.21363 -10.21338 -10.21123 -10.20979 -10.20933
 Alpha  occ. eigenvalues --  -10.20926 -10.20860 -10.20804 -10.20754 -10.20639
 Alpha  occ. eigenvalues --  -10.20627 -10.20541 -10.20507 -10.20483 -10.20056
 Alpha  occ. eigenvalues --  -10.19883 -10.19870 -10.19859 -10.19618 -10.19511
 Alpha  occ. eigenvalues --  -10.19488 -10.19440 -10.19350 -10.19293 -10.19171
 Alpha  occ. eigenvalues --  -10.19156 -10.18959 -10.18938 -10.18626 -10.18608
 Alpha  occ. eigenvalues --  -10.18477 -10.18394 -10.18216 -10.18011 -10.17557
 Alpha  occ. eigenvalues --  -10.17502 -10.17281 -10.16708 -10.16038  -1.16510
 Alpha  occ. eigenvalues --   -1.08726  -1.02968  -1.01712  -0.99642  -0.97039
 Alpha  occ. eigenvalues --   -0.96317  -0.94894  -0.93373  -0.83455  -0.82660
 Alpha  occ. eigenvalues --   -0.81954  -0.81927  -0.80271  -0.80088  -0.80023
 Alpha  occ. eigenvalues --   -0.79577  -0.79281  -0.78904  -0.78069  -0.77739
 Alpha  occ. eigenvalues --   -0.76686  -0.76515  -0.75593  -0.74522  -0.73865
 Alpha  occ. eigenvalues --   -0.73729  -0.72875  -0.72009  -0.71087  -0.69190
 Alpha  occ. eigenvalues --   -0.69090  -0.68318  -0.67984  -0.67829  -0.67825
 Alpha  occ. eigenvalues --   -0.67011  -0.66220  -0.65839  -0.65166  -0.64573
 Alpha  occ. eigenvalues --   -0.63856  -0.62735  -0.61700  -0.60897  -0.60469
 Alpha  occ. eigenvalues --   -0.60273  -0.59208  -0.58468  -0.57681  -0.57461
 Alpha  occ. eigenvalues --   -0.56803  -0.56410  -0.55930  -0.55775  -0.55371
 Alpha  occ. eigenvalues --   -0.54582  -0.54414  -0.54089  -0.53495  -0.53110
 Alpha  occ. eigenvalues --   -0.52925  -0.52615  -0.51699  -0.50886  -0.50491
 Alpha  occ. eigenvalues --   -0.49969  -0.49489  -0.49422  -0.48724  -0.48123
 Alpha  occ. eigenvalues --   -0.48042  -0.47775  -0.47314  -0.46688  -0.46583
 Alpha  occ. eigenvalues --   -0.46473  -0.46167  -0.45928  -0.45778  -0.45432
 Alpha  occ. eigenvalues --   -0.45394  -0.45326  -0.45208  -0.44658  -0.44431
 Alpha  occ. eigenvalues --   -0.44355  -0.44270  -0.44012  -0.43572  -0.43428
 Alpha  occ. eigenvalues --   -0.43196  -0.42758  -0.42484  -0.42297  -0.42042
 Alpha  occ. eigenvalues --   -0.42000  -0.41809  -0.41781  -0.41188  -0.40978
 Alpha  occ. eigenvalues --   -0.40679  -0.40423  -0.40408  -0.40129  -0.39844
 Alpha  occ. eigenvalues --   -0.39575  -0.39491  -0.39390  -0.39163  -0.39030
 Alpha  occ. eigenvalues --   -0.38907  -0.38449  -0.38386  -0.38233  -0.38202
 Alpha  occ. eigenvalues --   -0.38066  -0.37898  -0.37623  -0.37460  -0.37131
 Alpha  occ. eigenvalues --   -0.36996  -0.36805  -0.36517  -0.36462  -0.36175
 Alpha  occ. eigenvalues --   -0.35996  -0.35815  -0.35471  -0.35386  -0.35202
 Alpha  occ. eigenvalues --   -0.35095  -0.35008  -0.34871  -0.34852  -0.34643
 Alpha  occ. eigenvalues --   -0.34576  -0.34141  -0.34013  -0.33629  -0.33539
 Alpha  occ. eigenvalues --   -0.33406  -0.33388  -0.33276  -0.32931  -0.32894
 Alpha  occ. eigenvalues --   -0.32642  -0.32402  -0.32226  -0.31953  -0.31830
 Alpha  occ. eigenvalues --   -0.31232  -0.30632  -0.30313  -0.30298  -0.30037
 Alpha  occ. eigenvalues --   -0.29763  -0.29461  -0.28698  -0.28203  -0.27741
 Alpha  occ. eigenvalues --   -0.27394  -0.27008  -0.26775  -0.26094  -0.25445
 Alpha  occ. eigenvalues --   -0.24700  -0.24339  -0.24023  -0.22728  -0.19539
 Alpha  occ. eigenvalues --   -0.18698
 Alpha virt. eigenvalues --   -0.10293  -0.07557  -0.03894  -0.01923  -0.01809
 Alpha virt. eigenvalues --   -0.00669   0.00336   0.01553   0.02204   0.02854
 Alpha virt. eigenvalues --    0.03139   0.03887   0.04081   0.04197   0.04780

 Mulliken charges:
               1
     1  C   -0.096709
     2  C   -0.095425
     3  C   -0.108412
     4  C   -0.094015
     5  N   -0.181158
     6  C   -0.052908
     7  C   -0.041774
     8  C   -0.135424
     9  C    0.069403
    10  C    0.061419
    11  C    0.108267
    12  C   -0.050712
    13  C    0.197361
    14  O   -0.266976
    15  O   -0.318943
    16  N   -0.053583
    17  C    0.088234
    18  C   -0.118403
    19  C    0.098721
    20  C    0.147742
    21  C   -0.095426
    22  C   -0.124251
    23  C    0.031715
    24  N   -0.141813
    25  C    0.017495
    26  C   -0.169693
    27  C   -0.113954
    28  C   -0.006618
    29  C    0.099212
    30  C    0.043822
    31  C   -0.077183
    32  N   -0.094584
    33  C    0.134427
    34  C   -0.132916
    35  C    0.006531
    36  C    0.137952
    37  C   -0.044909
    38  C    0.032954
    39  O   -0.192923
    40  C    0.028960
    41  C    0.158755
    42  O   -0.214928
    43  O   -0.164189
    44  C    0.179902
    45  C    0.189082
    46  C   -0.012585
    47  C   -0.144356
    48  C    0.062777
    49  C    0.015660
    50  C   -0.043783
    51  C    0.015387
    52  C   -0.034493
    53  C    0.069111
    54  C   -0.046603
    55  C    0.158468
    56  C    0.077526
    57  C   -0.006249
    58  C   -0.060839
    59  C    0.020469
    60  C    0.105440
    61  C   -0.103001
    62  C   -0.083249
    63  C    0.087263
    64  C    0.027052
    65  H    0.015761
    66  H   -0.018037
    67  H    0.010052
    68  H    0.020833
    69  H    0.013524
    70  H   -0.005998
    71  H    0.017970
    72  H    0.031646
    73  H   -0.013145
    74  H    0.030249
    75  H    0.070632
    76  H    0.028069
    77  H    0.066042
    78  H    0.059387
    79  H    0.066969
    80  H    0.026784
    81  H    0.021069
    82  H   -0.002041
    83  H    0.042690
    84  H    0.033055
    85  H    0.014184
    86  H    0.019883
    87  H    0.038263
    88  H    0.033928
    89  H    0.035000
    90  H    0.030715
    91  H    0.051385
    92  H    0.059504
    93  H    0.069687
    94  H    0.049070
    95  H    0.038566
    96  H    0.046814
    97  H    0.018795
    98  H    0.038943
    99  H    0.035389
   100  H   -0.036717
   101  H    0.026531
   102  H    0.036054
   103  H    0.015097
   104  H    0.020986
   105  H    0.028443
   106  H    0.026543
   107  H    0.003084
   108  H    0.001368
   109  H    0.007736
   110  H   -0.032284
   111  H   -0.012691
   112  H    0.017050
   113  H   -0.006697
   114  H   -0.016228
   115  H   -0.005233
   116  H    0.000897
   117  H   -0.024554
   118  H   -0.050547
   119  H   -0.048704
   120  H   -0.034760
   121  H    0.000374
   122  H    0.033759
   123  H    0.017417
   124  H   -0.007519
   125  H   -0.034001
   126  H   -0.007657
   127  H   -0.014673
   128  H    0.005838
   129  H   -0.001736
   130  H   -0.017585
   131  H   -0.032146
   132  H    0.014719
   133  H    0.000185
   134  H    0.030996
   135  H    0.005176
   136  H    0.017820
   137  H    0.081343
   138  H    0.148561
 Sum of Mulliken charges =  -0.00000

 Dipole moment (field-independent basis, Debye):
    X=              2.7055    Y=              1.9141    Z=              0.1647  Tot=              3.3183
 Quadrupole moment (field-independent basis, Debye-Ang):
   XX=           -369.3207   YY=           -378.1222   ZZ=           -396.1502
   XY=            -24.1719   XZ=              1.4207   YZ=             -4.5665

 Normal termination of Gaussian 16 at Thu Aug 15 18:06:40 2019.
