 Gaussian 16, Revision A.03,
 Gaussian 16:  ES64L-G16RevA.03 25-Dec-2016

 --------------------------
 # td=(NStates=1) B3LYP/SVP
 --------------------------

 --
 TD
 --
 Symbolic Z-matrix:
 Charge =  0 Multiplicity = 1

                         Standard orientation:
 ---------------------------------------------------------------------
 Center     Atomic      Atomic             Coordinates (Angstroms)
 Number     Number       Type             X           Y           Z
 ---------------------------------------------------------------------
      1          6           0       -4.997275   -1.952207    0.503185
      2          6           0       -4.905084    2.718460    1.489228
      3          6           0       -9.565110    3.146808   -0.139783
      4          6           0       -9.715851   -1.610968   -1.018773
      5          7           0       -5.169187    0.414263    0.828177
      6          6           0       -4.429385   -0.641322    0.877723
      7          6           0       -3.028467   -0.485798    1.246577
      8          6           0       -3.183719    0.893326    1.940110
      9          6           0       -4.495950    1.435207    1.467535
     10          6           0       -3.232512    0.917695    3.541064
     11          6           0       -2.099615   -0.539184    0.123739
     12          6           0       -0.596866   -0.305477    0.464839
     13          6           0        0.379045   -0.519852   -0.636590
     14          8           0        0.046637   -1.070327   -1.656605
     15          8           0        1.650962   -0.244715   -0.297650
     16          7           0       -7.197824    2.663517    0.603740
     17          6           0       -6.178261    3.317688    1.089986
     18          6           0       -6.441171    4.703167    1.112961
     19          6           0       -7.818555    4.853189    0.610398
     20          6           0       -8.285393    3.557515    0.290239
     21          6           0       -5.468402    5.822404    1.527600
     22          6           0       -8.436505    6.182182    0.288423
     23          6           0       -9.352902    6.499046   -0.665107
     24          7           0       -9.240970    0.732133   -0.477215
     25          6           0       -9.962146    1.827163   -0.483695
     26          6           0      -11.261369    1.577528   -1.022391
     27          6           0      -11.398700    0.268383   -1.295000
     28          6           0      -10.009225   -0.252287   -0.866561
     29          6           0      -12.356607    2.682015   -1.218346
     30          6           0      -12.612094   -0.501874   -1.754779
     31          6           0      -12.549440   -0.554509   -3.295242
     32          7           0       -7.457926   -1.380962   -0.176135
     33          6           0       -8.534512   -2.145003   -0.629955
     34          6           0       -8.066573   -3.557553   -0.621005
     35          6           0       -6.626479   -3.465645   -0.329864
     36          6           0       -6.338601   -2.125570   -0.015223
     37          6           0       -8.744033   -4.825425   -1.171244
     38          6           0       -5.518853   -4.288415   -0.061184
     39          8           0       -5.296464   -5.473281   -0.248248
     40          6           0       -4.311697   -3.290820    0.422886
     41          6           0       -3.676729   -3.722925    1.730554
     42          8           0       -3.966568   -3.295546    2.845114
     43          8           0       -2.850776   -4.721318    1.569987
     44          6           0       -2.430102   -5.383723    2.846382
     45          6           0        2.669940   -0.579603   -1.224905
     46          6           0        4.008328   -0.327214   -0.589559
     47          6           0        5.074591    0.406778   -1.130514
     48          6           0        4.872406    1.244193   -2.381665
     49          6           0        6.325133    0.382373   -0.331084
     50          6           0        7.560482   -0.191697   -0.895824
     51          6           0        8.798275   -0.106991   -0.067711
     52          6           0       10.080437   -0.849434   -0.671486
     53          6           0        9.928971   -2.359746   -0.754090
     54          6           0       11.341967   -0.497884    0.062410
     55          6           0       12.675904   -0.694291   -0.702905
     56          6           0       13.849181   -0.180603    0.173721
     57          6           0       15.240900   -0.400667   -0.376302
     58          6           0       15.698527   -1.882011   -0.441081
     59          6           0       16.349264    0.431117    0.398417
     60          6           0       17.725003    0.493317   -0.154352
     61          6           0       18.570522    1.449539    0.502807
     62          6           0       20.001009    1.694008    0.023808
     63          6           0       19.906498    2.623465   -1.339180
     64          6           0       20.929139    2.384660    1.035537
     65          1           0       -4.328984    3.409786    1.876232
     66          1           0      -10.204288    3.926931   -0.390210
     67          1           0      -10.499741   -2.328588   -1.336816
     68          1           0       -2.976381   -1.324879    1.875598
     69          1           0       -2.219885    1.627171    1.839894
     70          1           0       -2.326875    0.463082    3.942120
     71          1           0       -3.395754    1.884591    3.892157
     72          1           0       -4.021356    0.347184    3.817254
     73          1           0       -1.853277   -1.711600   -0.279136
     74          1           0       -2.409781    0.175212   -0.963312
     75          1           0       -0.323470    0.666951    0.934845
     76          1           0       -0.303671   -1.129837    1.385363
     77          1           0       -4.538195    5.883894    1.101427
     78          1           0       -5.899876    6.764244    1.684873
     79          1           0       -5.209999    5.588827    2.706639
     80          1           0       -8.327864    6.982808    1.085445
     81          1           0       -9.580735    5.895625   -1.545149
     82          1           0       -9.622425    7.468703   -0.888271
     83          1           0      -12.386697    3.352202   -0.210242
     84          1           0      -12.135893    3.489785   -1.947098
     85          1           0      -13.254421    2.203622   -1.580504
     86          1           0      -12.799228   -1.440538   -1.240353
     87          1           0      -13.658487   -0.096111   -1.485572
     88          1           0      -12.641762    0.487529   -3.845280
     89          1           0      -11.618084   -1.027843   -3.316651
     90          1           0      -13.338457   -1.257345   -3.615380
     91          1           0       -9.592532   -5.048969   -0.317326
     92          1           0       -9.035825   -4.661416   -2.048967
     93          1           0       -8.150707   -5.754293   -0.935378
     94          1           0       -3.669468   -3.279182   -0.464096
     95          1           0       -1.791851   -6.220975    2.657219
     96          1           0       -1.963220   -4.618230    3.365351
     97          1           0       -3.252060   -5.917385    3.549914
     98          1           0        2.828647   -1.573672   -1.602725
     99          1           0        2.532998   -0.080534   -2.116479
    100          1           0        4.334755   -0.942821    0.361574
    101          1           0        4.985328    2.323624   -2.051367
    102          1           0        5.705775    0.958947   -3.173374
    103          1           0        3.853299    0.912940   -2.939070
    104          1           0        6.434259    1.520491    0.108170
    105          1           0        6.078201   -0.171783    0.600205
    106          1           0        7.214954   -1.440042   -0.806126
    107          1           0        7.993556    0.007792   -1.962615
    108          1           0        8.934239    0.828529    0.016305
    109          1           0        8.703138   -0.522638    0.957320
    110          1           0       10.169416   -0.326853   -1.635470
    111          1           0        9.043527   -2.542869   -1.381939
    112          1           0       10.769202   -2.865502   -1.079886
    113          1           0        9.645124   -2.681022    0.438754
    114          1           0       11.353140    0.538045    0.258640
    115          1           0       11.451053   -1.187347    0.913045
    116          1           0       12.846449   -1.792883   -1.013490
    117          1           0       12.651981   -0.111567   -1.599830
    118          1           0       13.528259    0.818988    0.565210
    119          1           0       13.823219   -0.626903    1.229506
    120          1           0       15.456316   -0.100476   -1.501653
    121          1           0       14.989731   -2.476714   -1.004594
    122          1           0       16.757518   -2.003672   -0.862082
    123          1           0       15.552141   -2.484346    0.589244
    124          1           0       15.989183    1.525275    0.628172
    125          1           0       16.604637    0.031441    1.403923
    126          1           0       18.263285   -0.461900   -0.356417
    127          1           0       17.662170    0.897954   -1.274306
    128          1           0       17.987023    2.409886    0.376844
    129          1           0       18.595803    1.025183    1.535644
    130          1           0       20.509550    0.731563   -0.270864
    131          1           0       19.451699    3.642305   -1.149848
    132          1           0       21.028824    2.596288   -1.745266
    133          1           0       19.438463    2.140693   -2.173553
    134          1           0       21.006865    1.665079    2.007115
    135          1           0       21.913143    2.316621    0.707232
    136          1           0       20.488463    3.292441    1.412871
    137          1           0       -7.143973    1.644921    0.169932
    138          1           0       -7.453110   -0.432731    0.057521
 ---------------------------------------------------------------------

 SCF Done:  E(RB3LYP) =  -2733.07027373     A.U. after   17 cycles

 Excitation energies and oscillator strengths:

 Excited State   1:      Singlet-A      1.9890 eV  623.36 nm  f=0.2132  <S**2>=0.000
     235 -> 237       -0.17584
     235 -> 238        0.25119
     236 -> 237        0.62317
     236 -> 238        0.13317
 This state for optimization and/or second-order correction.
 Total Energy, E(TD-HF/TD-DFT) =  -2732.99718046
 Copying the excited state density for this state as the 1-particle RhoCI density.

 The electronic state is 1-A.
 Alpha  occ. eigenvalues --  -19.18399 -19.18374 -19.12297 -19.12121 -19.11547
 Alpha  occ. eigenvalues --  -14.36933 -14.36752 -14.31892 -14.29899 -10.31522
 Alpha  occ. eigenvalues --  -10.31361 -10.27689 -10.25132 -10.24292 -10.24104
 Alpha  occ. eigenvalues --  -10.23471 -10.23407 -10.23375 -10.23219 -10.22955
 Alpha  occ. eigenvalues --  -10.22889 -10.22328 -10.22035 -10.21697 -10.21589
 Alpha  occ. eigenvalues --  -10.21428 -10.21286 -10.21020 -10.20943 -10.20757
 Alpha  occ. eigenvalues --  -10.20754 -10.20740 -10.20523 -10.20426 -10.20396
 Alpha  occ. eigenvalues --  -10.20346 -10.20235 -10.20181 -10.20052 -10.20009
 Alpha  occ. eigenvalues --  -10.19765 -10.19670 -10.19657 -10.19633 -10.19495
 Alpha  occ. eigenvalues --  -10.19211 -10.19089 -10.18990 -10.18933 -10.18897
 Alpha  occ. eigenvalues --  -10.18826 -10.18788 -10.18622 -10.18567 -10.18479
 Alpha  occ. eigenvalues --  -10.18159 -10.18131 -10.18118 -10.17804 -10.17799
 Alpha  occ. eigenvalues --  -10.17587 -10.17461 -10.17444 -10.17073  -1.10219
 Alpha  occ. eigenvalues --   -1.09916  -1.02186  -1.01314  -0.99141  -0.98381
 Alpha  occ. eigenvalues --   -0.97787  -0.96257  -0.95693  -0.84638  -0.83019
 Alpha  occ. eigenvalues --   -0.82093  -0.81741  -0.81334  -0.81108  -0.80354
 Alpha  occ. eigenvalues --   -0.79641  -0.79493  -0.79378  -0.79247  -0.78002
 Alpha  occ. eigenvalues --   -0.76992  -0.76275  -0.75711  -0.75147  -0.74579
 Alpha  occ. eigenvalues --   -0.73925  -0.73760  -0.72756  -0.72047  -0.71232
 Alpha  occ. eigenvalues --   -0.70746  -0.69061  -0.68771  -0.68596  -0.67277
 Alpha  occ. eigenvalues --   -0.66968  -0.66732  -0.66343  -0.65915  -0.65196
 Alpha  occ. eigenvalues --   -0.64198  -0.63120  -0.62735  -0.61631  -0.61234
 Alpha  occ. eigenvalues --   -0.60868  -0.58957  -0.58506  -0.57870  -0.57705
 Alpha  occ. eigenvalues --   -0.56961  -0.56706  -0.56272  -0.55979  -0.55832
 Alpha  occ. eigenvalues --   -0.55213  -0.55028  -0.54239  -0.53510  -0.53100
 Alpha  occ. eigenvalues --   -0.52327  -0.51906  -0.51754  -0.51106  -0.50328
 Alpha  occ. eigenvalues --   -0.49948  -0.49851  -0.49085  -0.48620  -0.48476
 Alpha  occ. eigenvalues --   -0.48303  -0.47866  -0.47841  -0.47555  -0.47355
 Alpha  occ. eigenvalues --   -0.47157  -0.46945  -0.46828  -0.46548  -0.46126
 Alpha  occ. eigenvalues --   -0.45785  -0.45319  -0.45070  -0.44721  -0.44598
 Alpha  occ. eigenvalues --   -0.44491  -0.44109  -0.43918  -0.43782  -0.43663
 Alpha  occ. eigenvalues --   -0.43526  -0.43366  -0.43031  -0.42894  -0.42799
 Alpha  occ. eigenvalues --   -0.42475  -0.42327  -0.42178  -0.41931  -0.41853
 Alpha  occ. eigenvalues --   -0.41462  -0.41225  -0.40996  -0.40429  -0.40183
 Alpha  occ. eigenvalues --   -0.40105  -0.39957  -0.39831  -0.39759  -0.39519
 Alpha  occ. eigenvalues --   -0.39440  -0.39311  -0.39088  -0.39003  -0.38793
 Alpha  occ. eigenvalues --   -0.38454  -0.38171  -0.37807  -0.37657  -0.37538
 Alpha  occ. eigenvalues --   -0.37463  -0.37291  -0.37042  -0.36819  -0.36742
 Alpha  occ. eigenvalues --   -0.36586  -0.36333  -0.36170  -0.35919  -0.35659
 Alpha  occ. eigenvalues --   -0.35571  -0.35441  -0.35187  -0.34947  -0.34836
 Alpha  occ. eigenvalues --   -0.34509  -0.34238  -0.33762  -0.33718  -0.33567
 Alpha  occ. eigenvalues --   -0.33450  -0.33303  -0.32877  -0.32750  -0.32265
 Alpha  occ. eigenvalues --   -0.31927  -0.31752  -0.31700  -0.31539  -0.31016
 Alpha  occ. eigenvalues --   -0.30850  -0.30433  -0.30291  -0.30103  -0.30066
 Alpha  occ. eigenvalues --   -0.29650  -0.29315  -0.28762  -0.28144  -0.27980
 Alpha  occ. eigenvalues --   -0.27559  -0.27403  -0.26553  -0.26133  -0.25796
 Alpha  occ. eigenvalues --   -0.24634  -0.23955  -0.23590  -0.23206  -0.19939
 Alpha  occ. eigenvalues --   -0.18828
 Alpha virt. eigenvalues --   -0.10835  -0.07526  -0.04232  -0.02063  -0.01045
 Alpha virt. eigenvalues --   -0.00452  -0.00350   0.00575   0.02517   0.03548
 Alpha virt. eigenvalues --    0.04201   0.04294   0.04596   0.04670   0.04801

 Mulliken charges:
               1
     1  C   -0.028687
     2  C   -0.006459
     3  C   -0.043998
     4  C   -0.117667
     5  N   -0.139844
     6  C   -0.126194
     7  C    0.176246
     8  C   -0.157363
     9  C    0.096217
    10  C    0.146316
    11  C   -0.052261
    12  C   -0.041666
    13  C    0.187843
    14  O   -0.233147
    15  O   -0.293798
    16  N   -0.094821
    17  C    0.042170
    18  C   -0.154428
    19  C    0.028992
    20  C    0.058427
    21  C    0.136433
    22  C   -0.043777
    23  C   -0.026307
    24  N   -0.131690
    25  C    0.070259
    26  C   -0.129859
    27  C   -0.101266
    28  C    0.031871
    29  C    0.077241
    30  C    0.001084
    31  C    0.032883
    32  N   -0.014852
    33  C    0.125744
    34  C   -0.140674
    35  C    0.000771
    36  C    0.039660
    37  C    0.142992
    38  C    0.029073
    39  O   -0.176167
    40  C   -0.028443
    41  C    0.209153
    42  O   -0.264784
    43  O   -0.275312
    44  C    0.190212
    45  C    0.355770
    46  C   -0.146188
    47  C   -0.163615
    48  C    0.017102
    49  C    0.073967
    50  C   -0.044188
    51  C    0.118300
    52  C   -0.075967
    53  C    0.049495
    54  C    0.055738
    55  C    0.024615
    56  C    0.021253
    57  C   -0.026713
    58  C   -0.015630
    59  C    0.021819
    60  C   -0.007121
    61  C    0.040196
    62  C   -0.108796
    63  C   -0.029223
    64  C    0.075474
    65  H   -0.117265
    66  H   -0.062912
    67  H   -0.007884
    68  H   -0.031178
    69  H    0.021541
    70  H    0.009811
    71  H   -0.003556
    72  H   -0.012877
    73  H    0.056007
    74  H    0.056501
    75  H    0.026393
    76  H    0.058158
    77  H    0.014965
    78  H   -0.005542
    79  H    0.018887
    80  H    0.028788
    81  H    0.023552
    82  H    0.003774
    83  H    0.035071
    84  H    0.014277
    85  H    0.010311
    86  H    0.002717
    87  H    0.001326
    88  H    0.046289
    89  H   -0.003925
    90  H    0.004588
    91  H    0.034166
    92  H   -0.006791
    93  H    0.049062
    94  H    0.060496
    95  H    0.027902
    96  H    0.022499
    97  H    0.057736
    98  H    0.020090
    99  H   -0.036671
   100  H    0.015626
   101  H    0.045419
   102  H    0.035632
   103  H    0.038918
   104  H    0.007467
   105  H   -0.003021
   106  H    0.008944
   107  H    0.021075
   108  H   -0.077794
   109  H   -0.015572
   110  H   -0.029370
   111  H    0.014942
   112  H    0.001583
   113  H    0.017227
   114  H   -0.025387
   115  H   -0.010490
   116  H    0.007122
   117  H   -0.016101
   118  H   -0.014985
   119  H   -0.011919
   120  H    0.005819
   121  H   -0.002581
   122  H    0.034948
   123  H    0.005317
   124  H    0.001740
   125  H   -0.014600
   126  H   -0.006792
   127  H   -0.028668
   128  H   -0.004578
   129  H   -0.015422
   130  H   -0.008711
   131  H    0.031099
   132  H    0.010988
   133  H    0.010782
   134  H   -0.001172
   135  H   -0.002864
   136  H    0.013132
   137  H    0.204059
   138  H    0.105470
 Sum of Mulliken charges =  -0.00000

 Dipole moment (field-independent basis, Debye):
    X=              2.1595    Y=              3.0586    Z=              0.4889  Tot=              3.7759
 Quadrupole moment (field-independent basis, Debye-Ang):
   XX=           -358.8173   YY=           -379.5131   ZZ=           -395.4809
   XY=            -14.6061   XZ=              7.8516   YZ=             -4.7970

 Normal termination of Gaussian 16 at Thu Aug 22 00:54:14 2019.
