 Gaussian 16, Revision A.03,
 Gaussian 16:  ES64L-G16RevA.03 25-Dec-2016

 --------------------------
 # td=(NStates=1) B3LYP/SVP
 --------------------------

 --
 TD
 --
 Symbolic Z-matrix:
 Charge =  0 Multiplicity = 1

                         Standard orientation:
 ---------------------------------------------------------------------
 Center     Atomic      Atomic             Coordinates (Angstroms)
 Number     Number       Type             X           Y           Z
 ---------------------------------------------------------------------
      1          6           0       -5.221957   -2.000846    0.444851
      2          6           0       -4.659178    2.766463    1.469714
      3          6           0       -9.253777    3.528106   -0.219572
      4          6           0       -9.846948   -1.229458   -0.953774
      5          7           0       -5.262762    0.492669    0.683631
      6          6           0       -4.600282   -0.769346    0.826044
      7          6           0       -3.098717   -0.642840    1.333269
      8          6           0       -3.154303    0.815546    1.911924
      9          6           0       -4.473216    1.395523    1.326327
     10          6           0       -3.204304    0.696582    3.430453
     11          6           0       -1.946682   -0.740602    0.220536
     12          6           0       -0.592165   -0.998188    0.739808
     13          6           0        0.376224   -1.197850   -0.344257
     14          8           0        0.200368   -1.902775   -1.427334
     15          8           0        1.672303   -0.885617   -0.051845
     16          7           0       -6.948983    2.869771    0.526483
     17          6           0       -5.808073    3.416051    1.031071
     18          6           0       -6.076594    4.811652    1.121396
     19          6           0       -7.370431    5.061538    0.690838
     20          6           0       -7.948980    3.818640    0.248345
     21          6           0       -5.073978    5.820114    1.692015
     22          6           0       -7.941773    6.354734    0.717828
     23          6           0       -8.735921    6.795177   -0.404123
     24          7           0       -9.095622    1.007760   -0.563533
     25          6           0       -9.719117    2.252374   -0.758531
     26          6           0      -11.138656    2.140600   -1.200795
     27          6           0      -11.329679    0.792441   -1.356645
     28          6           0      -10.049248    0.114595   -1.012602
     29          6           0      -12.013019    3.214677   -1.473110
     30          6           0      -12.580429   -0.035112   -1.855144
     31          6           0      -12.484797   -0.257845   -3.412813
     32          7           0       -7.493998   -1.183227   -0.270307
     33          6           0       -8.607460   -1.866382   -0.672329
     34          6           0       -8.243438   -3.262840   -0.726792
     35          6           0       -6.910517   -3.392557   -0.418016
     36          6           0       -6.463312   -2.052707   -0.025586
     37          6           0       -9.312168   -4.283269   -1.081644
     38          6           0       -5.816329   -4.283207   -0.073070
     39          8           0       -5.783344   -5.519630   -0.217082
     40          6           0       -4.584660   -3.409026    0.387930
     41          6           0       -4.085189   -3.923675    1.741328
     42          8           0       -4.327165   -3.362767    2.823105
     43          8           0       -3.370719   -5.074952    1.650743
     44          6           0       -3.217789   -5.939655    2.864991
     45          6           0        2.683486   -1.304253   -1.033726
     46          6           0        3.957552   -0.964927   -0.367506
     47          6           0        4.884245   -0.193364   -0.992094
     48          6           0        4.798999    0.295246   -2.537063
     49          6           0        6.286558    0.145907   -0.400527
     50          6           0        7.534284   -0.599853   -0.927890
     51          6           0        8.662922   -0.275595   -0.123528
     52          6           0        9.988776   -0.834169   -0.751610
     53          6           0        9.873323   -2.392391   -0.944452
     54          6           0       11.195052   -0.293429    0.045538
     55          6           0       12.656459   -0.679595   -0.521081
     56          6           0       13.803250   -0.028241    0.198178
     57          6           0       15.306251   -0.078115   -0.435067
     58          6           0       15.866803   -1.463689   -0.831232
     59          6           0       16.268418    0.728722    0.373702
     60          6           0       17.714898    0.877312   -0.247207
     61          6           0       18.625327    1.766180    0.570788
     62          6           0       20.107602    1.732050    0.049446
     63          6           0       20.382925    2.486931   -1.284941
     64          6           0       20.988230    2.336169    1.078135
     65          1           0       -3.657609    3.277021    1.695291
     66          1           0       -9.938551    4.415673   -0.322804
     67          1           0      -10.484144   -2.025762   -1.558938
     68          1           0       -2.804002   -1.438604    2.163049
     69          1           0       -2.127530    1.217877    1.806670
     70          1           0       -2.177830    0.468661    3.821137
     71          1           0       -3.580365    1.595730    3.954446
     72          1           0       -3.904248   -0.042638    3.759324
     73          1           0       -2.066163   -1.741275   -0.463437
     74          1           0       -2.200074    0.080232   -0.419463
     75          1           0        0.001971   -0.058374    1.177677
     76          1           0       -0.556692   -1.835548    1.251834
     77          1           0       -4.046402    5.944135    1.200501
     78          1           0       -5.422906    6.843853    1.741840
     79          1           0       -4.796435    5.763997    2.725701
     80          1           0       -7.549515    7.150187    1.540505
     81          1           0       -8.852167    6.125129   -1.290419
     82          1           0       -9.028755    7.793542   -0.280104
     83          1           0      -11.974322    3.914617   -0.509844
     84          1           0      -11.565640    3.895356   -2.143581
     85          1           0      -12.910828    2.817734   -1.814922
     86          1           0      -12.628501   -0.768642   -1.081508
     87          1           0      -13.691426    0.445380   -1.473997
     88          1           0      -12.225423    0.706414   -3.896637
     89          1           0      -11.889772   -1.209968   -3.538871
     90          1           0      -13.411225   -0.829670   -3.639579
     91          1           0      -10.002224   -4.150426   -0.276800
     92          1           0       -9.696911   -4.247848   -2.001743
     93          1           0       -8.799646   -5.267539   -0.971491
     94          1           0       -3.795306   -3.751895   -0.322551
     95          1           0       -2.659347   -6.893353    2.546132
     96          1           0       -2.579216   -5.522275    3.704454
     97          1           0       -4.193766   -6.244442    3.277541
     98          1           0        2.460156   -2.464741   -1.266945
     99          1           0        2.410008   -0.838470   -2.032389
    100          1           0        4.138136   -1.228992    0.910296
    101          1           0        5.080810    1.310898   -2.496302
    102          1           0        5.270948   -0.271927   -3.377267
    103          1           0        3.772542    0.331628   -2.766148
    104          1           0        6.461795    1.217949   -0.263666
    105          1           0        6.061296   -0.301015    0.576297
    106          1           0        7.102694   -1.548131   -0.932711
    107          1           0        7.701664   -0.362504   -2.026487
    108          1           0        8.821440    0.769946    0.062729
    109          1           0        8.664094   -0.765391    0.976834
    110          1           0       10.210050   -0.396316   -1.760803
    111          1           0        9.105406   -2.719243   -1.539978
    112          1           0       10.890084   -2.920670   -1.177272
    113          1           0        9.532548   -2.809109    0.104256
    114          1           0       11.268806    0.701621   -0.028931
    115          1           0       11.096043   -0.526799    1.247153
    116          1           0       12.658910   -1.648581   -0.660472
    117          1           0       12.665309   -0.355938   -1.594526
    118          1           0       13.533066    1.072958    0.425081
    119          1           0       14.005935   -0.546432    1.310266
    120          1           0       15.170925    0.617058   -1.241105
    121          1           0       15.066410   -2.029876   -1.462295
    122          1           0       16.828339   -1.641584   -1.203767
    123          1           0       15.917757   -1.917772    0.132314
    124          1           0       16.078984    1.781294    0.383360
    125          1           0       16.459987    0.557395    1.373389
    126          1           0       18.138660   -0.256240   -0.491593
    127          1           0       17.635844    1.449619   -1.281026
    128          1           0       17.841241    2.769646    0.522630
    129          1           0       18.601420    1.376123    1.761188
    130          1           0       20.377596    0.752996   -0.183840
    131          1           0       20.000102    3.579803   -1.125762
    132          1           0       21.249258    2.319304   -1.670599
    133          1           0       19.641623    2.149255   -1.951560
    134          1           0       20.773574    1.933042    2.145719
    135          1           0       22.066833    2.249385    0.946421
    136          1           0       20.861069    3.513456    1.200574
    137          1           0       -6.964019    1.865299    0.558533
    138          1           0       -7.355335   -0.160939   -0.082001
 ---------------------------------------------------------------------

 SCF Done:  E(RB3LYP) =  -2733.04271534     A.U. after   17 cycles

 Excitation energies and oscillator strengths:

 Excited State   1:      Singlet-A      1.9857 eV  624.39 nm  f=0.2130  <S**2>=0.000
     235 -> 238        0.28367
     236 -> 237        0.64522
 This state for optimization and/or second-order correction.
 Total Energy, E(TD-HF/TD-DFT) =  -2732.96974258
 Copying the excited state density for this state as the 1-particle RhoCI density.

 The electronic state is 1-A.
 Alpha  occ. eigenvalues --  -19.18144 -19.18076 -19.12083 -19.11823 -19.11610
 Alpha  occ. eigenvalues --  -14.36951 -14.36740 -14.34008 -14.30497 -10.32081
 Alpha  occ. eigenvalues --  -10.31792 -10.28029 -10.26085 -10.25988 -10.24525
 Alpha  occ. eigenvalues --  -10.24479 -10.23478 -10.23448 -10.23318 -10.22817
 Alpha  occ. eigenvalues --  -10.22568 -10.22148 -10.22144 -10.21518 -10.21301
 Alpha  occ. eigenvalues --  -10.21279 -10.21277 -10.21275 -10.21217 -10.21155
 Alpha  occ. eigenvalues --  -10.21063 -10.20825 -10.20658 -10.20605 -10.20487
 Alpha  occ. eigenvalues --  -10.20482 -10.20363 -10.20185 -10.20093 -10.20090
 Alpha  occ. eigenvalues --  -10.19954 -10.19737 -10.19718 -10.19653 -10.19650
 Alpha  occ. eigenvalues --  -10.19186 -10.19163 -10.18938 -10.18881 -10.18746
 Alpha  occ. eigenvalues --  -10.18734 -10.18721 -10.18653 -10.18567 -10.18541
 Alpha  occ. eigenvalues --  -10.18434 -10.18297 -10.18196 -10.18172 -10.17965
 Alpha  occ. eigenvalues --  -10.17813 -10.17575 -10.16905 -10.16750  -1.07856
 Alpha  occ. eigenvalues --   -1.07519  -1.00788  -0.98665  -0.98237  -0.98091
 Alpha  occ. eigenvalues --   -0.96002  -0.92949  -0.92037  -0.85250  -0.82716
 Alpha  occ. eigenvalues --   -0.82314  -0.82080  -0.81516  -0.80953  -0.80368
 Alpha  occ. eigenvalues --   -0.80081  -0.79801  -0.79700  -0.78457  -0.78041
 Alpha  occ. eigenvalues --   -0.77253  -0.75867  -0.75454  -0.74706  -0.74190
 Alpha  occ. eigenvalues --   -0.73367  -0.73035  -0.72691  -0.71810  -0.70735
 Alpha  occ. eigenvalues --   -0.70136  -0.69546  -0.68869  -0.68228  -0.67948
 Alpha  occ. eigenvalues --   -0.67835  -0.67413  -0.66661  -0.66108  -0.64900
 Alpha  occ. eigenvalues --   -0.64181  -0.62856  -0.62421  -0.61881  -0.61572
 Alpha  occ. eigenvalues --   -0.61251  -0.58912  -0.58492  -0.57353  -0.57191
 Alpha  occ. eigenvalues --   -0.56744  -0.55800  -0.55772  -0.55693  -0.55506
 Alpha  occ. eigenvalues --   -0.55234  -0.55027  -0.54255  -0.53434  -0.52818
 Alpha  occ. eigenvalues --   -0.52444  -0.51753  -0.51229  -0.50348  -0.49898
 Alpha  occ. eigenvalues --   -0.49706  -0.49189  -0.48781  -0.48447  -0.48105
 Alpha  occ. eigenvalues --   -0.47642  -0.47605  -0.47309  -0.46952  -0.46929
 Alpha  occ. eigenvalues --   -0.46739  -0.46378  -0.46166  -0.45827  -0.45664
 Alpha  occ. eigenvalues --   -0.45409  -0.45248  -0.44922  -0.44633  -0.44496
 Alpha  occ. eigenvalues --   -0.44365  -0.44063  -0.43899  -0.43719  -0.43531
 Alpha  occ. eigenvalues --   -0.43319  -0.43172  -0.42943  -0.42501  -0.42461
 Alpha  occ. eigenvalues --   -0.42084  -0.41911  -0.41831  -0.41731  -0.41539
 Alpha  occ. eigenvalues --   -0.41026  -0.40870  -0.40717  -0.40565  -0.40374
 Alpha  occ. eigenvalues --   -0.40223  -0.40152  -0.40034  -0.39761  -0.39532
 Alpha  occ. eigenvalues --   -0.39236  -0.39158  -0.38844  -0.38548  -0.38024
 Alpha  occ. eigenvalues --   -0.37962  -0.37878  -0.37757  -0.37391  -0.37268
 Alpha  occ. eigenvalues --   -0.37055  -0.37043  -0.36842  -0.36660  -0.36595
 Alpha  occ. eigenvalues --   -0.36469  -0.36311  -0.36208  -0.36166  -0.35890
 Alpha  occ. eigenvalues --   -0.35796  -0.35441  -0.35083  -0.34819  -0.34750
 Alpha  occ. eigenvalues --   -0.34539  -0.34392  -0.33805  -0.33707  -0.33434
 Alpha  occ. eigenvalues --   -0.33339  -0.32915  -0.32572  -0.32297  -0.32060
 Alpha  occ. eigenvalues --   -0.31870  -0.31738  -0.31365  -0.31103  -0.30907
 Alpha  occ. eigenvalues --   -0.30709  -0.30472  -0.30431  -0.30227  -0.30066
 Alpha  occ. eigenvalues --   -0.29745  -0.29617  -0.28602  -0.28293  -0.28134
 Alpha  occ. eigenvalues --   -0.27244  -0.27027  -0.26900  -0.26671  -0.26535
 Alpha  occ. eigenvalues --   -0.25177  -0.24751  -0.23285  -0.22616  -0.20277
 Alpha  occ. eigenvalues --   -0.18764
 Alpha virt. eigenvalues --   -0.10482  -0.07961  -0.05149  -0.03199  -0.02137
 Alpha virt. eigenvalues --   -0.01082  -0.00584   0.00257   0.01100   0.03686
 Alpha virt. eigenvalues --    0.03797   0.03800   0.04265   0.04808   0.05016

 Mulliken charges:
               1
     1  C    0.013215
     2  C   -0.102929
     3  C   -0.097082
     4  C   -0.112005
     5  N   -0.239829
     6  C   -0.020624
     7  C   -0.079923
     8  C   -0.057870
     9  C    0.050428
    10  C    0.050717
    11  C   -0.017995
    12  C    0.162966
    13  C    0.174796
    14  O   -0.329613
    15  O   -0.320203
    16  N   -0.065255
    17  C    0.110079
    18  C   -0.100143
    19  C    0.057656
    20  C    0.117996
    21  C    0.090975
    22  C   -0.142385
    23  C   -0.025050
    24  N   -0.271170
    25  C    0.084309
    26  C   -0.159574
    27  C   -0.103093
    28  C    0.106363
    29  C    0.158362
    30  C   -0.025809
    31  C    0.059889
    32  N   -0.037838
    33  C    0.034397
    34  C   -0.196424
    35  C    0.045180
    36  C    0.056866
    37  C    0.174657
    38  C    0.041921
    39  O   -0.202416
    40  C   -0.007165
    41  C    0.205907
    42  O   -0.253291
    43  O   -0.320912
    44  C    0.158333
    45  C    0.180826
    46  C   -0.052911
    47  C   -0.198961
    48  C    0.101534
    49  C    0.046680
    50  C    0.090512
    51  C    0.033211
    52  C   -0.092148
    53  C    0.019375
    54  C    0.025029
    55  C    0.116842
    56  C   -0.043388
    57  C    0.015058
    58  C    0.060112
    59  C    0.076969
    60  C   -0.100604
    61  C   -0.077755
    62  C   -0.028949
    63  C    0.111622
    64  C    0.013976
    65  H    0.021969
    66  H   -0.006901
    67  H    0.024453
    68  H    0.040079
    69  H   -0.002962
    70  H    0.014087
    71  H   -0.001024
    72  H    0.017850
    73  H    0.047098
    74  H    0.004430
    75  H    0.045531
    76  H   -0.002975
    77  H    0.025745
    78  H   -0.016903
    79  H    0.005828
    80  H    0.051795
    81  H    0.058728
    82  H    0.016807
    83  H    0.031606
    84  H   -0.001115
    85  H    0.002205
    86  H    0.006816
    87  H    0.004925
    88  H    0.056213
    89  H    0.012482
    90  H    0.008041
    91  H    0.022749
    92  H    0.006609
    93  H    0.028589
    94  H    0.069088
    95  H    0.049307
    96  H    0.046083
    97  H    0.049035
    98  H    0.055221
    99  H    0.044658
   100  H    0.055769
   101  H   -0.000477
   102  H    0.047369
   103  H   -0.024798
   104  H    0.004112
   105  H   -0.023821
   106  H   -0.014641
   107  H    0.002129
   108  H   -0.016458
   109  H    0.011585
   110  H   -0.007657
   111  H   -0.000744
   112  H    0.030281
   113  H    0.001196
   114  H   -0.038804
   115  H    0.005346
   116  H   -0.055020
   117  H   -0.021884
   118  H    0.008933
   119  H    0.004967
   120  H   -0.027552
   121  H    0.020291
   122  H    0.010076
   123  H   -0.011526
   124  H   -0.040087
   125  H   -0.039543
   126  H    0.012436
   127  H    0.013902
   128  H    0.025187
   129  H    0.020780
   130  H   -0.019629
   131  H    0.010251
   132  H   -0.027485
   133  H   -0.028151
   134  H    0.005937
   135  H   -0.002396
   136  H    0.008714
   137  H    0.133779
   138  H    0.168038
 Sum of Mulliken charges =  -0.00000

 Dipole moment (field-independent basis, Debye):
    X=              1.4119    Y=              3.7546    Z=              0.3274  Tot=              4.0246
 Quadrupole moment (field-independent basis, Debye-Ang):
   XX=           -358.9843   YY=           -379.8147   ZZ=           -392.8451
   XY=            -21.9120   XZ=              0.7036   YZ=             -5.9233

 Normal termination of Gaussian 16 at Mon Aug 19 09:23:35 2019.
