 Gaussian 16, Revision A.03,
 Gaussian 16:  ES64L-G16RevA.03 25-Dec-2016

 --------------------------
 # td=(NStates=1) B3LYP/SVP
 --------------------------

 --
 TD
 --
 Symbolic Z-matrix:
 Charge =  0 Multiplicity = 1

                         Standard orientation:
 ---------------------------------------------------------------------
 Center     Atomic      Atomic             Coordinates (Angstroms)
 Number     Number       Type             X           Y           Z
 ---------------------------------------------------------------------
      1          6           0       -5.096830   -1.912870    0.470591
      2          6           0       -4.645730    2.808568    1.315289
      3          6           0       -9.213387    3.245800   -0.116030
      4          6           0       -9.769821   -1.361692   -0.934422
      5          7           0       -5.155634    0.406730    0.827704
      6          6           0       -4.513158   -0.728929    0.735198
      7          6           0       -2.979770   -0.457790    1.188606
      8          6           0       -3.025607    0.897272    1.762481
      9          6           0       -4.397060    1.453550    1.298520
     10          6           0       -2.968569    0.856509    3.218548
     11          6           0       -1.977580   -0.756274   -0.030153
     12          6           0       -0.555520   -0.787682    0.545702
     13          6           0        0.375080   -1.051910   -0.538929
     14          8           0        0.079056   -1.529061   -1.600731
     15          8           0        1.695551   -0.735772   -0.202586
     16          7           0       -6.972549    2.770709    0.549829
     17          6           0       -5.897273    3.383061    0.999986
     18          6           0       -6.055248    4.803052    0.947533
     19          6           0       -7.471309    5.013317    0.563843
     20          6           0       -8.001954    3.673980    0.263361
     21          6           0       -5.102276    5.821453    1.272917
     22          6           0       -8.017790    6.311603    0.262289
     23          6           0       -8.994984    6.653931   -0.613784
     24          7           0       -9.152514    0.909785   -0.436133
     25          6           0       -9.888325    2.006393   -0.409866
     26          6           0      -11.277464    1.919074   -0.899742
     27          6           0      -11.433190    0.583300   -0.989447
     28          6           0      -10.116878   -0.061580   -0.882369
     29          6           0      -12.160597    3.010514   -0.934301
     30          6           0      -12.717607   -0.144549   -1.412906
     31          6           0      -12.797713   -0.354976   -2.970232
     32          7           0       -7.553783   -1.243919   -0.136612
     33          6           0       -8.485223   -1.956414   -0.583448
     34          6           0       -8.195923   -3.344188   -0.619215
     35          6           0       -6.883679   -3.362964   -0.280717
     36          6           0       -6.391003   -2.112336    0.043735
     37          6           0       -9.103557   -4.617247   -0.946793
     38          6           0       -5.693418   -4.303614   -0.075660
     39          8           0       -5.640209   -5.530066   -0.209754
     40          6           0       -4.504058   -3.286507    0.408947
     41          6           0       -3.891453   -3.789218    1.759141
     42          8           0       -4.223459   -3.335121    2.815637
     43          8           0       -3.118630   -4.924886    1.525547
     44          6           0       -2.475294   -5.521117    2.701734
     45          6           0        2.609601   -1.304717   -1.075187
     46          6           0        3.936896   -0.523503   -0.646697
     47          6           0        4.930438   -0.007084   -1.406769
     48          6           0        4.979655    0.326573   -2.858435
     49          6           0        6.207088    0.400159   -0.735969
     50          6           0        7.496463   -0.537691   -0.994173
     51          6           0        8.716763   -0.020937   -0.282206
     52          6           0        9.976380   -0.783765   -0.773977
     53          6           0        9.906893   -2.414548   -0.724216
     54          6           0       11.199844   -0.272642   -0.029145
     55          6           0       12.526744   -0.654947   -0.551851
     56          6           0       13.721513    0.167059    0.172985
     57          6           0       15.236671   -0.218675   -0.287518
     58          6           0       15.560990   -1.696613   -0.264955
     59          6           0       16.282033    0.611749    0.398745
     60          6           0       17.637031    0.707780   -0.125698
     61          6           0       18.564517    1.663283    0.664172
     62          6           0       20.041169    1.675907    0.252073
     63          6           0       20.259255    2.160991   -1.214318
     64          6           0       20.846512    2.507228    1.219969
     65          1           0       -3.855520    3.458120    1.537219
     66          1           0      -10.053510    3.968715   -0.186615
     67          1           0      -10.450898   -2.092769   -1.186140
     68          1           0       -3.033552   -1.385504    1.928538
     69          1           0       -2.210373    1.566020    1.383361
     70          1           0       -1.997902    0.554868    3.682599
     71          1           0       -3.182962    1.838406    3.781105
     72          1           0       -3.870330    0.255922    3.726533
     73          1           0       -2.227505   -1.774176   -0.487440
     74          1           0       -2.421459   -0.037189   -0.742616
     75          1           0       -0.240212    0.152207    1.161292
     76          1           0       -0.663345   -1.621793    1.449306
     77          1           0       -4.088755    5.740206    0.665116
     78          1           0       -5.405723    6.822535    1.295397
     79          1           0       -5.010303    5.520560    2.277517
     80          1           0       -7.546212    7.111215    0.914755
     81          1           0       -9.479511    5.622253   -1.224877
     82          1           0       -9.564913    7.640571   -0.809329
     83          1           0      -12.173092    3.528742    0.065967
     84          1           0      -12.075915    3.852060   -1.668464
     85          1           0      -13.181408    2.515699   -0.995523
     86          1           0      -12.862526   -1.214377   -1.199794
     87          1           0      -13.464169    0.336785   -1.042947
     88          1           0      -12.838552    0.614882   -3.616533
     89          1           0      -12.019965   -1.062986   -3.411212
     90          1           0      -13.769288   -0.846594   -3.179003
     91          1           0      -10.020666   -4.439813   -0.344131
     92          1           0       -9.122334   -4.534648   -2.191961
     93          1           0       -8.630804   -5.610648   -0.580437
     94          1           0       -3.806970   -3.495420   -0.360142
     95          1           0       -2.127183   -6.610005    2.135785
     96          1           0       -1.835599   -4.845095    3.272464
     97          1           0       -3.314475   -6.029970    3.220628
     98          1           0        2.845786   -2.398291   -1.013988
     99          1           0        2.400458   -0.955759   -2.326206
    100          1           0        4.125458   -0.620242    0.523621
    101          1           0        4.992466    1.531309   -2.885685
    102          1           0        5.770286   -0.298055   -3.374893
    103          1           0        4.027071    0.275286   -3.415612
    104          1           0        6.681854    1.631869   -0.808569
    105          1           0        5.802662    0.467875    0.467193
    106          1           0        7.210697   -1.624191   -0.709745
    107          1           0        7.685758   -0.326180   -2.079044
    108          1           0        8.798231    1.202808   -0.476558
    109          1           0        8.429304   -0.124836    0.890559
    110          1           0       10.083236   -0.579509   -1.811523
    111          1           0        8.979279   -2.783660   -1.363019
    112          1           0       10.836062   -2.805367   -1.063568
    113          1           0        9.679109   -2.743132    0.241480
    114          1           0       11.128463    0.816409    0.267795
    115          1           0       11.028436   -0.486054    1.118006
    116          1           0       12.660149   -1.707922   -0.357354
    117          1           0       12.538344   -0.266366   -1.618134
    118          1           0       13.519922    1.185943    0.243240
    119          1           0       13.612591   -0.166145    1.266322
    120          1           0       15.338786    0.020713   -1.421132
    121          1           0       14.993831   -2.439826   -0.825664
    122          1           0       16.674751   -1.816624   -0.790190
    123          1           0       15.884943   -1.867415    0.919050
    124          1           0       15.768762    1.549634    0.475627
    125          1           0       16.239905    0.245414    1.488234
    126          1           0       18.116353   -0.348503   -0.198915
    127          1           0       17.498018    0.805120   -1.260542
    128          1           0       18.275921    2.643604    0.416794
    129          1           0       18.418862    1.650255    1.810781
    130          1           0       20.539744    0.611643    0.267527
    131          1           0       19.738468    3.158144   -1.263138
    132          1           0       21.360798    2.249841   -1.478134
    133          1           0       20.075949    1.506515   -1.982761
    134          1           0       20.644760    2.281793    2.332374
    135          1           0       22.008169    2.431626    1.120154
    136          1           0       20.435942    3.670507    1.030081
    137          1           0       -7.193043    1.812573    0.547495
    138          1           0       -7.481453   -0.244201    0.025807
 ---------------------------------------------------------------------

 SCF Done:  E(RB3LYP) =  -2733.02279688     A.U. after   17 cycles

 Excitation energies and oscillator strengths:

 Excited State   1:      Singlet-A      2.0240 eV  612.56 nm  f=0.2854  <S**2>=0.000
     235 -> 237       -0.11235
     235 -> 238        0.22677
     236 -> 237        0.65858
 This state for optimization and/or second-order correction.
 Total Energy, E(TD-HF/TD-DFT) =  -2732.94841458
 Copying the excited state density for this state as the 1-particle RhoCI density.

 The electronic state is 1-A.
 Alpha  occ. eigenvalues --  -19.17981 -19.17554 -19.13384 -19.13344 -19.12887
 Alpha  occ. eigenvalues --  -14.36773 -14.36300 -14.31564 -14.30192 -10.31997
 Alpha  occ. eigenvalues --  -10.31800 -10.28716 -10.26448 -10.26266 -10.23872
 Alpha  occ. eigenvalues --  -10.23741 -10.22849 -10.22788 -10.22528 -10.22327
 Alpha  occ. eigenvalues --  -10.22134 -10.22050 -10.21619 -10.21394 -10.21371
 Alpha  occ. eigenvalues --  -10.21275 -10.21219 -10.21209 -10.21108 -10.21100
 Alpha  occ. eigenvalues --  -10.20414 -10.20365 -10.20276 -10.20090 -10.20017
 Alpha  occ. eigenvalues --  -10.20011 -10.19915 -10.19837 -10.19760 -10.19728
 Alpha  occ. eigenvalues --  -10.19692 -10.19686 -10.19657 -10.19630 -10.19558
 Alpha  occ. eigenvalues --  -10.19557 -10.19475 -10.19468 -10.19355 -10.19289
 Alpha  occ. eigenvalues --  -10.19266 -10.19197 -10.18980 -10.18924 -10.18907
 Alpha  occ. eigenvalues --  -10.18817 -10.18716 -10.18634 -10.18597 -10.18298
 Alpha  occ. eigenvalues --  -10.18268 -10.18086 -10.17800 -10.17486  -1.09933
 Alpha  occ. eigenvalues --   -1.08089  -1.01982  -1.01616  -1.01023  -0.99821
 Alpha  occ. eigenvalues --   -0.99188  -0.94266  -0.93606  -0.85499  -0.82568
 Alpha  occ. eigenvalues --   -0.81902  -0.81497  -0.81394  -0.81105  -0.80865
 Alpha  occ. eigenvalues --   -0.80343  -0.80025  -0.79365  -0.79143  -0.78219
 Alpha  occ. eigenvalues --   -0.76456  -0.76125  -0.75809  -0.75288  -0.73613
 Alpha  occ. eigenvalues --   -0.73092  -0.72919  -0.71966  -0.71557  -0.70981
 Alpha  occ. eigenvalues --   -0.69692  -0.69086  -0.68568  -0.67864  -0.67424
 Alpha  occ. eigenvalues --   -0.66743  -0.66396  -0.66279  -0.66113  -0.64184
 Alpha  occ. eigenvalues --   -0.64023  -0.62377  -0.62306  -0.61711  -0.61370
 Alpha  occ. eigenvalues --   -0.60378  -0.58597  -0.58432  -0.58352  -0.56964
 Alpha  occ. eigenvalues --   -0.56791  -0.56533  -0.56181  -0.55282  -0.54960
 Alpha  occ. eigenvalues --   -0.54851  -0.54609  -0.53663  -0.53587  -0.52915
 Alpha  occ. eigenvalues --   -0.52641  -0.51908  -0.51272  -0.50638  -0.50350
 Alpha  occ. eigenvalues --   -0.50053  -0.49180  -0.48815  -0.48575  -0.48019
 Alpha  occ. eigenvalues --   -0.47941  -0.47745  -0.47077  -0.46947  -0.46895
 Alpha  occ. eigenvalues --   -0.46679  -0.46334  -0.46255  -0.46045  -0.45974
 Alpha  occ. eigenvalues --   -0.45752  -0.45527  -0.45053  -0.44575  -0.44333
 Alpha  occ. eigenvalues --   -0.44174  -0.44027  -0.43888  -0.43872  -0.43541
 Alpha  occ. eigenvalues --   -0.43350  -0.43202  -0.42883  -0.42722  -0.42550
 Alpha  occ. eigenvalues --   -0.42350  -0.41911  -0.41831  -0.41669  -0.41653
 Alpha  occ. eigenvalues --   -0.41417  -0.41078  -0.40955  -0.40891  -0.40752
 Alpha  occ. eigenvalues --   -0.40636  -0.40308  -0.40081  -0.39623  -0.39505
 Alpha  occ. eigenvalues --   -0.39326  -0.39184  -0.38938  -0.38847  -0.38446
 Alpha  occ. eigenvalues --   -0.38117  -0.38064  -0.37900  -0.37885  -0.37733
 Alpha  occ. eigenvalues --   -0.37400  -0.36939  -0.36809  -0.36608  -0.36202
 Alpha  occ. eigenvalues --   -0.36009  -0.35894  -0.35371  -0.35051  -0.34978
 Alpha  occ. eigenvalues --   -0.34932  -0.34725  -0.34554  -0.34484  -0.34061
 Alpha  occ. eigenvalues --   -0.34002  -0.33807  -0.33689  -0.33378  -0.33158
 Alpha  occ. eigenvalues --   -0.32925  -0.32729  -0.32659  -0.32593  -0.32103
 Alpha  occ. eigenvalues --   -0.31965  -0.31648  -0.31222  -0.31147  -0.30924
 Alpha  occ. eigenvalues --   -0.30472  -0.30309  -0.30217  -0.29868  -0.29637
 Alpha  occ. eigenvalues --   -0.29363  -0.29054  -0.28844  -0.28790  -0.28725
 Alpha  occ. eigenvalues --   -0.28030  -0.27621  -0.27179  -0.25986  -0.25155
 Alpha  occ. eigenvalues --   -0.24835  -0.24218  -0.23563  -0.23255  -0.20478
 Alpha  occ. eigenvalues --   -0.18063
 Alpha virt. eigenvalues --   -0.10158  -0.07444  -0.04222  -0.02248  -0.01861
 Alpha virt. eigenvalues --   -0.00366  -0.00001   0.00477   0.03065   0.03889
 Alpha virt. eigenvalues --    0.04060   0.04281   0.04668   0.04712   0.04833

 Mulliken charges:
               1
     1  C    0.138630
     2  C   -0.067339
     3  C   -0.036637
     4  C   -0.047817
     5  N   -0.157392
     6  C   -0.176606
     7  C   -0.114290
     8  C    0.034041
     9  C    0.009610
    10  C    0.006680
    11  C    0.046173
    12  C   -0.030502
    13  C    0.227676
    14  O   -0.204985
    15  O   -0.303829
    16  N    0.010966
    17  C    0.105657
    18  C   -0.164330
    19  C    0.054150
    20  C    0.089142
    21  C    0.121747
    22  C   -0.033936
    23  C   -0.120446
    24  N   -0.257685
    25  C   -0.045729
    26  C   -0.083644
    27  C   -0.067639
    28  C    0.117824
    29  C    0.063734
    30  C    0.161583
    31  C   -0.060445
    32  N    0.029458
    33  C   -0.013703
    34  C   -0.217722
    35  C    0.046175
    36  C    0.026486
    37  C    0.036454
    38  C    0.097200
    39  O   -0.176790
    40  C   -0.066485
    41  C    0.211106
    42  O   -0.200807
    43  O   -0.338333
    44  C    0.145021
    45  C    0.167415
    46  C   -0.110627
    47  C   -0.100440
    48  C    0.052701
    49  C   -0.100664
    50  C    0.026973
    51  C   -0.059098
    52  C   -0.018452
    53  C    0.020438
    54  C   -0.032531
    55  C    0.095284
    56  C    0.009496
    57  C   -0.077601
    58  C   -0.034400
    59  C    0.039740
    60  C    0.041123
    61  C    0.072362
    62  C   -0.105947
    63  C    0.048137
    64  C   -0.037527
    65  H   -0.050360
    66  H   -0.036209
    67  H   -0.076040
    68  H    0.037920
    69  H   -0.005544
    70  H    0.015569
    71  H   -0.001830
    72  H    0.036115
    73  H    0.032223
    74  H    0.019955
    75  H    0.050504
    76  H    0.072408
    77  H    0.053797
    78  H   -0.003641
    79  H    0.025416
    80  H    0.009339
    81  H    0.048272
    82  H    0.055253
    83  H    0.034379
    84  H    0.039824
    85  H    0.009131
    86  H   -0.001035
    87  H   -0.054202
    88  H    0.021686
    89  H    0.031620
    90  H    0.008396
    91  H    0.043995
    92  H    0.070674
    93  H    0.062960
    94  H    0.039136
    95  H    0.057849
    96  H    0.061428
    97  H    0.036838
    98  H    0.047188
    99  H    0.055108
   100  H    0.019737
   101  H    0.036486
   102  H    0.049514
   103  H   -0.004189
   104  H    0.015893
   105  H    0.010115
   106  H    0.035786
   107  H    0.007432
   108  H    0.022202
   109  H    0.014816
   110  H   -0.020833
   111  H    0.023722
   112  H    0.012262
   113  H   -0.004084
   114  H   -0.023192
   115  H   -0.024309
   116  H    0.014680
   117  H    0.007914
   118  H   -0.019492
   119  H   -0.009674
   120  H   -0.012243
   121  H    0.029192
   122  H    0.010319
   123  H    0.016960
   124  H   -0.025134
   125  H   -0.012930
   126  H   -0.003458
   127  H   -0.003769
   128  H   -0.029623
   129  H    0.010758
   130  H   -0.000762
   131  H    0.014627
   132  H   -0.001461
   133  H   -0.010602
   134  H    0.020553
   135  H    0.028973
   136  H    0.010695
   137  H    0.116230
   138  H    0.139968
 Sum of Mulliken charges =  -0.00000

 Dipole moment (field-independent basis, Debye):
    X=             -0.1260    Y=              3.6527    Z=              1.0145  Tot=              3.7931
 Quadrupole moment (field-independent basis, Debye-Ang):
   XX=           -344.9289   YY=           -382.1434   ZZ=           -396.5889
   XY=            -27.0061   XZ=             -1.5069   YZ=             -0.5511

 Normal termination of Gaussian 16 at Tue Aug 20 03:46:48 2019.
