 Gaussian 16, Revision A.03,
 Gaussian 16:  ES64L-G16RevA.03 25-Dec-2016

 --------------------------
 # td=(NStates=1) B3LYP/SVP
 --------------------------

 --
 TD
 --
 Symbolic Z-matrix:
 Charge =  0 Multiplicity = 1

                         Standard orientation:
 ---------------------------------------------------------------------
 Center     Atomic      Atomic             Coordinates (Angstroms)
 Number     Number       Type             X           Y           Z
 ---------------------------------------------------------------------
      1          6           0       -5.145950   -1.920883    0.433798
      2          6           0       -4.735535    2.744796    1.637810
      3          6           0       -9.168694    3.316275   -0.274586
      4          6           0       -9.815446   -1.546332   -1.068929
      5          7           0       -5.200337    0.437570    0.934276
      6          6           0       -4.475528   -0.702253    0.843842
      7          6           0       -3.022591   -0.623569    1.261824
      8          6           0       -3.073546    0.841870    1.983207
      9          6           0       -4.448682    1.338692    1.452577
     10          6           0       -3.126129    0.765407    3.469691
     11          6           0       -2.031527   -0.587191    0.042499
     12          6           0       -0.531629   -0.747037    0.615099
     13          6           0        0.490802   -0.910474   -0.458072
     14          8           0        0.056594   -1.368888   -1.573072
     15          8           0        1.687724   -0.590249   -0.112776
     16          7           0       -7.018374    2.785099    0.508351
     17          6           0       -5.995982    3.381514    1.143737
     18          6           0       -6.211787    4.788730    1.243655
     19          6           0       -7.447896    5.020995    0.455342
     20          6           0       -8.020217    3.638232    0.255600
     21          6           0       -5.404257    5.822046    1.793491
     22          6           0       -8.239588    6.210672    0.382804
     23          6           0       -9.080384    6.609324   -0.513808
     24          7           0       -9.157891    0.778892   -0.527576
     25          6           0       -9.786032    2.031759   -0.623714
     26          6           0      -11.108824    1.905938   -1.238703
     27          6           0      -11.345829    0.557736   -1.380489
     28          6           0      -10.091296   -0.121897   -0.910434
     29          6           0      -12.165444    3.009893   -1.456238
     30          6           0      -12.566806   -0.104891   -1.901524
     31          6           0      -12.528672   -0.650842   -3.315337
     32          7           0       -7.537487   -1.361763   -0.266110
     33          6           0       -8.628252   -2.079904   -0.768760
     34          6           0       -8.175340   -3.499588   -0.784712
     35          6           0       -6.802534   -3.430952   -0.221178
     36          6           0       -6.436645   -2.114894   -0.038987
     37          6           0       -9.066965   -4.526701   -1.226953
     38          6           0       -5.648643   -4.220858   -0.108584
     39          8           0       -5.595516   -5.440210   -0.253248
     40          6           0       -4.555716   -3.302395    0.419637
     41          6           0       -4.006753   -3.780469    1.761533
     42          8           0       -4.359041   -3.559429    2.872345
     43          8           0       -2.965013   -4.686515    1.499248
     44          6           0       -2.448483   -5.362159    2.591856
     45          6           0        2.662743   -0.845433   -1.051021
     46          6           0        4.090867   -0.786913   -0.417612
     47          6           0        5.048012    0.009099   -0.816826
     48          6           0        4.939446    0.852793   -2.147288
     49          6           0        6.268190    0.177433   -0.114030
     50          6           0        7.527111   -0.319747   -0.809305
     51          6           0        8.774140   -0.218981    0.086394
     52          6           0       10.027668   -0.836724   -0.575425
     53          6           0        9.909089   -2.359854   -0.826165
     54          6           0       11.188606   -0.557179    0.308898
     55          6           0       12.665997   -0.751854   -0.378246
     56          6           0       13.735981   -0.058064    0.465631
     57          6           0       15.119693   -0.163776   -0.182751
     58          6           0       15.523209   -1.740258   -0.109387
     59          6           0       16.250582    0.716168    0.439999
     60          6           0       17.642807    0.604248   -0.261682
     61          6           0       18.560807    1.840720    0.161392
     62          6           0       20.030400    1.673596   -0.326958
     63          6           0       20.099797    1.970571   -1.849216
     64          6           0       21.001642    2.709053    0.523473
     65          1           0       -4.268893    3.429318    2.251932
     66          1           0       -9.640432    4.333940   -0.724260
     67          1           0      -10.597085   -2.310849   -1.352284
     68          1           0       -2.737030   -1.544667    1.924273
     69          1           0       -2.190292    1.464924    1.570376
     70          1           0       -2.237298    0.475116    3.841625
     71          1           0       -3.137996    1.849020    3.675443
     72          1           0       -3.950640    0.298224    4.022847
     73          1           0       -2.188912   -1.547176   -0.535586
     74          1           0       -1.897992    0.369418   -0.573185
     75          1           0       -0.369845    0.145098    1.301252
     76          1           0       -0.282017   -1.596819    1.306288
     77          1           0       -4.564686    6.252033    0.897963
     78          1           0       -6.046480    6.748538    2.198578
     79          1           0       -4.756844    5.248669    2.592366
     80          1           0       -8.147442    7.111918    1.198204
     81          1           0       -9.389684    6.006294   -1.160027
     82          1           0       -9.612633    7.512803   -0.496031
     83          1           0      -12.262893    3.935418   -0.680603
     84          1           0      -11.835699    3.712551   -2.265899
     85          1           0      -13.048546    2.664150   -1.705724
     86          1           0      -12.725564   -0.984648   -1.118867
     87          1           0      -13.483616    0.450383   -1.637820
     88          1           0      -12.632072    0.251063   -4.127348
     89          1           0      -11.585204   -1.380466   -3.355745
     90          1           0      -13.404404   -0.982617   -3.454016
     91          1           0       -9.934995   -4.849447   -0.603144
     92          1           0       -9.438404   -4.411536   -2.343956
     93          1           0       -8.594629   -5.531545   -1.172858
     94          1           0       -3.599530   -3.303384   -0.333025
     95          1           0       -1.529527   -5.955396    2.265810
     96          1           0       -2.213148   -4.648637    3.435863
     97          1           0       -3.224727   -6.070293    3.041662
     98          1           0        2.341741   -1.908771   -1.126518
     99          1           0        2.509924   -0.242444   -2.005381
    100          1           0        4.216495   -1.448763    0.610965
    101          1           0        5.269395    1.874497   -2.110616
    102          1           0        5.501243    0.619689   -2.896748
    103          1           0        3.898750    0.952914   -2.643668
    104          1           0        6.306935    1.388593    0.192746
    105          1           0        6.188944   -0.388681    0.900792
    106          1           0        7.199570   -1.430009   -1.465087
    107          1           0        7.640230    0.326089   -1.752392
    108          1           0        8.974386    0.943842    0.284536
    109          1           0        8.821691   -0.612660    0.999688
    110          1           0       10.422886   -0.511689   -1.621307
    111          1           0        9.247232   -2.732709   -1.620277
    112          1           0       10.988029   -2.861232   -0.824979
    113          1           0        9.447847   -2.870437    0.179933
    114          1           0       11.180326    0.527406    0.294894
    115          1           0       11.099481   -0.886474    1.350690
    116          1           0       12.773915   -1.745103   -0.544024
    117          1           0       12.587569   -0.500171   -1.499531
    118          1           0       13.507406    1.136215    0.532109
    119          1           0       13.702215   -0.450326    1.452410
    120          1           0       15.032536    0.102216   -1.237741
    121          1           0       14.669212   -2.257295   -0.461336
    122          1           0       16.524070   -2.030971   -0.402743
    123          1           0       15.663554   -2.082666    0.851696
    124          1           0       16.076736    1.823496    0.439384
    125          1           0       16.298997    0.374167    1.400772
    126          1           0       18.101502   -0.367556   -0.017391
    127          1           0       17.524842    0.604244   -1.443139
    128          1           0       18.216881    2.915288   -0.208079
    129          1           0       18.616827    1.821324    1.334182
    130          1           0       20.528791    0.685552   -0.007777
    131          1           0       19.753360    2.996020   -2.151478
    132          1           0       21.093147    2.235005   -2.118257
    133          1           0       19.635679    1.152837   -2.511215
    134          1           0       20.879008    2.353417    1.414474
    135          1           0       21.950127    2.693258    0.313329
    136          1           0       20.668235    3.782253    0.366196
    137          1           0       -7.221912    1.859109    0.386738
    138          1           0       -7.827940   -0.290065   -0.223731
 ---------------------------------------------------------------------

 SCF Done:  E(RB3LYP) =  -2732.97326498     A.U. after   17 cycles

 Excitation energies and oscillator strengths:

 Excited State   1:      Singlet-A      1.9611 eV  632.22 nm  f=0.1088  <S**2>=0.000
     235 -> 237        0.13821
     235 -> 238        0.34967
     236 -> 237        0.58575
     236 -> 238       -0.10989
 This state for optimization and/or second-order correction.
 Total Energy, E(TD-HF/TD-DFT) =  -2732.90119613
 Copying the excited state density for this state as the 1-particle RhoCI density.

 The electronic state is 1-A.
 Alpha  occ. eigenvalues --  -19.19730 -19.16389 -19.13386 -19.11366 -19.10786
 Alpha  occ. eigenvalues --  -14.36896 -14.35317 -14.32417 -14.31386 -10.31735
 Alpha  occ. eigenvalues --  -10.31499 -10.26385 -10.25526 -10.24765 -10.24057
 Alpha  occ. eigenvalues --  -10.23777 -10.23228 -10.23127 -10.22954 -10.22927
 Alpha  occ. eigenvalues --  -10.22769 -10.22510 -10.22400 -10.22344 -10.21822
 Alpha  occ. eigenvalues --  -10.21761 -10.21422 -10.21393 -10.21250 -10.21133
 Alpha  occ. eigenvalues --  -10.20902 -10.20833 -10.20687 -10.20656 -10.20530
 Alpha  occ. eigenvalues --  -10.20520 -10.20390 -10.20353 -10.20288 -10.20103
 Alpha  occ. eigenvalues --  -10.20062 -10.19927 -10.19875 -10.19788 -10.19560
 Alpha  occ. eigenvalues --  -10.19531 -10.19509 -10.19360 -10.19256 -10.19148
 Alpha  occ. eigenvalues --  -10.19130 -10.19070 -10.18991 -10.18728 -10.18623
 Alpha  occ. eigenvalues --  -10.18580 -10.18472 -10.17940 -10.17902 -10.17846
 Alpha  occ. eigenvalues --  -10.17495 -10.17279 -10.16606 -10.15897  -1.13310
 Alpha  occ. eigenvalues --   -1.09162  -1.01303  -1.00956  -1.00097  -0.98151
 Alpha  occ. eigenvalues --   -0.97052  -0.96148  -0.93043  -0.86060  -0.83655
 Alpha  occ. eigenvalues --   -0.82598  -0.81983  -0.81642  -0.80464  -0.80284
 Alpha  occ. eigenvalues --   -0.79728  -0.79581  -0.78822  -0.78640  -0.78253
 Alpha  occ. eigenvalues --   -0.77484  -0.76452  -0.75583  -0.75138  -0.74342
 Alpha  occ. eigenvalues --   -0.73556  -0.73172  -0.72282  -0.71117  -0.71030
 Alpha  occ. eigenvalues --   -0.70587  -0.69469  -0.69242  -0.68419  -0.68221
 Alpha  occ. eigenvalues --   -0.67562  -0.67031  -0.66834  -0.66035  -0.65429
 Alpha  occ. eigenvalues --   -0.64807  -0.63223  -0.62717  -0.61920  -0.61844
 Alpha  occ. eigenvalues --   -0.61230  -0.59212  -0.58552  -0.58194  -0.57470
 Alpha  occ. eigenvalues --   -0.57333  -0.56482  -0.56342  -0.56246  -0.55437
 Alpha  occ. eigenvalues --   -0.54889  -0.54852  -0.54292  -0.53500  -0.53268
 Alpha  occ. eigenvalues --   -0.52894  -0.52504  -0.52010  -0.51571  -0.50784
 Alpha  occ. eigenvalues --   -0.50195  -0.49249  -0.48937  -0.48167  -0.48043
 Alpha  occ. eigenvalues --   -0.47917  -0.47611  -0.47155  -0.47036  -0.46879
 Alpha  occ. eigenvalues --   -0.46580  -0.46331  -0.45985  -0.45724  -0.45631
 Alpha  occ. eigenvalues --   -0.45478  -0.45308  -0.45097  -0.44949  -0.44809
 Alpha  occ. eigenvalues --   -0.44586  -0.44483  -0.44057  -0.43685  -0.43504
 Alpha  occ. eigenvalues --   -0.43337  -0.43174  -0.42853  -0.42637  -0.42460
 Alpha  occ. eigenvalues --   -0.42403  -0.42321  -0.42166  -0.41779  -0.41460
 Alpha  occ. eigenvalues --   -0.41111  -0.41042  -0.40933  -0.40653  -0.40433
 Alpha  occ. eigenvalues --   -0.40364  -0.40262  -0.39996  -0.39341  -0.39255
 Alpha  occ. eigenvalues --   -0.39144  -0.38857  -0.38673  -0.38570  -0.38461
 Alpha  occ. eigenvalues --   -0.38406  -0.38070  -0.37887  -0.37754  -0.37681
 Alpha  occ. eigenvalues --   -0.37501  -0.37248  -0.37240  -0.37065  -0.36524
 Alpha  occ. eigenvalues --   -0.36385  -0.36270  -0.35965  -0.35813  -0.35715
 Alpha  occ. eigenvalues --   -0.35560  -0.35422  -0.35174  -0.34867  -0.34762
 Alpha  occ. eigenvalues --   -0.34664  -0.34605  -0.34341  -0.34022  -0.33696
 Alpha  occ. eigenvalues --   -0.33613  -0.33292  -0.33238  -0.32670  -0.32531
 Alpha  occ. eigenvalues --   -0.31991  -0.31817  -0.31626  -0.31296  -0.30771
 Alpha  occ. eigenvalues --   -0.30746  -0.30674  -0.30488  -0.30346  -0.30231
 Alpha  occ. eigenvalues --   -0.29295  -0.29248  -0.28861  -0.28702  -0.28232
 Alpha  occ. eigenvalues --   -0.27805  -0.27347  -0.27050  -0.25789  -0.25433
 Alpha  occ. eigenvalues --   -0.24646  -0.24326  -0.23877  -0.22956  -0.19727
 Alpha  occ. eigenvalues --   -0.19152
 Alpha virt. eigenvalues --   -0.10606  -0.08807  -0.04912  -0.01655  -0.00428
 Alpha virt. eigenvalues --   -0.00044  -0.00004   0.01244   0.01993   0.03139
 Alpha virt. eigenvalues --    0.03729   0.03843   0.03968   0.04192   0.04884

 Mulliken charges:
               1
     1  C    0.029667
     2  C   -0.010882
     3  C   -0.068012
     4  C   -0.087528
     5  N   -0.087179
     6  C   -0.057224
     7  C   -0.087063
     8  C   -0.106846
     9  C    0.005306
    10  C    0.170056
    11  C    0.055270
    12  C   -0.018512
    13  C    0.173127
    14  O   -0.315422
    15  O   -0.218964
    16  N    0.057742
    17  C    0.045666
    18  C   -0.112145
    19  C    0.066438
    20  C   -0.010676
    21  C   -0.045260
    22  C   -0.091649
    23  C    0.059956
    24  N   -0.286129
    25  C    0.074681
    26  C   -0.112949
    27  C   -0.077545
    28  C    0.071576
    29  C    0.131728
    30  C   -0.024899
    31  C    0.097943
    32  N   -0.107414
    33  C    0.056193
    34  C   -0.048477
    35  C   -0.015320
    36  C    0.115011
    37  C    0.009893
    38  C    0.048058
    39  O   -0.188528
    40  C   -0.094330
    41  C    0.207674
    42  O   -0.178967
    43  O   -0.320891
    44  C    0.147749
    45  C    0.240393
    46  C   -0.127045
    47  C   -0.066527
    48  C    0.113378
    49  C    0.023932
    50  C   -0.046653
    51  C    0.104722
    52  C   -0.082588
    53  C   -0.038040
    54  C    0.020064
    55  C    0.024483
    56  C    0.051353
    57  C   -0.072405
    58  C    0.067794
    59  C    0.099415
    60  C   -0.017603
    61  C   -0.016821
    62  C   -0.155701
    63  C    0.051195
    64  C    0.123760
    65  H   -0.064973
    66  H    0.014574
    67  H    0.007404
    68  H    0.041413
    69  H    0.019709
    70  H   -0.026816
    71  H   -0.015493
    72  H    0.038836
    73  H    0.041564
    74  H    0.038321
    75  H    0.014706
    76  H    0.030860
    77  H    0.066618
    78  H    0.062466
    79  H    0.045242
    80  H    0.018175
    81  H   -0.064322
    82  H    0.007744
    83  H    0.025110
    84  H    0.002707
    85  H   -0.036628
    86  H    0.006883
    87  H   -0.001611
    88  H    0.015358
    89  H    0.048243
    90  H   -0.047369
    91  H    0.038044
    92  H    0.050589
    93  H    0.024778
    94  H    0.089258
    95  H    0.040989
    96  H    0.020294
    97  H    0.027523
    98  H    0.001455
    99  H    0.042113
   100  H    0.025237
   101  H   -0.012315
   102  H   -0.030666
   103  H    0.009808
   104  H    0.031391
   105  H    0.005663
   106  H    0.032766
   107  H    0.011848
   108  H    0.011788
   109  H   -0.037770
   110  H   -0.000104
   111  H    0.027114
   112  H    0.024741
   113  H   -0.006074
   114  H   -0.014395
   115  H   -0.001514
   116  H   -0.035136
   117  H   -0.008909
   118  H    0.010626
   119  H   -0.010364
   120  H   -0.011873
   121  H   -0.009332
   122  H   -0.000448
   123  H   -0.035785
   124  H   -0.002273
   125  H   -0.032642
   126  H    0.002150
   127  H    0.013286
   128  H    0.024836
   129  H    0.005584
   130  H    0.009635
   131  H   -0.007250
   132  H   -0.019828
   133  H    0.035064
   134  H   -0.038782
   135  H   -0.036458
   136  H    0.006217
   137  H    0.100301
   138  H    0.192070
 Sum of Mulliken charges =  -0.00000

 Dipole moment (field-independent basis, Debye):
    X=              2.8600    Y=              5.6132    Z=              1.0783  Tot=              6.3914
 Quadrupole moment (field-independent basis, Debye-Ang):
   XX=           -327.4770   YY=           -390.3495   ZZ=           -395.4371
   XY=            -26.0028   XZ=             16.7340   YZ=             -2.3654

 Normal termination of Gaussian 16 at Wed Aug 21 02:33:17 2019.
