 Gaussian 16, Revision A.03,
 Gaussian 16:  ES64L-G16RevA.03 25-Dec-2016

 --------------------------
 # td=(NStates=1) B3LYP/SVP
 --------------------------

 --
 TD
 --
 Symbolic Z-matrix:
 Charge =  0 Multiplicity = 1

                         Standard orientation:
 ---------------------------------------------------------------------
 Center     Atomic      Atomic             Coordinates (Angstroms)
 Number     Number       Type             X           Y           Z
 ---------------------------------------------------------------------
      1          6           0       -5.129108   -1.984258    0.446210
      2          6           0       -4.725774    2.643462    1.540322
      3          6           0       -9.219544    3.417059   -0.432225
      4          6           0       -9.820013   -1.431102   -0.917300
      5          7           0       -5.203431    0.484445    0.763066
      6          6           0       -4.527722   -0.780745    0.846578
      7          6           0       -3.142009   -0.603374    1.358950
      8          6           0       -3.204684    0.749633    2.001633
      9          6           0       -4.442996    1.272132    1.407009
     10          6           0       -3.060325    0.753395    3.424887
     11          6           0       -2.075869   -0.881068    0.225471
     12          6           0       -0.666153   -0.828925    0.767974
     13          6           0        0.423271   -1.138907   -0.353942
     14          8           0        0.124488   -1.598291   -1.459138
     15          8           0        1.688171   -0.825844    0.054564
     16          7           0       -7.021672    2.861180    0.530021
     17          6           0       -5.837092    3.380025    1.030100
     18          6           0       -6.174304    4.783865    1.047460
     19          6           0       -7.444549    5.046897    0.605365
     20          6           0       -7.928403    3.773012    0.142903
     21          6           0       -5.175289    5.888254    1.613563
     22          6           0       -8.049358    6.354779    0.361777
     23          6           0       -9.074281    6.741016   -0.442592
     24          7           0       -9.057890    0.917658   -0.605451
     25          6           0       -9.737688    2.158478   -0.604287
     26          6           0      -11.072647    1.935206   -1.040156
     27          6           0      -11.273647    0.608771   -1.272476
     28          6           0      -10.060697   -0.044514   -0.929795
     29          6           0      -12.101416    3.086179   -1.292780
     30          6           0      -12.578869   -0.054920   -1.711964
     31          6           0      -12.583086   -0.277278   -3.239157
     32          7           0       -7.526434   -1.271061   -0.204788
     33          6           0       -8.606702   -2.075216   -0.672266
     34          6           0       -8.153844   -3.413298   -0.788408
     35          6           0       -6.819723   -3.422720   -0.378347
     36          6           0       -6.510666   -2.146169   -0.013864
     37          6           0       -8.998096   -4.624975   -1.061525
     38          6           0       -5.676601   -4.305282   -0.165694
     39          8           0       -5.626089   -5.565088   -0.178468
     40          6           0       -4.524122   -3.394589    0.354053
     41          6           0       -4.067042   -3.896192    1.675742
     42          8           0       -4.240523   -3.504705    2.783585
     43          8           0       -3.150470   -4.895638    1.500931
     44          6           0       -2.526312   -5.440393    2.693617
     45          6           0        2.692851   -1.220596   -1.054634
     46          6           0        4.010057   -0.801440   -0.483130
     47          6           0        4.919815    0.023260   -1.026780
     48          6           0        4.813184    0.667470   -2.433637
     49          6           0        6.319724    0.214160   -0.256573
     50          6           0        7.500676   -0.399932   -0.977636
     51          6           0        8.628883   -0.240520   -0.109446
     52          6           0       10.044026   -0.672848   -0.852663
     53          6           0       10.031476   -2.251172   -0.941137
     54          6           0       11.106603   -0.228598    0.115120
     55          6           0       12.617897   -0.467911   -0.397274
     56          6           0       13.807995    0.095728    0.452883
     57          6           0       15.184815   -0.081453   -0.325654
     58          6           0       15.504172   -1.557376   -0.629792
     59          6           0       16.223364    0.644209    0.375182
     60          6           0       17.578381    0.723319   -0.273941
     61          6           0       18.549845    1.541627    0.491757
     62          6           0       20.048674    1.616964    0.026815
     63          6           0       20.230592    2.131431   -1.412569
     64          6           0       20.864526    2.555942    0.939548
     65          1           0       -3.997924    3.314527    1.954197
     66          1           0      -10.067064    4.160997   -0.430797
     67          1           0      -10.492920   -2.225480   -1.272288
     68          1           0       -2.849357   -1.331532    2.211542
     69          1           0       -2.430241    1.546293    1.575239
     70          1           0       -2.084678    0.175282    3.586315
     71          1           0       -2.896872    1.761177    3.862087
     72          1           0       -3.811529   -0.020986    3.743269
     73          1           0       -2.063196   -1.892733   -0.349744
     74          1           0       -2.135516    0.008490   -0.432708
     75          1           0       -0.513055    0.338456    1.124770
     76          1           0       -0.371467   -1.310093    1.752947
     77          1           0       -4.219684    5.744570    1.067296
     78          1           0       -5.498061    6.940831    1.504016
     79          1           0       -4.889791    5.806521    2.635315
     80          1           0       -7.967596    7.226471    1.052704
     81          1           0       -9.451677    6.145710   -1.298669
     82          1           0       -9.431174    7.563982   -0.129669
     83          1           0      -12.279807    3.786125   -0.349895
     84          1           0      -11.681910    3.643140   -1.960927
     85          1           0      -13.107606    2.693113   -1.916997
     86          1           0      -12.822972   -1.012687   -1.286440
     87          1           0      -13.531435    0.586176   -1.390271
     88          1           0      -12.340364    0.765855   -3.659244
     89          1           0      -11.693903   -1.012492   -3.558745
     90          1           0      -13.530908   -0.595851   -3.625835
     91          1           0      -10.039105   -4.732310   -0.511643
     92          1           0       -9.376788   -4.546438   -2.278800
     93          1           0       -8.492277   -5.558765   -0.934015
     94          1           0       -3.609208   -3.293669   -0.301121
     95          1           0       -1.737369   -6.172258    2.186795
     96          1           0       -2.327953   -4.581451    3.396206
     97          1           0       -3.473573   -6.121536    3.304625
     98          1           0        2.547216   -2.381462   -1.179874
     99          1           0        2.520482   -0.618723   -1.957079
    100          1           0        4.054271   -1.153341    0.622923
    101          1           0        5.247383    1.666501   -2.470948
    102          1           0        5.475613    0.029716   -3.296130
    103          1           0        3.714806    0.816856   -2.605934
    104          1           0        6.466859    1.256853    0.000143
    105          1           0        6.309463   -0.307273    0.825012
    106          1           0        7.247238   -1.375117   -1.376271
    107          1           0        7.434015    0.172007   -1.888915
    108          1           0        8.712657    0.861267    0.389462
    109          1           0        8.640772   -0.913889    0.720435
    110          1           0       10.239257   -0.139277   -1.905041
    111          1           0        9.266812   -2.572952   -1.568336
    112          1           0       10.876972   -2.661447   -1.553998
    113          1           0        9.940976   -2.890320   -0.048360
    114          1           0       10.907819    0.927976    0.337888
    115          1           0       11.200511   -0.768787    1.278688
    116          1           0       12.582795   -1.635752   -0.608068
    117          1           0       12.673953   -0.100925   -1.471327
    118          1           0       13.850107    1.376704    0.346673
    119          1           0       13.948716   -0.386687    1.328908
    120          1           0       14.968523    0.625814   -1.334577
    121          1           0       14.756528   -2.026695   -1.419286
    122          1           0       16.421350   -1.662299   -1.331468
    123          1           0       15.550564   -2.123928    0.231189
    124          1           0       16.000835    1.588901    0.707077
    125          1           0       16.451650    0.105564    1.292084
    126          1           0       18.119292   -0.247720   -0.366837
    127          1           0       17.425140    1.085888   -1.399485
    128          1           0       18.162898    2.533249    0.351628
    129          1           0       18.544081    1.234143    1.534462
    130          1           0       20.103053    0.504991    0.142248
    131          1           0       19.749540    3.097908   -1.648029
    132          1           0       21.146695    2.204746   -1.599081
    133          1           0       19.587141    1.504110   -2.070436
    134          1           0       21.065004    2.369343    1.899732
    135          1           0       22.095965    2.395668    0.698033
    136          1           0       20.509972    3.519696    1.051341
    137          1           0       -7.007944    1.833514    0.393552
    138          1           0       -7.663789   -0.216262   -0.032891
 ---------------------------------------------------------------------

 SCF Done:  E(RB3LYP) =  -2733.02626365     A.U. after   17 cycles

 Excitation energies and oscillator strengths:

 Excited State   1:      Singlet-A      2.0127 eV  616.00 nm  f=0.2193  <S**2>=0.000
     235 -> 237       -0.17983
     235 -> 238       -0.21083
     236 -> 237        0.63427
     236 -> 238       -0.12613
 This state for optimization and/or second-order correction.
 Total Energy, E(TD-HF/TD-DFT) =  -2732.95229667
 Copying the excited state density for this state as the 1-particle RhoCI density.

 The electronic state is 1-A.
 Alpha  occ. eigenvalues --  -19.18288 -19.16093 -19.12972 -19.12508 -19.12297
 Alpha  occ. eigenvalues --  -14.37075 -14.36409 -14.33004 -14.30223 -10.32235
 Alpha  occ. eigenvalues --  -10.31129 -10.28526 -10.26481 -10.26027 -10.24660
 Alpha  occ. eigenvalues --  -10.24282 -10.23548 -10.23433 -10.23023 -10.22580
 Alpha  occ. eigenvalues --  -10.22161 -10.22130 -10.21809 -10.21758 -10.21708
 Alpha  occ. eigenvalues --  -10.21412 -10.21332 -10.21198 -10.21114 -10.21105
 Alpha  occ. eigenvalues --  -10.21069 -10.21046 -10.20968 -10.20765 -10.20691
 Alpha  occ. eigenvalues --  -10.20674 -10.20578 -10.20415 -10.20373 -10.19993
 Alpha  occ. eigenvalues --  -10.19904 -10.19866 -10.19856 -10.19832 -10.19827
 Alpha  occ. eigenvalues --  -10.19782 -10.19656 -10.19602 -10.19419 -10.19382
 Alpha  occ. eigenvalues --  -10.19305 -10.19154 -10.18881 -10.18621 -10.18611
 Alpha  occ. eigenvalues --  -10.18416 -10.18415 -10.18169 -10.18114 -10.17907
 Alpha  occ. eigenvalues --  -10.17666 -10.17001 -10.16640 -10.16158  -1.09338
 Alpha  occ. eigenvalues --   -1.07601  -1.00363  -0.99870  -0.99420  -0.99068
 Alpha  occ. eigenvalues --   -0.97724  -0.96663  -0.91928  -0.85185  -0.82817
 Alpha  occ. eigenvalues --   -0.82682  -0.82473  -0.81647  -0.80913  -0.80308
 Alpha  occ. eigenvalues --   -0.80125  -0.79811  -0.79496  -0.78532  -0.77981
 Alpha  occ. eigenvalues --   -0.77165  -0.76483  -0.76059  -0.75084  -0.74591
 Alpha  occ. eigenvalues --   -0.73070  -0.72893  -0.72529  -0.71222  -0.70631
 Alpha  occ. eigenvalues --   -0.69890  -0.68972  -0.68610  -0.68219  -0.67880
 Alpha  occ. eigenvalues --   -0.67533  -0.67241  -0.66808  -0.66381  -0.64889
 Alpha  occ. eigenvalues --   -0.64104  -0.63312  -0.62306  -0.62139  -0.61115
 Alpha  occ. eigenvalues --   -0.60470  -0.59261  -0.58966  -0.57609  -0.57456
 Alpha  occ. eigenvalues --   -0.57060  -0.55521  -0.55415  -0.55197  -0.54785
 Alpha  occ. eigenvalues --   -0.54427  -0.54147  -0.53842  -0.53787  -0.53100
 Alpha  occ. eigenvalues --   -0.52875  -0.52066  -0.51392  -0.50956  -0.50561
 Alpha  occ. eigenvalues --   -0.49673  -0.49456  -0.49192  -0.48808  -0.48630
 Alpha  occ. eigenvalues --   -0.48382  -0.47623  -0.47524  -0.47256  -0.47158
 Alpha  occ. eigenvalues --   -0.46730  -0.46434  -0.46333  -0.45963  -0.45705
 Alpha  occ. eigenvalues --   -0.45174  -0.45147  -0.44967  -0.44785  -0.44648
 Alpha  occ. eigenvalues --   -0.44382  -0.44000  -0.43755  -0.43436  -0.43210
 Alpha  occ. eigenvalues --   -0.43101  -0.42969  -0.42803  -0.42603  -0.42440
 Alpha  occ. eigenvalues --   -0.42298  -0.42101  -0.41948  -0.41644  -0.41518
 Alpha  occ. eigenvalues --   -0.41139  -0.40944  -0.40802  -0.40579  -0.40518
 Alpha  occ. eigenvalues --   -0.40320  -0.40196  -0.39731  -0.39668  -0.39626
 Alpha  occ. eigenvalues --   -0.39405  -0.39309  -0.39071  -0.38383  -0.38284
 Alpha  occ. eigenvalues --   -0.38041  -0.37852  -0.37811  -0.37680  -0.37601
 Alpha  occ. eigenvalues --   -0.37499  -0.37409  -0.37248  -0.37129  -0.36906
 Alpha  occ. eigenvalues --   -0.36765  -0.36422  -0.36265  -0.36184  -0.35916
 Alpha  occ. eigenvalues --   -0.35595  -0.35247  -0.35119  -0.35046  -0.34832
 Alpha  occ. eigenvalues --   -0.34719  -0.34593  -0.34409  -0.34214  -0.33666
 Alpha  occ. eigenvalues --   -0.33538  -0.33264  -0.32757  -0.32659  -0.32488
 Alpha  occ. eigenvalues --   -0.32404  -0.31928  -0.31707  -0.31687  -0.31177
 Alpha  occ. eigenvalues --   -0.31114  -0.31038  -0.30554  -0.29894  -0.29654
 Alpha  occ. eigenvalues --   -0.28895  -0.28767  -0.28431  -0.28291  -0.28062
 Alpha  occ. eigenvalues --   -0.27903  -0.27390  -0.26895  -0.26538  -0.26015
 Alpha  occ. eigenvalues --   -0.25415  -0.25342  -0.24143  -0.22601  -0.20564
 Alpha  occ. eigenvalues --   -0.19024
 Alpha virt. eigenvalues --   -0.11132  -0.07934  -0.05145  -0.02210  -0.01100
 Alpha virt. eigenvalues --   -0.00688  -0.00258   0.00564   0.01420   0.03217
 Alpha virt. eigenvalues --    0.03459   0.03539   0.03757   0.04287   0.04865

 Mulliken charges:
               1
     1  C   -0.034392
     2  C   -0.055107
     3  C   -0.100931
     4  C   -0.062780
     5  N   -0.147736
     6  C   -0.010656
     7  C   -0.076028
     8  C   -0.085042
     9  C    0.017962
    10  C    0.111513
    11  C    0.068322
    12  C   -0.080981
    13  C    0.222405
    14  O   -0.259285
    15  O   -0.344215
    16  N   -0.064461
    17  C    0.058804
    18  C   -0.123972
    19  C    0.072477
    20  C    0.075594
    21  C    0.090484
    22  C   -0.096369
    23  C    0.029622
    24  N   -0.333465
    25  C    0.098250
    26  C   -0.145816
    27  C   -0.056378
    28  C    0.127274
    29  C    0.104959
    30  C    0.036486
    31  C   -0.025732
    32  N   -0.093030
    33  C    0.024415
    34  C   -0.094274
    35  C    0.027167
    36  C    0.080925
    37  C    0.005228
    38  C    0.088877
    39  O   -0.208981
    40  C   -0.019858
    41  C    0.197888
    42  O   -0.205482
    43  O   -0.323721
    44  C    0.092225
    45  C    0.241780
    46  C   -0.103449
    47  C   -0.124233
    48  C    0.014672
    49  C   -0.006033
    50  C    0.111020
    51  C    0.013111
    52  C   -0.093340
    53  C    0.046365
    54  C   -0.040525
    55  C   -0.019141
    56  C    0.070193
    57  C   -0.139400
    58  C    0.034815
    59  C    0.133027
    60  C   -0.012267
    61  C    0.020740
    62  C   -0.092931
    63  C    0.143721
    64  C    0.067431
    65  H   -0.040686
    66  H   -0.003192
    67  H   -0.022278
    68  H    0.023137
    69  H    0.009208
    70  H    0.007501
    71  H    0.027638
    72  H    0.034861
    73  H    0.063616
    74  H    0.014453
    75  H    0.036410
    76  H    0.042123
    77  H    0.018536
    78  H    0.018420
    79  H    0.013887
    80  H    0.010102
    81  H    0.032345
    82  H   -0.036738
    83  H    0.048142
    84  H   -0.025236
    85  H    0.034707
    86  H   -0.005777
    87  H    0.019101
    88  H    0.016034
    89  H    0.032768
    90  H    0.013762
    91  H    0.049913
    92  H    0.039224
    93  H    0.037438
    94  H    0.074140
    95  H    0.074026
    96  H    0.058191
    97  H    0.046678
    98  H    0.061669
    99  H    0.028203
   100  H    0.022950
   101  H    0.020029
   102  H    0.062852
   103  H    0.032726
   104  H    0.003730
   105  H   -0.000803
   106  H   -0.004143
   107  H   -0.027957
   108  H    0.017518
   109  H   -0.006390
   110  H    0.025581
   111  H   -0.027003
   112  H    0.006832
   113  H    0.019542
   114  H    0.006022
   115  H    0.013786
   116  H    0.013434
   117  H   -0.012293
   118  H    0.030663
   119  H   -0.028056
   120  H   -0.005531
   121  H    0.019392
   122  H    0.021398
   123  H   -0.000311
   124  H   -0.044267
   125  H   -0.038759
   126  H   -0.014868
   127  H   -0.000168
   128  H   -0.029635
   129  H   -0.007740
   130  H   -0.003510
   131  H   -0.009275
   132  H   -0.050837
   133  H   -0.000416
   134  H   -0.042474
   135  H    0.009091
   136  H   -0.005539
   137  H    0.154073
   138  H    0.180289
 Sum of Mulliken charges =  -0.00000

 Dipole moment (field-independent basis, Debye):
    X=              2.8748    Y=              4.4093    Z=              0.9919  Tot=              5.3564
 Quadrupole moment (field-independent basis, Debye-Ang):
   XX=           -367.9226   YY=           -390.4192   ZZ=           -395.5212
   XY=            -29.2712   XZ=              9.7285   YZ=              2.6013

 Normal termination of Gaussian 16 at Wed Aug 28 14:15:54 2019.
