 Gaussian 16, Revision A.03,
 Gaussian 16:  ES64L-G16RevA.03 25-Dec-2016

 --------------------------
 # td=(NStates=1) B3LYP/SVP
 --------------------------

 --
 TD
 --
 Symbolic Z-matrix:
 Charge =  0 Multiplicity = 1

                         Standard orientation:
 ---------------------------------------------------------------------
 Center     Atomic      Atomic             Coordinates (Angstroms)
 Number     Number       Type             X           Y           Z
 ---------------------------------------------------------------------
      1          6           0       -5.070280   -1.963472    0.384812
      2          6           0       -4.689288    2.711212    1.618861
      3          6           0       -9.301763    3.301769   -0.160049
      4          6           0       -9.731752   -1.333998   -1.157807
      5          7           0       -5.186017    0.357944    1.075403
      6          6           0       -4.511043   -0.757401    0.789928
      7          6           0       -3.024883   -0.648354    1.291744
      8          6           0       -3.021848    0.861456    1.917410
      9          6           0       -4.313519    1.364823    1.462791
     10          6           0       -3.019728    0.729081    3.496216
     11          6           0       -2.036621   -0.726537    0.048913
     12          6           0       -0.540963   -0.779377    0.535968
     13          6           0        0.436953   -1.099408   -0.568661
     14          8           0        0.101704   -1.682453   -1.596098
     15          8           0        1.666308   -0.729727   -0.331466
     16          7           0       -7.112727    2.760781    0.621612
     17          6           0       -5.961525    3.249781    1.244577
     18          6           0       -6.244106    4.746055    1.270300
     19          6           0       -7.439217    4.915868    0.567981
     20          6           0       -8.029500    3.700524    0.285947
     21          6           0       -5.223682    5.761795    1.885721
     22          6           0       -8.075090    6.333924    0.443520
     23          6           0       -8.849202    6.854236   -0.461238
     24          7           0       -9.160530    0.961859   -0.596554
     25          6           0       -9.788867    2.105715   -0.610028
     26          6           0      -11.216366    1.987618   -1.124148
     27          6           0      -11.368382    0.601042   -1.373426
     28          6           0      -10.056235    0.006574   -1.110955
     29          6           0      -12.206015    3.054035   -1.291796
     30          6           0      -12.654895   -0.106098   -1.824934
     31          6           0      -12.655948   -0.253783   -3.377461
     32          7           0       -7.467421   -1.213013   -0.412681
     33          6           0       -8.508590   -1.963480   -0.797458
     34          6           0       -8.166195   -3.312948   -0.621619
     35          6           0       -6.870811   -3.452598   -0.244266
     36          6           0       -6.462841   -2.070681   -0.090726
     37          6           0       -8.931085   -4.588119   -1.011584
     38          6           0       -5.772550   -4.352486    0.030194
     39          8           0       -5.757421   -5.553171    0.014033
     40          6           0       -4.589313   -3.409533    0.442030
     41          6           0       -3.996183   -3.851082    1.776615
     42          8           0       -4.371136   -3.441963    2.891897
     43          8           0       -3.116994   -4.893578    1.656962
     44          6           0       -2.745993   -5.587938    2.862470
     45          6           0        2.764331   -0.978728   -1.208109
     46          6           0        3.983078   -0.652219   -0.647721
     47          6           0        4.929171    0.075142   -1.154195
     48          6           0        4.934858    0.892287   -2.388387
     49          6           0        6.287086    0.180063   -0.436854
     50          6           0        7.482476   -0.385895   -1.093073
     51          6           0        8.753311   -0.276384   -0.163313
     52          6           0       10.140620   -0.871758   -0.746471
     53          6           0       10.004745   -2.324731   -0.972959
     54          6           0       11.425943   -0.494670    0.220146
     55          6           0       12.644754   -0.595927   -0.480146
     56          6           0       13.807505   -0.070633    0.334203
     57          6           0       15.143016   -0.246939   -0.279594
     58          6           0       15.569020   -1.617657   -0.388597
     59          6           0       16.105843    0.746757    0.355497
     60          6           0       17.576063    0.684023   -0.284697
     61          6           0       18.487020    1.605387    0.522539
     62          6           0       20.039016    1.737840    0.061851
     63          6           0       20.176506    2.279082   -1.428692
     64          6           0       20.946992    2.629001    1.040486
     65          1           0       -4.114554    3.425491    2.103520
     66          1           0       -9.988167    3.900896   -0.244589
     67          1           0      -10.437381   -2.021053   -1.443327
     68          1           0       -2.682607   -1.288151    2.047885
     69          1           0       -2.113147    1.384064    1.816389
     70          1           0       -1.997255    0.421927    3.455620
     71          1           0       -3.040738    1.772347    4.000473
     72          1           0       -3.898752    0.154925    3.809749
     73          1           0       -2.319455   -1.578851   -0.641460
     74          1           0       -2.333714    0.372495   -0.510786
     75          1           0       -0.426142    0.086292    0.998137
     76          1           0       -0.429477   -1.592045    1.369272
     77          1           0       -4.279659    5.830662    1.542532
     78          1           0       -5.445560    6.818331    1.515471
     79          1           0       -5.209374    5.438165    3.067084
     80          1           0       -7.581010    7.033192    1.080230
     81          1           0       -9.403901    6.162408   -1.239095
     82          1           0       -9.221678    7.856539   -0.805077
     83          1           0      -12.361119    3.786916   -0.428526
     84          1           0      -11.856800    3.609361   -2.055570
     85          1           0      -13.106368    2.551104   -2.046505
     86          1           0      -12.666195   -1.149918   -1.532524
     87          1           0      -13.466192    0.437210   -1.402205
     88          1           0      -12.702394    0.724468   -3.801923
     89          1           0      -11.749113   -0.850040   -3.547269
     90          1           0      -13.728653   -0.931047   -3.553121
     91          1           0       -9.890394   -4.636110   -0.497472
     92          1           0       -9.268465   -4.506804   -2.119430
     93          1           0       -8.493626   -5.619808   -0.990406
     94          1           0       -3.848215   -3.474858   -0.268962
     95          1           0       -2.375008   -6.547894    2.377571
     96          1           0       -2.056935   -4.968290    3.486611
     97          1           0       -3.623456   -5.662871    3.365373
     98          1           0        2.755336   -2.196652   -1.327747
     99          1           0        2.637636   -0.658737   -2.288031
    100          1           0        4.130624   -1.072945    0.435661
    101          1           0        5.488321    1.824568   -2.077698
    102          1           0        5.314935    0.469023   -3.462258
    103          1           0        3.859124    1.017706   -2.691129
    104          1           0        6.248244    1.318290   -0.320651
    105          1           0        6.189873   -0.283038    0.564870
    106          1           0        7.406711   -1.518780   -1.181728
    107          1           0        7.579367    0.109460   -2.102928
    108          1           0        8.858096    0.837063    0.096453
    109          1           0        8.552605   -0.829467    0.726875
    110          1           0       10.166033   -0.246113   -1.724692
    111          1           0        9.261794   -2.993845   -1.245508
    112          1           0       10.732368   -2.744052   -1.740619
    113          1           0       10.057618   -2.770452    0.030704
    114          1           0       11.314277    0.507177    0.587364
    115          1           0       11.029739   -0.741266    1.229573
    116          1           0       13.042421   -1.711020   -0.569722
    117          1           0       12.779259   -0.157729   -1.431111
    118          1           0       13.497597    1.058506    0.130800
    119          1           0       13.584161   -0.474503    1.300136
    120          1           0       14.902772    0.151101   -1.399939
    121          1           0       14.909686   -2.267423   -1.180915
    122          1           0       16.507742   -1.610460   -0.823928
    123          1           0       15.725169   -2.157177    0.507531
    124          1           0       15.710050    1.729973    0.324682
    125          1           0       16.423094    0.580134    1.470778
    126          1           0       18.120044   -0.410939   -0.232746
    127          1           0       17.580139    1.007957   -1.439726
    128          1           0       18.066920    2.578430    0.263018
    129          1           0       18.694989    1.442240    1.579538
    130          1           0       20.501731    0.531754    0.168190
    131          1           0       19.596145    3.191278   -1.582294
    132          1           0       21.247497    2.385213   -1.792940
    133          1           0       19.901309    1.404004   -2.019856
    134          1           0       21.060817    2.105407    2.083379
    135          1           0       22.050738    2.682436    0.650180
    136          1           0       20.258700    3.726994    1.278182
    137          1           0       -7.250992    1.741072    0.287493
    138          1           0       -7.454154   -0.213629   -0.234553
 ---------------------------------------------------------------------

 SCF Done:  E(RB3LYP) =  -2732.96884845     A.U. after   17 cycles

 Excitation energies and oscillator strengths:

 Excited State   1:      Singlet-A      2.0436 eV  606.68 nm  f=0.1855  <S**2>=0.000
     235 -> 237       -0.11545
     235 -> 238       -0.28515
     236 -> 237        0.63174
 This state for optimization and/or second-order correction.
 Total Energy, E(TD-HF/TD-DFT) =  -2732.89374611
 Copying the excited state density for this state as the 1-particle RhoCI density.

 The electronic state is 1-A.
 Alpha  occ. eigenvalues --  -19.18264 -19.17169 -19.12685 -19.12048 -19.11240
 Alpha  occ. eigenvalues --  -14.37386 -14.37158 -14.32189 -14.29998 -10.31660
 Alpha  occ. eigenvalues --  -10.31409 -10.28317 -10.25859 -10.24659 -10.23953
 Alpha  occ. eigenvalues --  -10.23516 -10.23302 -10.23218 -10.23057 -10.22995
 Alpha  occ. eigenvalues --  -10.21622 -10.21584 -10.21508 -10.21408 -10.21336
 Alpha  occ. eigenvalues --  -10.21271 -10.21181 -10.21063 -10.21019 -10.20757
 Alpha  occ. eigenvalues --  -10.20739 -10.20607 -10.20600 -10.20422 -10.20296
 Alpha  occ. eigenvalues --  -10.20295 -10.20287 -10.20016 -10.19964 -10.19897
 Alpha  occ. eigenvalues --  -10.19862 -10.19719 -10.19706 -10.19672 -10.19651
 Alpha  occ. eigenvalues --  -10.19381 -10.19286 -10.19279 -10.19269 -10.19108
 Alpha  occ. eigenvalues --  -10.19051 -10.19042 -10.19000 -10.18827 -10.18564
 Alpha  occ. eigenvalues --  -10.18425 -10.18409 -10.18330 -10.18233 -10.17877
 Alpha  occ. eigenvalues --  -10.17604 -10.17584 -10.17339 -10.17295  -1.10546
 Alpha  occ. eigenvalues --   -1.07840  -1.03799  -0.99948  -0.99565  -0.98593
 Alpha  occ. eigenvalues --   -0.97805  -0.93882  -0.93487  -0.84803  -0.84058
 Alpha  occ. eigenvalues --   -0.83589  -0.81358  -0.80691  -0.80560  -0.80486
 Alpha  occ. eigenvalues --   -0.80192  -0.79572  -0.79366  -0.78944  -0.78176
 Alpha  occ. eigenvalues --   -0.77325  -0.76352  -0.75978  -0.75259  -0.74913
 Alpha  occ. eigenvalues --   -0.73599  -0.73514  -0.72820  -0.72555  -0.70928
 Alpha  occ. eigenvalues --   -0.69943  -0.69688  -0.68883  -0.68467  -0.67963
 Alpha  occ. eigenvalues --   -0.67633  -0.67109  -0.66876  -0.66034  -0.65639
 Alpha  occ. eigenvalues --   -0.63956  -0.63018  -0.61802  -0.61001  -0.60844
 Alpha  occ. eigenvalues --   -0.60471  -0.59383  -0.58575  -0.58345  -0.57288
 Alpha  occ. eigenvalues --   -0.57128  -0.56700  -0.56388  -0.56177  -0.55853
 Alpha  occ. eigenvalues --   -0.55366  -0.54615  -0.53927  -0.53692  -0.53251
 Alpha  occ. eigenvalues --   -0.52722  -0.52409  -0.52381  -0.51546  -0.51018
 Alpha  occ. eigenvalues --   -0.50187  -0.49952  -0.49701  -0.49164  -0.49013
 Alpha  occ. eigenvalues --   -0.48728  -0.47948  -0.47580  -0.47229  -0.46926
 Alpha  occ. eigenvalues --   -0.46773  -0.46713  -0.46587  -0.46368  -0.46179
 Alpha  occ. eigenvalues --   -0.45686  -0.45380  -0.45025  -0.44915  -0.44888
 Alpha  occ. eigenvalues --   -0.44643  -0.44339  -0.44028  -0.44000  -0.43988
 Alpha  occ. eigenvalues --   -0.43713  -0.43632  -0.43375  -0.43293  -0.42659
 Alpha  occ. eigenvalues --   -0.42437  -0.42374  -0.42137  -0.41951  -0.41740
 Alpha  occ. eigenvalues --   -0.41462  -0.41285  -0.40791  -0.40467  -0.40248
 Alpha  occ. eigenvalues --   -0.40232  -0.40076  -0.39685  -0.39523  -0.39487
 Alpha  occ. eigenvalues --   -0.39189  -0.39041  -0.38844  -0.38674  -0.38538
 Alpha  occ. eigenvalues --   -0.38438  -0.38258  -0.37973  -0.37915  -0.37825
 Alpha  occ. eigenvalues --   -0.37582  -0.37131  -0.37015  -0.36688  -0.36553
 Alpha  occ. eigenvalues --   -0.36457  -0.36222  -0.36062  -0.35845  -0.35572
 Alpha  occ. eigenvalues --   -0.35382  -0.35307  -0.35120  -0.35074  -0.34707
 Alpha  occ. eigenvalues --   -0.34487  -0.33965  -0.33522  -0.33403  -0.32930
 Alpha  occ. eigenvalues --   -0.32901  -0.32647  -0.32491  -0.32392  -0.31700
 Alpha  occ. eigenvalues --   -0.31616  -0.31299  -0.31261  -0.31147  -0.31059
 Alpha  occ. eigenvalues --   -0.30706  -0.30423  -0.30285  -0.30118  -0.29845
 Alpha  occ. eigenvalues --   -0.29174  -0.27978  -0.27673  -0.27443  -0.27350
 Alpha  occ. eigenvalues --   -0.27279  -0.27037  -0.26909  -0.26471  -0.26183
 Alpha  occ. eigenvalues --   -0.25731  -0.25187  -0.24406  -0.22455  -0.19669
 Alpha  occ. eigenvalues --   -0.19004
 Alpha virt. eigenvalues --   -0.10520  -0.07226  -0.04510  -0.01389  -0.00445
 Alpha virt. eigenvalues --   -0.00371   0.00165   0.00290   0.02125   0.02845
 Alpha virt. eigenvalues --    0.03534   0.04004   0.04021   0.04154   0.04776

 Mulliken charges:
               1
     1  C    0.031716
     2  C   -0.037176
     3  C    0.067898
     4  C   -0.043590
     5  N   -0.181164
     6  C   -0.044778
     7  C   -0.050261
     8  C   -0.071245
     9  C    0.097285
    10  C    0.044790
    11  C   -0.039910
    12  C    0.103659
    13  C    0.172686
    14  O   -0.258684
    15  O   -0.266234
    16  N   -0.116294
    17  C    0.106090
    18  C   -0.162174
    19  C    0.004099
    20  C    0.144770
    21  C    0.076436
    22  C    0.032307
    23  C   -0.088768
    24  N   -0.235443
    25  C    0.021020
    26  C   -0.176119
    27  C   -0.112497
    28  C    0.112252
    29  C    0.139975
    30  C    0.095899
    31  C   -0.016964
    32  N    0.018538
    33  C    0.047077
    34  C   -0.147321
    35  C    0.032250
    36  C   -0.005670
    37  C    0.055829
    38  C    0.065137
    39  O   -0.141926
    40  C    0.082281
    41  C    0.193801
    42  O   -0.264841
    43  O   -0.323921
    44  C    0.214661
    45  C    0.224523
    46  C   -0.074574
    47  C   -0.140604
    48  C    0.021943
    49  C    0.035171
    50  C    0.044747
    51  C   -0.023392
    52  C   -0.070174
    53  C    0.048760
    54  C    0.070910
    55  C    0.096592
    56  C   -0.004979
    57  C   -0.062121
    58  C    0.091527
    59  C    0.052666
    60  C   -0.069392
    61  C    0.051872
    62  C   -0.184423
    63  C    0.034372
    64  C   -0.058150
    65  H   -0.055078
    66  H   -0.206320
    67  H   -0.076211
    68  H   -0.008714
    69  H   -0.025113
    70  H    0.006615
    71  H    0.017707
    72  H    0.052038
    73  H    0.046707
    74  H    0.031222
    75  H   -0.037170
    76  H    0.045123
    77  H    0.002356
    78  H    0.021258
    79  H    0.063682
    80  H   -0.015615
    81  H    0.019492
    82  H    0.038438
    83  H    0.055006
    84  H   -0.020136
    85  H    0.022172
    86  H   -0.009695
    87  H    0.007182
    88  H    0.014692
    89  H    0.026716
    90  H    0.029249
    91  H    0.010793
    92  H    0.022489
    93  H    0.050261
    94  H    0.009477
    95  H    0.056322
    96  H    0.033204
    97  H    0.007027
    98  H    0.033610
    99  H    0.027568
   100  H    0.004680
   101  H    0.029772
   102  H    0.053859
   103  H    0.013443
   104  H    0.008353
   105  H   -0.018507
   106  H    0.006665
   107  H    0.005359
   108  H    0.000821
   109  H   -0.018549
   110  H   -0.000865
   111  H   -0.015478
   112  H    0.013564
   113  H   -0.012045
   114  H   -0.049424
   115  H   -0.013972
   116  H   -0.007241
   117  H   -0.022311
   118  H   -0.008716
   119  H   -0.010361
   120  H   -0.010389
   121  H    0.026267
   122  H   -0.024169
   123  H   -0.008190
   124  H   -0.014448
   125  H    0.006842
   126  H    0.023644
   127  H    0.022920
   128  H   -0.009350
   129  H    0.010187
   130  H    0.004179
   131  H    0.022134
   132  H    0.008034
   133  H    0.010881
   134  H    0.023640
   135  H    0.041225
   136  H    0.032768
   137  H    0.177958
   138  H    0.139723
 Sum of Mulliken charges =  -0.00000

 Dipole moment (field-independent basis, Debye):
    X=              3.3571    Y=              4.3871    Z=              0.2436  Tot=              5.5295
 Quadrupole moment (field-independent basis, Debye-Ang):
   XX=           -361.4371   YY=           -383.7399   ZZ=           -396.3688
   XY=            -27.4121   XZ=             13.2060   YZ=             -3.5893

 Normal termination of Gaussian 16 at Tue Aug 13 23:49:00 2019.
