 Gaussian 16, Revision A.03,
 Gaussian 16:  ES64L-G16RevA.03 25-Dec-2016

 --------------------------
 # td=(NStates=1) B3LYP/SVP
 --------------------------

 --
 TD
 --
 Symbolic Z-matrix:
 Charge =  0 Multiplicity = 1

                         Standard orientation:
 ---------------------------------------------------------------------
 Center     Atomic      Atomic             Coordinates (Angstroms)
 Number     Number       Type             X           Y           Z
 ---------------------------------------------------------------------
      1          6           0       -5.119605   -1.885490    0.302600
      2          6           0       -4.698905    2.791031    1.395632
      3          6           0       -9.359470    3.420458   -0.085971
      4          6           0       -9.867200   -1.465259   -0.769097
      5          7           0       -5.205757    0.435264    0.796659
      6          6           0       -4.553154   -0.729708    0.775691
      7          6           0       -3.126982   -0.666622    1.327315
      8          6           0       -3.192830    0.864309    2.015369
      9          6           0       -4.438742    1.402800    1.339442
     10          6           0       -3.095308    0.936308    3.545136
     11          6           0       -2.093627   -0.771757    0.206332
     12          6           0       -0.537476   -0.884429    0.763285
     13          6           0        0.428459   -1.152503   -0.381531
     14          8           0        0.164769   -1.746144   -1.426696
     15          8           0        1.577011   -0.850351    0.015062
     16          7           0       -6.972847    2.713574    0.584955
     17          6           0       -5.932896    3.418118    0.890947
     18          6           0       -6.141928    4.803583    0.932262
     19          6           0       -7.368306    4.995377    0.405044
     20          6           0       -8.048934    3.738353    0.263123
     21          6           0       -5.030982    5.787696    1.399849
     22          6           0       -7.874537    6.345997    0.119168
     23          6           0       -9.130565    6.658799   -0.516016
     24          7           0       -9.229995    0.879042   -0.364594
     25          6           0       -9.929480    2.080926   -0.546546
     26          6           0      -11.274771    1.983846   -1.034501
     27          6           0      -11.437213    0.654841   -1.157929
     28          6           0      -10.140844   -0.033309   -0.788880
     29          6           0      -12.209352    2.968030   -1.332559
     30          6           0      -12.681235   -0.040355   -1.713443
     31          6           0      -12.490688   -0.642034   -3.260102
     32          7           0       -7.523393   -1.256385   -0.285670
     33          6           0       -8.582349   -2.057260   -0.584088
     34          6           0       -8.240435   -3.400845   -0.662048
     35          6           0       -6.877706   -3.371914   -0.214790
     36          6           0       -6.445277   -2.079981   -0.051189
     37          6           0       -9.097712   -4.626079   -1.096766
     38          6           0       -5.634174   -4.179932   -0.093442
     39          8           0       -5.628082   -5.439476   -0.337331
     40          6           0       -4.466940   -3.340376    0.296472
     41          6           0       -3.867388   -3.817109    1.566384
     42          8           0       -4.211242   -3.539006    2.687748
     43          8           0       -2.933117   -4.701050    1.306221
     44          6           0       -2.323969   -5.358698    2.510479
     45          6           0        2.688263   -1.189954   -0.835628
     46          6           0        4.055392   -0.920736   -0.368024
     47          6           0        4.963184   -0.005491   -0.771645
     48          6           0        4.735706    0.817721   -2.112613
     49          6           0        6.211735    0.185323   -0.085050
     50          6           0        7.380958   -0.463033   -0.885470
     51          6           0        8.669651   -0.170229   -0.043700
     52          6           0       10.067440   -0.654708   -0.701050
     53          6           0        9.910818   -2.129166   -0.731640
     54          6           0       11.227240   -0.311221    0.090719
     55          6           0       12.605233   -0.777745   -0.416451
     56          6           0       13.866929   -0.057807    0.159505
     57          6           0       15.201157   -0.341828   -0.343904
     58          6           0       15.601005   -1.746435   -0.402083
     59          6           0       16.261245    0.680268    0.267437
     60          6           0       17.667243    0.860999   -0.307070
     61          6           0       18.605529    1.687904    0.458034
     62          6           0       20.077238    1.728184   -0.060406
     63          6           0       20.212670    2.070030   -1.551129
     64          6           0       20.842846    2.735867    0.730586
     65          1           0       -4.096540    3.541762    1.741904
     66          1           0      -10.062837    4.165093   -0.376565
     67          1           0      -10.631881   -2.109815   -1.233536
     68          1           0       -2.956755   -1.328859    2.144069
     69          1           0       -2.136874    1.347044    1.919880
     70          1           0       -2.322454    0.297660    3.965407
     71          1           0       -3.207876    2.029297    3.612830
     72          1           0       -4.196745    0.474470    4.105806
     73          1           0       -2.281607   -1.631870   -0.480244
     74          1           0       -2.144849    0.057002   -0.585109
     75          1           0       -0.239724   -0.003113    1.465036
     76          1           0       -0.469902   -1.897058    1.365499
     77          1           0       -4.051002    5.597694    0.669771
     78          1           0       -5.366715    6.843777    1.538992
     79          1           0       -4.891936    5.592104    2.464353
     80          1           0       -7.404503    7.332939    0.337938
     81          1           0      -10.032649    5.848855   -1.016504
     82          1           0       -9.522589    7.697953   -0.699537
     83          1           0      -12.113840    3.806150   -0.535742
     84          1           0      -11.800398    3.615943   -2.322705
     85          1           0      -13.177650    2.663670   -1.403072
     86          1           0      -12.931889   -1.028021   -1.257997
     87          1           0      -13.584259    0.681891   -1.609767
     88          1           0      -12.290717    0.338075   -3.818889
     89          1           0      -11.557855   -1.423162   -3.470488
     90          1           0      -13.197613   -1.188693   -3.683771
     91          1           0      -10.064669   -4.695820   -0.366849
     92          1           0       -9.662826   -4.330938   -2.115650
     93          1           0       -8.504076   -5.473898   -1.139702
     94          1           0       -3.695525   -3.422039   -0.600486
     95          1           0       -1.587332   -6.130571    2.027981
     96          1           0       -1.852029   -4.640870    3.267569
     97          1           0       -3.200052   -5.821808    2.945477
     98          1           0        2.660002   -2.376253   -0.906743
     99          1           0        2.589083   -0.742037   -1.938420
    100          1           0        4.316026   -1.381239    0.642763
    101          1           0        5.074459    1.760819   -2.060514
    102          1           0        5.280588    0.344695   -2.912939
    103          1           0        3.520897    0.984589   -2.328552
    104          1           0        6.540690    1.244814   -0.046364
    105          1           0        6.386393   -0.033978    0.937461
    106          1           0        7.309942   -1.400063   -1.264225
    107          1           0        7.410039    0.046852   -1.744737
    108          1           0        8.697951    0.922654    0.135232
    109          1           0        8.749422   -0.413144    1.067700
    110          1           0       10.250605   -0.170915   -1.787976
    111          1           0        9.025746   -2.480401   -1.376526
    112          1           0       10.911736   -2.499250   -1.203219
    113          1           0        9.941525   -2.734023    0.085044
    114          1           0       11.102306    0.907540    0.202025
    115          1           0       11.039612   -0.848513    1.093514
    116          1           0       12.660251   -1.972225   -0.247432
    117          1           0       12.622954   -0.472656   -1.463171
    118          1           0       13.864607    1.187394   -0.003974
    119          1           0       13.938122   -0.345111    1.134848
    120          1           0       15.278908   -0.135283   -1.510246
    121          1           0       14.940142   -2.401279   -1.092448
    122          1           0       16.525043   -1.945257   -0.689296
    123          1           0       15.574711   -2.173734    0.700263
    124          1           0       15.999877    1.728329    0.500127
    125          1           0       16.450171    0.166899    1.272536
    126          1           0       18.020988   -0.157722   -0.425731
    127          1           0       17.583167    1.089724   -1.259723
    128          1           0       18.200072    2.760450    0.456625
    129          1           0       18.466057    1.578183    1.531996
    130          1           0       20.530211    0.677778   -0.072962
    131          1           0       19.945825    3.136201   -1.721391
    132          1           0       21.144882    2.145433   -1.927228
    133          1           0       19.606828    1.404284   -2.291448
    134          1           0       20.873794    2.431858    1.831428
    135          1           0       21.792883    2.924617    0.477264
    136          1           0       20.348855    3.677890    0.624825
    137          1           0       -7.184018    1.744592    0.399549
    138          1           0       -7.797734   -0.248144    0.110384
 ---------------------------------------------------------------------

 SCF Done:  E(RB3LYP) =  -2732.98931691     A.U. after   17 cycles

 Excitation energies and oscillator strengths:

 Excited State   1:      Singlet-A      1.9704 eV  629.24 nm  f=0.1571  <S**2>=0.000
     235 -> 237       -0.19346
     235 -> 238       -0.30345
     236 -> 237        0.59317
     236 -> 238       -0.12631
 This state for optimization and/or second-order correction.
 Total Energy, E(TD-HF/TD-DFT) =  -2732.91690720
 Copying the excited state density for this state as the 1-particle RhoCI density.

 The electronic state is 1-A.
 Alpha  occ. eigenvalues --  -19.19067 -19.17685 -19.11632 -19.10739 -19.10738
 Alpha  occ. eigenvalues --  -14.37006 -14.35667 -14.31772 -14.31304 -10.31017
 Alpha  occ. eigenvalues --  -10.30730 -10.27112 -10.26299 -10.25829 -10.24357
 Alpha  occ. eigenvalues --  -10.23668 -10.23200 -10.22798 -10.22592 -10.22551
 Alpha  occ. eigenvalues --  -10.22447 -10.22374 -10.22253 -10.22244 -10.22122
 Alpha  occ. eigenvalues --  -10.21944 -10.21576 -10.21393 -10.21245 -10.21126
 Alpha  occ. eigenvalues --  -10.21115 -10.21071 -10.20858 -10.20769 -10.20476
 Alpha  occ. eigenvalues --  -10.20401 -10.20345 -10.20304 -10.20134 -10.20102
 Alpha  occ. eigenvalues --  -10.19869 -10.19754 -10.19726 -10.19573 -10.19572
 Alpha  occ. eigenvalues --  -10.19493 -10.19424 -10.19414 -10.19384 -10.19139
 Alpha  occ. eigenvalues --  -10.19052 -10.19015 -10.18692 -10.18582 -10.18546
 Alpha  occ. eigenvalues --  -10.18406 -10.18237 -10.18234 -10.17887 -10.17876
 Alpha  occ. eigenvalues --  -10.17569 -10.17429 -10.16805 -10.16156  -1.12871
 Alpha  occ. eigenvalues --   -1.09833  -0.99925  -0.99149  -0.98597  -0.98213
 Alpha  occ. eigenvalues --   -0.97401  -0.94172  -0.93408  -0.84838  -0.83658
 Alpha  occ. eigenvalues --   -0.82828  -0.82714  -0.81891  -0.81210  -0.80766
 Alpha  occ. eigenvalues --   -0.79868  -0.79251  -0.78867  -0.78172  -0.77770
 Alpha  occ. eigenvalues --   -0.76607  -0.76391  -0.75376  -0.75107  -0.73861
 Alpha  occ. eigenvalues --   -0.73314  -0.72866  -0.72483  -0.71755  -0.70506
 Alpha  occ. eigenvalues --   -0.69719  -0.69184  -0.68813  -0.68541  -0.68274
 Alpha  occ. eigenvalues --   -0.68021  -0.67681  -0.66983  -0.65818  -0.65299
 Alpha  occ. eigenvalues --   -0.64377  -0.63604  -0.61930  -0.61569  -0.61220
 Alpha  occ. eigenvalues --   -0.61017  -0.60531  -0.58530  -0.58084  -0.57565
 Alpha  occ. eigenvalues --   -0.57034  -0.56634  -0.56622  -0.56031  -0.55202
 Alpha  occ. eigenvalues --   -0.54550  -0.54460  -0.53726  -0.53399  -0.52957
 Alpha  occ. eigenvalues --   -0.52831  -0.52120  -0.51202  -0.50928  -0.50712
 Alpha  occ. eigenvalues --   -0.49993  -0.49383  -0.48764  -0.48526  -0.48383
 Alpha  occ. eigenvalues --   -0.47575  -0.47341  -0.47221  -0.46992  -0.46833
 Alpha  occ. eigenvalues --   -0.46766  -0.46484  -0.46285  -0.46003  -0.45677
 Alpha  occ. eigenvalues --   -0.45474  -0.45244  -0.45049  -0.44987  -0.44653
 Alpha  occ. eigenvalues --   -0.44367  -0.44359  -0.44170  -0.44053  -0.43639
 Alpha  occ. eigenvalues --   -0.43512  -0.43316  -0.42938  -0.42837  -0.42355
 Alpha  occ. eigenvalues --   -0.42225  -0.42051  -0.41988  -0.41616  -0.41306
 Alpha  occ. eigenvalues --   -0.41176  -0.41066  -0.40721  -0.40484  -0.40335
 Alpha  occ. eigenvalues --   -0.40267  -0.40111  -0.39986  -0.39687  -0.39236
 Alpha  occ. eigenvalues --   -0.38930  -0.38639  -0.38448  -0.38426  -0.38148
 Alpha  occ. eigenvalues --   -0.38009  -0.37730  -0.37640  -0.37604  -0.37444
 Alpha  occ. eigenvalues --   -0.37387  -0.37226  -0.36998  -0.36869  -0.36628
 Alpha  occ. eigenvalues --   -0.36513  -0.36222  -0.36046  -0.35929  -0.35858
 Alpha  occ. eigenvalues --   -0.35603  -0.35366  -0.35120  -0.34563  -0.34338
 Alpha  occ. eigenvalues --   -0.34121  -0.34100  -0.33906  -0.33630  -0.33500
 Alpha  occ. eigenvalues --   -0.33167  -0.32940  -0.32881  -0.32748  -0.32580
 Alpha  occ. eigenvalues --   -0.32409  -0.32118  -0.31858  -0.31640  -0.31610
 Alpha  occ. eigenvalues --   -0.31194  -0.30665  -0.30363  -0.30245  -0.29662
 Alpha  occ. eigenvalues --   -0.28947  -0.28723  -0.28523  -0.28122  -0.27916
 Alpha  occ. eigenvalues --   -0.27480  -0.27116  -0.26434  -0.25746  -0.25178
 Alpha  occ. eigenvalues --   -0.24709  -0.24084  -0.23833  -0.23168  -0.19824
 Alpha  occ. eigenvalues --   -0.18681
 Alpha virt. eigenvalues --   -0.10434  -0.08382  -0.04303  -0.02571  -0.01331
 Alpha virt. eigenvalues --   -0.00526   0.00896   0.01209   0.02490   0.02612
 Alpha virt. eigenvalues --    0.03941   0.03989   0.04211   0.04363   0.04475

 Mulliken charges:
               1
     1  C    0.012991
     2  C   -0.039965
     3  C   -0.019505
     4  C   -0.048696
     5  N   -0.147538
     6  C   -0.121902
     7  C    0.016674
     8  C   -0.107813
     9  C    0.104127
    10  C    0.011335
    11  C    0.028354
    12  C   -0.031906
    13  C    0.148411
    14  O   -0.272126
    15  O   -0.210789
    16  N   -0.049525
    17  C    0.044274
    18  C   -0.161382
    19  C    0.105634
    20  C    0.121900
    21  C    0.079727
    22  C   -0.054934
    23  C   -0.145083
    24  N   -0.271051
    25  C    0.000823
    26  C   -0.075314
    27  C   -0.062697
    28  C    0.042206
    29  C    0.074234
    30  C    0.013842
    31  C   -0.041107
    32  N   -0.083711
    33  C    0.047237
    34  C   -0.139851
    35  C    0.004942
    36  C    0.097779
    37  C    0.081833
    38  C    0.030919
    39  O   -0.247966
    40  C    0.013469
    41  C    0.195223
    42  O   -0.233104
    43  O   -0.295160
    44  C    0.152743
    45  C    0.214612
    46  C   -0.110542
    47  C   -0.114788
    48  C    0.060778
    49  C    0.094590
    50  C    0.137674
    51  C   -0.011333
    52  C   -0.066462
    53  C    0.036373
    54  C   -0.021497
    55  C    0.028378
    56  C    0.061940
    57  C   -0.064439
    58  C    0.054708
    59  C   -0.034450
    60  C    0.144036
    61  C    0.036422
    62  C   -0.083491
    63  C    0.037132
    64  C    0.104198
    65  H   -0.073233
    66  H   -0.071675
    67  H   -0.016141
    68  H   -0.004021
    69  H    0.006450
    70  H    0.038048
    71  H    0.022530
    72  H    0.014295
    73  H    0.022940
    74  H    0.016712
    75  H    0.044750
    76  H    0.049422
    77  H    0.078326
    78  H    0.014622
    79  H    0.030152
    80  H    0.019199
    81  H    0.059970
    82  H    0.039941
    83  H    0.029702
    84  H    0.042873
    85  H   -0.012989
    86  H    0.014662
    87  H    0.023438
    88  H    0.029940
    89  H    0.030012
    90  H   -0.009356
    91  H    0.045530
    92  H    0.038999
    93  H    0.034644
    94  H    0.094550
    95  H    0.062988
    96  H    0.056679
    97  H    0.044673
    98  H    0.035753
    99  H    0.046731
   100  H   -0.004324
   101  H   -0.017259
   102  H    0.035976
   103  H    0.044630
   104  H   -0.010881
   105  H   -0.016223
   106  H   -0.030896
   107  H   -0.050994
   108  H   -0.030061
   109  H   -0.004973
   110  H    0.006571
   111  H    0.015973
   112  H   -0.003920
   113  H   -0.021142
   114  H    0.010023
   115  H   -0.004307
   116  H    0.037483
   117  H   -0.011950
   118  H    0.021891
   119  H   -0.038899
   120  H   -0.021118
   121  H    0.026653
   122  H   -0.032429
   123  H   -0.010172
   124  H   -0.005014
   125  H   -0.012507
   126  H   -0.040331
   127  H   -0.056699
   128  H   -0.023506
   129  H   -0.022050
   130  H    0.003976
   131  H   -0.018801
   132  H   -0.030153
   133  H    0.024323
   134  H    0.008518
   135  H   -0.032558
   136  H   -0.010338
   137  H    0.142327
   138  H    0.210653
 Sum of Mulliken charges =  -0.00000

 Dipole moment (field-independent basis, Debye):
    X=              3.8693    Y=              5.8791    Z=              0.6914  Tot=              7.0720
 Quadrupole moment (field-independent basis, Debye-Ang):
   XX=           -325.3368   YY=           -380.3005   ZZ=           -398.1501
   XY=            -31.0433   XZ=              8.7230   YZ=             -4.6197

 Normal termination of Gaussian 16 at Mon Aug 12 21:52:28 2019.
