 Gaussian 16, Revision A.03,
 Gaussian 16:  ES64L-G16RevA.03 25-Dec-2016

 --------------------------
 # td=(NStates=1) B3LYP/SVP
 --------------------------

 --
 TD
 --
 Symbolic Z-matrix:
 Charge =  0 Multiplicity = 1

                         Standard orientation:
 ---------------------------------------------------------------------
 Center     Atomic      Atomic             Coordinates (Angstroms)
 Number     Number       Type             X           Y           Z
 ---------------------------------------------------------------------
      1          6           0       -5.226281   -2.003765    0.509200
      2          6           0       -4.790867    2.686876    1.497926
      3          6           0       -9.323747    3.364080   -0.127138
      4          6           0       -9.895335   -1.421104   -1.077838
      5          7           0       -5.206160    0.374307    0.880162
      6          6           0       -4.575224   -0.774892    0.850550
      7          6           0       -3.025724   -0.590806    1.308997
      8          6           0       -3.098773    0.802762    1.897877
      9          6           0       -4.453731    1.301215    1.447783
     10          6           0       -3.011633    0.970389    3.533317
     11          6           0       -2.048142   -0.774072    0.148803
     12          6           0       -0.625689   -0.780727    0.539336
     13          6           0        0.312826   -0.878790   -0.624899
     14          8           0       -0.073856   -1.303797   -1.721174
     15          8           0        1.541056   -0.625737   -0.308300
     16          7           0       -7.139501    2.673599    0.553062
     17          6           0       -5.955200    3.347205    1.114712
     18          6           0       -6.242217    4.793781    1.159971
     19          6           0       -7.486681    4.959053    0.664719
     20          6           0       -8.019946    3.692427    0.318955
     21          6           0       -5.161642    5.750243    1.619037
     22          6           0       -8.159227    6.257902    0.461481
     23          6           0       -8.937219    6.694504   -0.569904
     24          7           0       -9.182938    0.906369   -0.626285
     25          6           0       -9.812504    2.133198   -0.644927
     26          6           0      -11.215430    1.906902   -1.152616
     27          6           0      -11.382995    0.569479   -1.247999
     28          6           0      -10.099887    0.043258   -0.976255
     29          6           0      -12.142546    3.033694   -1.258487
     30          6           0      -12.645772   -0.104563   -1.723365
     31          6           0      -12.593238   -0.590026   -3.216981
     32          7           0       -7.568484   -1.303953   -0.256643
     33          6           0       -8.654871   -2.075961   -0.726000
     34          6           0       -8.240467   -3.470739   -0.508039
     35          6           0       -6.931763   -3.461826   -0.101914
     36          6           0       -6.549851   -2.090522    0.085137
     37          6           0       -9.022416   -4.652017   -1.127614
     38          6           0       -5.848940   -4.337550    0.067819
     39          8           0       -5.738231   -5.539446    0.061930
     40          6           0       -4.666789   -3.412918    0.522872
     41          6           0       -3.979296   -3.917028    1.756817
     42          8           0       -4.125676   -3.516546    2.890783
     43          8           0       -2.929648   -4.831231    1.490845
     44          6           0       -2.326507   -5.532936    2.575288
     45          6           0        2.625292   -0.805835   -1.255289
     46          6           0        3.920997   -0.521418   -0.551121
     47          6           0        4.990337    0.254505   -1.044163
     48          6           0        4.869071    0.903497   -2.374109
     49          6           0        6.209193    0.331095   -0.324370
     50          6           0        7.647142   -0.122033   -0.965232
     51          6           0        8.878669   -0.212942   -0.056913
     52          6           0       10.106988   -0.773880   -0.753976
     53          6           0       10.027771   -2.204043   -1.229999
     54          6           0       11.401007   -0.409189   -0.030796
     55          6           0       12.706834   -0.593607   -0.629259
     56          6           0       13.857797   -0.150597    0.246172
     57          6           0       15.190139   -0.318235   -0.343957
     58          6           0       15.703896   -1.775046   -0.457980
     59          6           0       16.287482    0.541388    0.451224
     60          6           0       17.682178    0.734166   -0.134523
     61          6           0       18.646538    1.560117    0.658213
     62          6           0       20.087569    1.614074    0.111318
     63          6           0       20.112204    2.179845   -1.273204
     64          6           0       20.997487    2.412306    0.986040
     65          1           0       -3.707485    3.466827    1.543028
     66          1           0       -9.951142    4.278605   -0.265967
     67          1           0      -10.672174   -2.164970   -1.257103
     68          1           0       -2.871238   -1.413404    2.027414
     69          1           0       -2.217721    1.459060    1.446234
     70          1           0       -1.882360    0.623564    3.997628
     71          1           0       -3.286439    1.986994    3.731118
     72          1           0       -3.669348    0.174303    3.891309
     73          1           0       -2.124904   -1.530937   -0.599769
     74          1           0       -2.250946    0.100899   -0.523077
     75          1           0       -0.483849    0.155241    1.306396
     76          1           0       -0.253362   -1.721883    1.172069
     77          1           0       -4.178522    5.284675    1.096714
     78          1           0       -5.457578    6.741928    1.499588
     79          1           0       -4.830849    5.298821    2.718299
     80          1           0       -7.721794    6.941278    1.177540
     81          1           0       -9.266681    6.013553   -1.281295
     82          1           0       -9.387891    7.698263   -0.480656
     83          1           0      -12.383944    3.440327   -0.255962
     84          1           0      -11.796252    4.062535   -1.920940
     85          1           0      -13.032113    2.655856   -1.678117
     86          1           0      -13.077315   -0.994732   -1.069218
     87          1           0      -13.751948    0.664557   -1.879889
     88          1           0      -12.483301    0.164420   -3.974261
     89          1           0      -11.805556   -1.240472   -3.377577
     90          1           0      -13.460758   -1.326542   -3.452296
     91          1           0       -9.822652   -4.803440   -0.522277
     92          1           0       -9.168954   -4.435273   -2.245525
     93          1           0       -8.401055   -5.562169   -1.161595
     94          1           0       -3.801872   -3.419162   -0.168408
     95          1           0       -2.028079   -6.676405    2.294038
     96          1           0       -1.562508   -4.586441    3.016143
     97          1           0       -3.128579   -5.862853    3.317998
     98          1           0        2.634981   -1.864610   -1.687778
     99          1           0        2.344761   -0.129945   -2.147148
    100          1           0        3.853679   -1.125085    0.329774
    101          1           0        5.237451    1.928632   -2.422427
    102          1           0        5.350583    0.154942   -3.107137
    103          1           0        3.686092    0.899712   -2.746775
    104          1           0        6.438560    1.468772   -0.066742
    105          1           0        6.260076   -0.074407    0.796348
    106          1           0        7.388921   -1.109964   -1.508931
    107          1           0        7.931410    0.492098   -1.923853
    108          1           0        9.136261    0.840416    0.534915
    109          1           0        8.645449   -0.759254    0.847878
    110          1           0       10.214507   -0.124210   -1.736645
    111          1           0        8.962405   -2.243210   -1.905564
    112          1           0       10.709249   -2.649153   -1.843628
    113          1           0        9.869797   -2.734175   -0.140578
    114          1           0       11.273293    0.631986    0.405272
    115          1           0       11.393634   -0.973230    1.070579
    116          1           0       12.769531   -1.775633   -0.951634
    117          1           0       12.747517    0.144606   -1.383737
    118          1           0       13.515658    0.878741    0.492905
    119          1           0       13.766718   -0.782601    1.171226
    120          1           0       15.266041    0.125622   -1.492848
    121          1           0       15.064392   -2.311621   -1.258588
    122          1           0       16.837631   -1.695506   -0.569482
    123          1           0       15.685828   -2.149923    0.694509
    124          1           0       15.912579    1.658414    0.625103
    125          1           0       16.527061    0.138988    1.523275
    126          1           0       18.086055   -0.275746   -0.632167
    127          1           0       17.388900    1.246306   -1.084324
    128          1           0       18.300956    2.519998    0.707083
    129          1           0       18.587190    1.087947    1.674294
    130          1           0       20.333716    0.623937   -0.015761
    131          1           0       19.758288    3.080733   -1.385719
    132          1           0       21.185875    2.271746   -1.756444
    133          1           0       19.848689    1.595753   -2.201697
    134          1           0       21.087960    1.709195    1.843557
    135          1           0       22.078172    2.438293    0.566902
    136          1           0       20.611342    3.441382    1.267203
    137          1           0       -7.311468    1.622019    0.379005
    138          1           0       -7.835359   -0.198580   -0.394729
 ---------------------------------------------------------------------

 SCF Done:  E(RB3LYP) =  -2733.03478086     A.U. after   16 cycles

 Excitation energies and oscillator strengths:

 Excited State   1:      Singlet-A      1.9953 eV  621.39 nm  f=0.1456  <S**2>=0.000
     235 -> 237       -0.10201
     235 -> 238        0.31240
     236 -> 237        0.61707
 This state for optimization and/or second-order correction.
 Total Energy, E(TD-HF/TD-DFT) =  -2732.96145547
 Copying the excited state density for this state as the 1-particle RhoCI density.

 The electronic state is 1-A.
 Alpha  occ. eigenvalues --  -19.18448 -19.16132 -19.12439 -19.12113 -19.11370
 Alpha  occ. eigenvalues --  -14.37423 -14.36731 -14.32494 -14.31567 -10.31657
 Alpha  occ. eigenvalues --  -10.31266 -10.27537 -10.26535 -10.26135 -10.24643
 Alpha  occ. eigenvalues --  -10.23742 -10.23721 -10.23567 -10.23496 -10.23420
 Alpha  occ. eigenvalues --  -10.22770 -10.22508 -10.22353 -10.22329 -10.21737
 Alpha  occ. eigenvalues --  -10.21720 -10.21557 -10.21387 -10.21352 -10.21323
 Alpha  occ. eigenvalues --  -10.21309 -10.21277 -10.21173 -10.21139 -10.21097
 Alpha  occ. eigenvalues --  -10.21084 -10.20740 -10.20624 -10.20540 -10.20427
 Alpha  occ. eigenvalues --  -10.20425 -10.20399 -10.20391 -10.20258 -10.20034
 Alpha  occ. eigenvalues --  -10.19926 -10.19887 -10.19743 -10.19659 -10.19616
 Alpha  occ. eigenvalues --  -10.19276 -10.19108 -10.19032 -10.18743 -10.18665
 Alpha  occ. eigenvalues --  -10.18610 -10.18595 -10.18562 -10.18515 -10.18292
 Alpha  occ. eigenvalues --  -10.18121 -10.18027 -10.17622 -10.16724  -1.10639
 Alpha  occ. eigenvalues --   -1.07303  -1.03128  -0.99433  -0.99324  -0.97935
 Alpha  occ. eigenvalues --   -0.96718  -0.96113  -0.95415  -0.85365  -0.83216
 Alpha  occ. eigenvalues --   -0.82717  -0.82537  -0.82037  -0.81324  -0.80618
 Alpha  occ. eigenvalues --   -0.80486  -0.80094  -0.79678  -0.78304  -0.77748
 Alpha  occ. eigenvalues --   -0.77037  -0.76513  -0.75519  -0.74999  -0.74221
 Alpha  occ. eigenvalues --   -0.73840  -0.72781  -0.72339  -0.72132  -0.71088
 Alpha  occ. eigenvalues --   -0.69857  -0.69496  -0.68254  -0.67917  -0.67911
 Alpha  occ. eigenvalues --   -0.67123  -0.67070  -0.66141  -0.65577  -0.65539
 Alpha  occ. eigenvalues --   -0.64450  -0.63121  -0.62735  -0.61879  -0.61412
 Alpha  occ. eigenvalues --   -0.60794  -0.58783  -0.58486  -0.57543  -0.57302
 Alpha  occ. eigenvalues --   -0.57075  -0.56149  -0.56078  -0.55107  -0.54971
 Alpha  occ. eigenvalues --   -0.54867  -0.54110  -0.53856  -0.53504  -0.53240
 Alpha  occ. eigenvalues --   -0.52580  -0.52199  -0.51973  -0.50543  -0.50173
 Alpha  occ. eigenvalues --   -0.50153  -0.49816  -0.49059  -0.48736  -0.48496
 Alpha  occ. eigenvalues --   -0.47978  -0.47323  -0.47247  -0.47225  -0.47053
 Alpha  occ. eigenvalues --   -0.46849  -0.46694  -0.46239  -0.46066  -0.45860
 Alpha  occ. eigenvalues --   -0.45670  -0.45161  -0.44854  -0.44593  -0.44473
 Alpha  occ. eigenvalues --   -0.44368  -0.44213  -0.43928  -0.43799  -0.43724
 Alpha  occ. eigenvalues --   -0.43616  -0.43551  -0.43321  -0.43159  -0.42850
 Alpha  occ. eigenvalues --   -0.42434  -0.42328  -0.42212  -0.41984  -0.41679
 Alpha  occ. eigenvalues --   -0.41590  -0.41244  -0.40869  -0.40847  -0.40524
 Alpha  occ. eigenvalues --   -0.40351  -0.39793  -0.39680  -0.39462  -0.39316
 Alpha  occ. eigenvalues --   -0.38988  -0.38837  -0.38496  -0.38429  -0.38323
 Alpha  occ. eigenvalues --   -0.38024  -0.37891  -0.37808  -0.37613  -0.37511
 Alpha  occ. eigenvalues --   -0.37253  -0.37170  -0.37091  -0.37077  -0.36986
 Alpha  occ. eigenvalues --   -0.36730  -0.36593  -0.36299  -0.36095  -0.35694
 Alpha  occ. eigenvalues --   -0.35445  -0.35354  -0.35268  -0.35052  -0.34412
 Alpha  occ. eigenvalues --   -0.34392  -0.33995  -0.33659  -0.33531  -0.33268
 Alpha  occ. eigenvalues --   -0.33142  -0.33027  -0.32749  -0.32636  -0.32175
 Alpha  occ. eigenvalues --   -0.31773  -0.31496  -0.31381  -0.31355  -0.31172
 Alpha  occ. eigenvalues --   -0.30768  -0.30546  -0.30371  -0.30355  -0.30090
 Alpha  occ. eigenvalues --   -0.29400  -0.28953  -0.28833  -0.28451  -0.28216
 Alpha  occ. eigenvalues --   -0.27570  -0.27263  -0.26876  -0.26798  -0.26151
 Alpha  occ. eigenvalues --   -0.25203  -0.24563  -0.24074  -0.23879  -0.20132
 Alpha  occ. eigenvalues --   -0.18758
 Alpha virt. eigenvalues --   -0.10358  -0.08440  -0.05013  -0.02341  -0.01921
 Alpha virt. eigenvalues --   -0.00810  -0.00579   0.00135   0.01718   0.01856
 Alpha virt. eigenvalues --    0.02953   0.03089   0.03512   0.04148   0.04584

 Mulliken charges:
               1
     1  C   -0.004806
     2  C   -0.135894
     3  C   -0.084617
     4  C   -0.042388
     5  N   -0.090750
     6  C   -0.120931
     7  C    0.030880
     8  C   -0.108225
     9  C   -0.027316
    10  C    0.028861
    11  C    0.068188
    12  C   -0.044743
    13  C    0.177409
    14  O   -0.278559
    15  O   -0.269088
    16  N   -0.154716
    17  C    0.126616
    18  C   -0.106463
    19  C    0.016410
    20  C    0.068592
    21  C    0.083043
    22  C   -0.060930
    23  C    0.019150
    24  N   -0.238289
    25  C    0.071012
    26  C   -0.113528
    27  C   -0.027462
    28  C    0.070860
    29  C    0.070452
    30  C   -0.084515
    31  C    0.038977
    32  N   -0.111896
    33  C   -0.002595
    34  C   -0.165331
    35  C    0.019112
    36  C    0.115111
    37  C    0.111551
    38  C    0.065788
    39  O   -0.156142
    40  C   -0.011824
    41  C    0.199557
    42  O   -0.214992
    43  O   -0.344877
    44  C    0.097744
    45  C    0.202039
    46  C   -0.083935
    47  C   -0.071069
    48  C    0.025464
    49  C    0.025803
    50  C   -0.051363
    51  C    0.027478
    52  C   -0.051495
    53  C    0.012546
    54  C   -0.056812
    55  C    0.079741
    56  C    0.059373
    57  C   -0.093181
    58  C   -0.000409
    59  C   -0.045422
    60  C   -0.029924
    61  C    0.095349
    62  C   -0.018454
    63  C    0.034841
    64  C    0.039102
    65  H    0.038294
    66  H   -0.018299
    67  H   -0.011857
    68  H    0.005402
    69  H    0.027497
    70  H    0.034707
    71  H    0.023355
    72  H    0.037815
    73  H    0.012233
    74  H   -0.003057
    75  H    0.040375
    76  H    0.050752
    77  H    0.048507
    78  H    0.019603
    79  H    0.050372
    80  H   -0.007531
    81  H    0.012538
    82  H    0.035235
    83  H    0.031854
    84  H    0.037067
    85  H   -0.011213
    86  H    0.035396
    87  H    0.032635
    88  H    0.015939
    89  H   -0.022243
    90  H    0.010166
    91  H    0.007774
    92  H    0.047227
    93  H    0.028576
    94  H    0.052110
    95  H    0.062398
    96  H    0.063152
    97  H    0.037449
    98  H    0.048027
    99  H    0.030102
   100  H   -0.012592
   101  H    0.033661
   102  H    0.048190
   103  H    0.029329
   104  H    0.014344
   105  H    0.020218
   106  H    0.020403
   107  H    0.009928
   108  H    0.011848
   109  H   -0.013752
   110  H   -0.010009
   111  H    0.018717
   112  H    0.009706
   113  H    0.022425
   114  H   -0.015683
   115  H   -0.025473
   116  H    0.021208
   117  H   -0.025954
   118  H   -0.008952
   119  H   -0.008651
   120  H    0.001872
   121  H    0.049367
   122  H    0.015903
   123  H    0.012711
   124  H    0.004882
   125  H   -0.003856
   126  H    0.006966
   127  H   -0.013044
   128  H   -0.036304
   129  H   -0.007995
   130  H   -0.038616
   131  H   -0.042397
   132  H   -0.015319
   133  H    0.001316
   134  H    0.002693
   135  H    0.017433
   136  H    0.026181
   137  H    0.183429
   138  H    0.215404
 Sum of Mulliken charges =  -0.00000

 Dipole moment (field-independent basis, Debye):
    X=              2.8161    Y=              4.8295    Z=             -0.3917  Tot=              5.6043
 Quadrupole moment (field-independent basis, Debye-Ang):
   XX=           -348.8786   YY=           -385.1815   ZZ=           -400.7790
   XY=            -19.9778   XZ=              5.7504   YZ=              2.6320

 Normal termination of Gaussian 16 at Sun Aug 18 14:07:22 2019.
