 Gaussian 16, Revision A.03,
 Gaussian 16:  ES64L-G16RevA.03 25-Dec-2016

 --------------------------
 # td=(NStates=1) B3LYP/SVP
 --------------------------

 --
 TD
 --
 Symbolic Z-matrix:
 Charge =  0 Multiplicity = 1

                         Standard orientation:
 ---------------------------------------------------------------------
 Center     Atomic      Atomic             Coordinates (Angstroms)
 Number     Number       Type             X           Y           Z
 ---------------------------------------------------------------------
      1          6           0       -5.089991   -1.954222    0.435759
      2          6           0       -4.637827    2.683201    1.488834
      3          6           0       -9.251240    3.428757   -0.235242
      4          6           0       -9.900203   -1.370623   -0.886106
      5          7           0       -5.127039    0.450674    0.855983
      6          6           0       -4.530159   -0.802675    0.803824
      7          6           0       -3.103355   -0.635616    1.181942
      8          6           0       -3.172113    0.717032    1.778337
      9          6           0       -4.385495    1.312029    1.329677
     10          6           0       -3.096423    0.679179    3.370887
     11          6           0       -2.127967   -0.883407    0.019157
     12          6           0       -0.571925   -0.844290    0.464084
     13          6           0        0.317861   -1.142386   -0.635122
     14          8           0        0.012995   -1.383845   -1.833101
     15          8           0        1.597880   -0.943751   -0.198688
     16          7           0       -6.913510    2.743619    0.521559
     17          6           0       -5.792251    3.377433    1.091340
     18          6           0       -6.129729    4.711400    1.119275
     19          6           0       -7.324889    5.016310    0.512677
     20          6           0       -7.915757    3.692831    0.118395
     21          6           0       -5.138412    5.762707    1.812967
     22          6           0       -8.039320    6.304185    0.478156
     23          6           0       -8.845550    6.726397   -0.499428
     24          7           0       -9.234913    0.979465   -0.434353
     25          6           0       -9.873160    2.139093   -0.471674
     26          6           0      -11.231844    2.091844   -1.071512
     27          6           0      -11.402386    0.791882   -1.223639
     28          6           0      -10.149898    0.064927   -0.785213
     29          6           0      -12.245696    3.272204   -1.066077
     30          6           0      -12.611531    0.163543   -1.743440
     31          6           0      -12.427640   -0.242541   -3.237953
     32          7           0       -7.533311   -1.243381   -0.297119
     33          6           0       -8.702814   -1.937444   -0.542973
     34          6           0       -8.222360   -3.412323   -0.612875
     35          6           0       -6.839153   -3.417197   -0.235717
     36          6           0       -6.449502   -2.026520    0.039762
     37          6           0       -9.185464   -4.444711   -0.944224
     38          6           0       -5.697197   -4.278041   -0.054951
     39          8           0       -5.555059   -5.494888   -0.285439
     40          6           0       -4.440804   -3.204053    0.325727
     41          6           0       -3.959134   -3.904339    1.536679
     42          8           0       -4.231606   -3.619525    2.655513
     43          8           0       -3.249977   -5.120889    1.375586
     44          6           0       -2.772615   -5.813008    2.495215
     45          6           0        2.654068   -1.131296   -1.130864
     46          6           0        3.967235   -0.795750   -0.403988
     47          6           0        4.892949   -0.077206   -0.953520
     48          6           0        4.949266    0.670960   -2.295854
     49          6           0        6.279701    0.092334   -0.172655
     50          6           0        7.493318   -0.532596   -0.817244
     51          6           0        8.725296   -0.245454   -0.026068
     52          6           0       10.046702   -0.835435   -0.573062
     53          6           0       10.007429   -2.445710   -0.759324
     54          6           0       11.273769   -0.409329    0.145625
     55          6           0       12.663058   -0.644134   -0.462689
     56          6           0       13.757973   -0.013589    0.233432
     57          6           0       15.176681   -0.128753   -0.463887
     58          6           0       15.638977   -1.588936   -0.400015
     59          6           0       16.266565    0.663504    0.420811
     60          6           0       17.599377    0.859299   -0.215863
     61          6           0       18.665147    1.733664    0.558435
     62          6           0       20.070687    1.780691   -0.080725
     63          6           0       20.088375    2.479052   -1.465829
     64          6           0       21.039665    2.546391    0.853579
     65          1           0       -3.792693    3.293020    1.859073
     66          1           0       -9.899306    4.213881   -0.435540
     67          1           0      -10.814040   -1.900550   -1.281654
     68          1           0       -2.539214   -1.447586    1.845294
     69          1           0       -2.513424    1.486941    1.534891
     70          1           0       -2.301467    0.051104    3.887358
     71          1           0       -2.953402    1.766580    3.978245
     72          1           0       -3.982519    0.273218    3.644004
     73          1           0       -2.432101   -1.925073   -0.288490
     74          1           0       -2.210371   -0.158374   -0.736665
     75          1           0       -0.215521   -0.035531    0.990149
     76          1           0       -0.425114   -1.702908    1.258488
     77          1           0       -4.195029    5.883073    1.178976
     78          1           0       -5.503697    6.745392    1.815870
     79          1           0       -4.811804    5.555740    2.733253
     80          1           0       -7.692347    7.054897    1.227812
     81          1           0       -8.980521    6.250122   -1.392714
     82          1           0       -9.300151    7.647776   -0.345928
     83          1           0      -12.346924    3.887557   -0.282065
     84          1           0      -11.947826    3.808637   -1.866581
     85          1           0      -13.207752    2.704975   -1.218903
     86          1           0      -12.787999   -0.528071   -1.041796
     87          1           0      -13.610940    0.734990   -1.594654
     88          1           0      -12.248525    0.711676   -3.834434
     89          1           0      -11.565971   -0.931670   -3.508870
     90          1           0      -13.234946   -1.034725   -3.619004
     91          1           0      -10.104243   -4.431799   -0.309119
     92          1           0       -9.431777   -4.288250   -1.981369
     93          1           0       -8.583075   -5.464775   -1.198728
     94          1           0       -3.708747   -3.110646   -0.536060
     95          1           0       -2.106382   -6.570769    2.216674
     96          1           0       -2.237881   -4.916352    3.222274
     97          1           0       -3.470026   -6.376120    3.162097
     98          1           0        2.458955   -2.029684   -1.654127
     99          1           0        2.322561   -0.587965   -2.082005
    100          1           0        4.197676   -1.319494    0.436731
    101          1           0        5.416304    1.608962   -2.312522
    102          1           0        5.771123   -0.014814   -2.839687
    103          1           0        3.927472    0.779530   -2.822446
    104          1           0        6.502319    1.140329   -0.146985
    105          1           0        6.220421   -0.190215    0.893623
    106          1           0        7.112692   -1.728687   -0.835049
    107          1           0        7.529964   -0.041855   -1.774908
    108          1           0        9.049548    0.761675    0.204309
    109          1           0        8.549381   -0.592032    1.199299
    110          1           0        9.946471   -0.464759   -1.513368
    111          1           0        9.026856   -2.768397   -1.193256
    112          1           0       10.875016   -2.945275   -1.402533
    113          1           0        9.788599   -2.785138    0.372853
    114          1           0       11.248964    0.854542    0.303294
    115          1           0       11.325008   -0.942667    1.110575
    116          1           0       12.706039   -1.708979   -0.440025
    117          1           0       12.416075   -0.212229   -1.491453
    118          1           0       13.872000    1.122215    0.548314
    119          1           0       13.917815   -0.627033    1.301887
    120          1           0       15.059829    0.297005   -1.428142
    121          1           0       14.814763   -2.310463   -0.912458
    122          1           0       16.518004   -1.562517   -0.700918
    123          1           0       15.553412   -2.092417    0.625655
    124          1           0       15.952510    1.671542    0.514572
    125          1           0       16.326730    0.192556    1.408850
    126          1           0       18.076546   -0.257345   -0.397142
    127          1           0       17.271072    1.325335   -1.294035
    128          1           0       18.164518    2.762755    0.855507
    129          1           0       18.631065    1.331857    1.573620
    130          1           0       20.358549    0.740547   -0.273884
    131          1           0       19.749630    3.632436   -1.345762
    132          1           0       20.995098    2.526544   -1.730844
    133          1           0       19.421706    2.112942   -2.276637
    134          1           0       20.905682    1.914414    1.801682
    135          1           0       22.027270    2.504329    0.371612
    136          1           0       20.769844    3.622045    1.213627
    137          1           0       -6.924176    1.670335    0.263548
    138          1           0       -7.491784   -0.241345   -0.327779
 ---------------------------------------------------------------------

 SCF Done:  E(RB3LYP) =  -2732.98068333     A.U. after   17 cycles

 Excitation energies and oscillator strengths:

 Excited State   1:      Singlet-A      2.0214 eV  613.35 nm  f=0.2059  <S**2>=0.000
     235 -> 237       -0.15588
     235 -> 238       -0.24717
     236 -> 237        0.62077
     236 -> 238       -0.16741
 This state for optimization and/or second-order correction.
 Total Energy, E(TD-HF/TD-DFT) =  -2732.90639685
 Copying the excited state density for this state as the 1-particle RhoCI density.

 The electronic state is 1-A.
 Alpha  occ. eigenvalues --  -19.17415 -19.15455 -19.13007 -19.12595 -19.11942
 Alpha  occ. eigenvalues --  -14.38330 -14.36634 -14.31528 -14.30282 -10.31653
 Alpha  occ. eigenvalues --  -10.31341 -10.29068 -10.24834 -10.24523 -10.24499
 Alpha  occ. eigenvalues --  -10.24295 -10.24072 -10.23738 -10.23125 -10.22676
 Alpha  occ. eigenvalues --  -10.22496 -10.22154 -10.21658 -10.21506 -10.21366
 Alpha  occ. eigenvalues --  -10.21053 -10.20989 -10.20869 -10.20645 -10.20537
 Alpha  occ. eigenvalues --  -10.20491 -10.20452 -10.20392 -10.20373 -10.20336
 Alpha  occ. eigenvalues --  -10.20323 -10.20317 -10.20284 -10.20180 -10.20023
 Alpha  occ. eigenvalues --  -10.20010 -10.19853 -10.19600 -10.19573 -10.19523
 Alpha  occ. eigenvalues --  -10.19373 -10.19242 -10.19137 -10.19137 -10.19071
 Alpha  occ. eigenvalues --  -10.18878 -10.18827 -10.18747 -10.18727 -10.18679
 Alpha  occ. eigenvalues --  -10.18677 -10.18281 -10.18254 -10.18251 -10.18177
 Alpha  occ. eigenvalues --  -10.18096 -10.17610 -10.17118 -10.17070  -1.08445
 Alpha  occ. eigenvalues --   -1.08289  -1.01275  -0.99544  -0.98879  -0.98600
 Alpha  occ. eigenvalues --   -0.97901  -0.95611  -0.94768  -0.86964  -0.83030
 Alpha  occ. eigenvalues --   -0.82137  -0.81801  -0.81136  -0.80932  -0.80826
 Alpha  occ. eigenvalues --   -0.80595  -0.79833  -0.79706  -0.79371  -0.78517
 Alpha  occ. eigenvalues --   -0.77463  -0.77018  -0.76024  -0.75206  -0.74896
 Alpha  occ. eigenvalues --   -0.73619  -0.73238  -0.73011  -0.72219  -0.70851
 Alpha  occ. eigenvalues --   -0.70299  -0.69412  -0.68946  -0.68409  -0.67671
 Alpha  occ. eigenvalues --   -0.67543  -0.66714  -0.66484  -0.66051  -0.65905
 Alpha  occ. eigenvalues --   -0.64709  -0.64090  -0.63419  -0.62782  -0.61875
 Alpha  occ. eigenvalues --   -0.61515  -0.59331  -0.58776  -0.58319  -0.58091
 Alpha  occ. eigenvalues --   -0.57018  -0.56178  -0.55727  -0.55481  -0.55268
 Alpha  occ. eigenvalues --   -0.55137  -0.54582  -0.54489  -0.53807  -0.53384
 Alpha  occ. eigenvalues --   -0.52838  -0.52526  -0.52298  -0.51682  -0.51427
 Alpha  occ. eigenvalues --   -0.50128  -0.49948  -0.49411  -0.48764  -0.48496
 Alpha  occ. eigenvalues --   -0.48390  -0.48013  -0.47449  -0.47186  -0.47018
 Alpha  occ. eigenvalues --   -0.46966  -0.46730  -0.46256  -0.45940  -0.45829
 Alpha  occ. eigenvalues --   -0.45630  -0.45523  -0.45443  -0.45008  -0.44750
 Alpha  occ. eigenvalues --   -0.44578  -0.44357  -0.44292  -0.44131  -0.44058
 Alpha  occ. eigenvalues --   -0.43962  -0.43704  -0.43589  -0.43378  -0.43203
 Alpha  occ. eigenvalues --   -0.42958  -0.42275  -0.42091  -0.42047  -0.41738
 Alpha  occ. eigenvalues --   -0.41659  -0.41279  -0.41105  -0.40900  -0.40754
 Alpha  occ. eigenvalues --   -0.40463  -0.40277  -0.40132  -0.39918  -0.39877
 Alpha  occ. eigenvalues --   -0.39660  -0.39433  -0.39325  -0.39198  -0.38704
 Alpha  occ. eigenvalues --   -0.38528  -0.38459  -0.38357  -0.38045  -0.37636
 Alpha  occ. eigenvalues --   -0.37596  -0.37347  -0.37286  -0.36922  -0.36873
 Alpha  occ. eigenvalues --   -0.36559  -0.36212  -0.35980  -0.35883  -0.35640
 Alpha  occ. eigenvalues --   -0.35428  -0.35419  -0.34724  -0.34525  -0.34454
 Alpha  occ. eigenvalues --   -0.34384  -0.34234  -0.33978  -0.33881  -0.33450
 Alpha  occ. eigenvalues --   -0.33191  -0.33049  -0.32744  -0.32365  -0.32347
 Alpha  occ. eigenvalues --   -0.32149  -0.31924  -0.31696  -0.31456  -0.31207
 Alpha  occ. eigenvalues --   -0.30863  -0.30821  -0.30352  -0.30003  -0.29380
 Alpha  occ. eigenvalues --   -0.28971  -0.28619  -0.28194  -0.28096  -0.27986
 Alpha  occ. eigenvalues --   -0.27336  -0.27177  -0.26875  -0.26014  -0.25973
 Alpha  occ. eigenvalues --   -0.25803  -0.25129  -0.24204  -0.23978  -0.20605
 Alpha  occ. eigenvalues --   -0.18748
 Alpha virt. eigenvalues --   -0.10535  -0.08143  -0.05640  -0.02021  -0.01320
 Alpha virt. eigenvalues --    0.00065   0.00882   0.01143   0.02102   0.03705
 Alpha virt. eigenvalues --    0.03788   0.04155   0.04498   0.04657   0.04978

 Mulliken charges:
               1
     1  C   -0.018669
     2  C   -0.081242
     3  C   -0.019361
     4  C   -0.091108
     5  N   -0.090100
     6  C   -0.009997
     7  C   -0.089981
     8  C    0.068406
     9  C   -0.069136
    10  C    0.025907
    11  C    0.087005
    12  C    0.024513
    13  C    0.201098
    14  O   -0.280093
    15  O   -0.321762
    16  N   -0.203025
    17  C    0.147719
    18  C   -0.138645
    19  C    0.019457
    20  C    0.138063
    21  C    0.154228
    22  C   -0.068765
    23  C    0.045276
    24  N   -0.174077
    25  C   -0.002132
    26  C   -0.177424
    27  C   -0.106811
    28  C   -0.009291
    29  C    0.205157
    30  C    0.099047
    31  C   -0.034940
    32  N   -0.043336
    33  C    0.130764
    34  C   -0.162109
    35  C    0.044020
    36  C    0.102177
    37  C    0.092794
    38  C    0.046081
    39  O   -0.181490
    40  C   -0.074763
    41  C    0.213838
    42  O   -0.190281
    43  O   -0.333016
    44  C    0.165226
    45  C    0.243868
    46  C    0.022025
    47  C   -0.101085
    48  C    0.047921
    49  C    0.040258
    50  C    0.029529
    51  C   -0.037445
    52  C    0.029145
    53  C   -0.056914
    54  C   -0.034601
    55  C    0.104489
    56  C   -0.036839
    57  C   -0.071539
    58  C    0.112755
    59  C    0.037469
    60  C   -0.066762
    61  C    0.025582
    62  C   -0.073902
    63  C    0.084629
    64  C    0.002845
    65  H   -0.021726
    66  H   -0.071953
    67  H    0.008571
    68  H    0.022483
    69  H   -0.041415
    70  H    0.024391
    71  H    0.024625
    72  H   -0.001182
    73  H    0.019671
    74  H   -0.002754
    75  H    0.013257
    76  H    0.042994
    77  H    0.019205
    78  H   -0.015928
    79  H   -0.006136
    80  H    0.011514
    81  H    0.004312
    82  H    0.007568
    83  H    0.001091
    84  H   -0.009270
    85  H    0.009507
    86  H   -0.033458
    87  H    0.005549
    88  H    0.033999
    89  H    0.015769
    90  H    0.021291
    91  H    0.057582
    92  H    0.013965
    93  H    0.047155
    94  H    0.097839
    95  H    0.013030
    96  H    0.024386
    97  H    0.025141
    98  H   -0.007789
    99  H   -0.001302
   100  H   -0.042195
   101  H    0.007050
   102  H    0.044536
   103  H    0.039788
   104  H   -0.021336
   105  H   -0.005001
   106  H    0.039528
   107  H   -0.004651
   108  H   -0.010402
   109  H   -0.009512
   110  H   -0.048587
   111  H    0.008415
   112  H    0.052454
   113  H    0.016547
   114  H    0.003257
   115  H   -0.009864
   116  H   -0.003022
   117  H   -0.003850
   118  H    0.008475
   119  H   -0.002915
   120  H   -0.016384
   121  H    0.013366
   122  H   -0.069592
   123  H    0.004608
   124  H   -0.023883
   125  H   -0.007369
   126  H    0.014881
   127  H    0.015283
   128  H   -0.004535
   129  H   -0.019108
   130  H    0.001125
   131  H   -0.000804
   132  H   -0.055566
   133  H    0.017497
   134  H    0.013792
   135  H    0.019035
   136  H    0.030601
   137  H    0.187848
   138  H    0.127861
 Sum of Mulliken charges =  -0.00000

 Dipole moment (field-independent basis, Debye):
    X=              1.0667    Y=              5.3129    Z=             -0.3932  Tot=              5.4331
 Quadrupole moment (field-independent basis, Debye-Ang):
   XX=           -332.8018   YY=           -387.0082   ZZ=           -399.0061
   XY=            -21.9936   XZ=             11.3654   YZ=              0.9102

 Normal termination of Gaussian 16 at Tue Aug 13 22:52:29 2019.
