 Gaussian 16, Revision A.03,
 Gaussian 16:  ES64L-G16RevA.03 25-Dec-2016

 --------------------------
 # td=(NStates=1) B3LYP/SVP
 --------------------------

 --
 TD
 --
 Symbolic Z-matrix:
 Charge =  0 Multiplicity = 1

                         Standard orientation:
 ---------------------------------------------------------------------
 Center     Atomic      Atomic             Coordinates (Angstroms)
 Number     Number       Type             X           Y           Z
 ---------------------------------------------------------------------
      1          6           0       -5.115648   -1.903786    0.351279
      2          6           0       -4.696709    2.750832    1.395765
      3          6           0       -9.306975    3.355481   -0.176655
      4          6           0       -9.873194   -1.380777   -0.882055
      5          7           0       -5.061528    0.403424    0.725046
      6          6           0       -4.536844   -0.793602    0.777296
      7          6           0       -3.121835   -0.712412    1.271077
      8          6           0       -3.000247    0.807351    1.874868
      9          6           0       -4.379321    1.413003    1.363494
     10          6           0       -3.042237    0.730446    3.437399
     11          6           0       -2.056075   -0.826814    0.109848
     12          6           0       -0.592669   -0.805598    0.519015
     13          6           0        0.492908   -1.004094   -0.523731
     14          8           0        0.190976   -1.320519   -1.611326
     15          8           0        1.597599   -0.754167   -0.088518
     16          7           0       -6.990586    2.720812    0.421879
     17          6           0       -5.949404    3.423399    0.950753
     18          6           0       -6.142671    4.757654    1.042100
     19          6           0       -7.517288    4.973832    0.644840
     20          6           0       -7.975545    3.728899    0.145534
     21          6           0       -5.146091    5.746760    1.549766
     22          6           0       -8.110786    6.381164    0.516255
     23          6           0       -8.985589    6.681940   -0.416955
     24          7           0       -9.134003    0.926617   -0.559783
     25          6           0       -9.884138    2.183156   -0.556406
     26          6           0      -11.268926    1.949859   -0.952398
     27          6           0      -11.468600    0.591305   -1.183368
     28          6           0      -10.109946    0.005764   -0.930863
     29          6           0      -12.179897    3.038332   -1.075455
     30          6           0      -12.636014   -0.160466   -1.687254
     31          6           0      -12.649725   -0.583996   -3.115229
     32          7           0       -7.527955   -1.251174   -0.346407
     33          6           0       -8.621372   -1.950481   -0.571129
     34          6           0       -8.182384   -3.339090   -0.748666
     35          6           0       -6.847690   -3.410619   -0.309121
     36          6           0       -6.469082   -2.091180   -0.030044
     37          6           0       -9.184903   -4.435529   -1.094995
     38          6           0       -5.829500   -4.308003   -0.109863
     39          8           0       -5.707729   -5.571064    0.052581
     40          6           0       -4.563932   -3.322245    0.343704
     41          6           0       -3.980197   -3.873240    1.566140
     42          8           0       -4.209200   -3.364377    2.723254
     43          8           0       -3.317989   -5.034456    1.379746
     44          6           0       -2.747623   -5.672954    2.478861
     45          6           0        2.668276   -0.946232   -1.118747
     46          6           0        4.058598   -0.671911   -0.572423
     47          6           0        4.952547    0.135393   -0.961077
     48          6           0        4.862091    1.029677   -2.224537
     49          6           0        6.268451    0.298419   -0.251454
     50          6           0        7.526743   -0.294102   -0.970001
     51          6           0        8.749221   -0.187171   -0.114788
     52          6           0       10.020811   -0.774544   -0.689470
     53          6           0        9.904987   -2.251709   -0.704244
     54          6           0       11.250178   -0.320342    0.162592
     55          6           0       12.657314   -0.609972   -0.524152
     56          6           0       13.941475   -0.008292    0.277835
     57          6           0       15.273674   -0.348535   -0.377332
     58          6           0       15.619608   -1.852275   -0.226882
     59          6           0       16.305157    0.583605    0.369155
     60          6           0       17.731910    0.539561   -0.222576
     61          6           0       18.681459    1.590801    0.503498
     62          6           0       20.111955    1.647774   -0.102125
     63          6           0       20.193284    2.164730   -1.428849
     64          6           0       21.007613    2.604997    0.840174
     65          1           0       -4.110108    3.548118    1.837081
     66          1           0       -9.997510    4.086060   -0.320031
     67          1           0      -10.699665   -2.171160   -1.254539
     68          1           0       -3.111316   -1.359136    2.030618
     69          1           0       -1.984772    1.327404    1.585004
     70          1           0       -2.145068    0.030770    3.813931
     71          1           0       -2.852282    1.711259    4.005168
     72          1           0       -3.927282    0.202317    3.712387
     73          1           0       -2.284812   -1.865214   -0.241728
     74          1           0       -2.215922   -0.291223   -0.693849
     75          1           0       -0.428699    0.223285    1.238746
     76          1           0       -0.398794   -1.666637    1.271037
     77          1           0       -4.459262    6.086490    0.921818
     78          1           0       -5.524615    6.853165    1.820761
     79          1           0       -4.416689    5.478212    2.433336
     80          1           0       -7.905015    7.015978    1.315548
     81          1           0       -9.162391    6.014976   -1.260072
     82          1           0       -9.619850    7.592220   -0.535509
     83          1           0      -12.283318    3.539009   -0.018534
     84          1           0      -11.845690    3.930852   -1.754064
     85          1           0      -13.251850    2.709109   -1.456287
     86          1           0      -12.744532   -0.918513   -0.859563
     87          1           0      -13.448766    0.460990   -1.534541
     88          1           0      -12.457182    0.235369   -3.862223
     89          1           0      -11.802155   -1.335961   -3.241688
     90          1           0      -13.778217   -0.837056   -3.478223
     91          1           0      -10.184041   -4.335443   -0.623909
     92          1           0       -9.385083   -4.595136   -2.226361
     93          1           0       -8.960430   -5.553118   -0.762027
     94          1           0       -3.935683   -3.518312   -0.539283
     95          1           0       -2.136156   -6.540072    2.111453
     96          1           0       -2.079591   -5.071653    3.173173
     97          1           0       -3.529346   -6.036532    3.232949
     98          1           0        2.681833   -2.053905   -1.327916
     99          1           0        2.494667   -0.227055   -1.914218
    100          1           0        4.300194   -1.330531    0.373883
    101          1           0        5.168250    2.094653   -1.906335
    102          1           0        5.534085    0.729982   -3.136448
    103          1           0        3.779190    1.078159   -2.674422
    104          1           0        6.470676    1.490396   -0.220940
    105          1           0        6.210285   -0.243732    0.711493
    106          1           0        7.147536   -1.200198   -1.118477
    107          1           0        7.759237    0.310247   -1.910882
    108          1           0        8.870949    0.923640    0.082086
    109          1           0        8.545099   -0.700597    0.843515
    110          1           0       10.207855   -0.418720   -1.783116
    111          1           0        9.180868   -2.602754   -1.527868
    112          1           0       10.861542   -2.696055   -1.068928
    113          1           0        9.699816   -2.680081    0.252702
    114          1           0       11.253162    0.959330    0.111289
    115          1           0       11.346056   -0.733616    1.206411
    116          1           0       12.719252   -1.668632   -0.667623
    117          1           0       12.714420   -0.300073   -1.700371
    118          1           0       13.579624    1.091121    0.277922
    119          1           0       13.818267   -0.298829    1.253102
    120          1           0       15.363971    0.084928   -1.438364
    121          1           0       14.890716   -2.309236   -0.748198
    122          1           0       16.732996   -2.172531   -0.542577
    123          1           0       15.497581   -2.487012    0.772706
    124          1           0       16.034957    1.625728    0.533357
    125          1           0       16.444535    0.146652    1.327761
    126          1           0       18.232244   -0.358599   -0.193109
    127          1           0       17.582344    0.888199   -1.155766
    128          1           0       18.200315    2.695311    0.693713
    129          1           0       18.882804    1.303676    1.488081
    130          1           0       20.577394    0.644000    0.256322
    131          1           0       19.618992    3.075326   -1.358130
    132          1           0       21.082509    2.258522   -1.950436
    133          1           0       19.781675    1.458145   -2.161777
    134          1           0       21.090601    2.403954    2.066970
    135          1           0       22.004246    2.342952    0.485927
    136          1           0       20.864883    3.659358    0.849830
    137          1           0       -6.822286    1.575239    0.002113
    138          1           0       -7.399233   -0.193842   -0.085334
 ---------------------------------------------------------------------

 SCF Done:  E(RB3LYP) =  -2733.04655031     A.U. after   18 cycles

 Excitation energies and oscillator strengths:

 Excited State   1:      Singlet-A      2.0140 eV  615.63 nm  f=0.1721  <S**2>=0.000
     235 -> 237        0.57542
     236 -> 237        0.29521
     236 -> 238       -0.25476
 This state for optimization and/or second-order correction.
 Total Energy, E(TD-HF/TD-DFT) =  -2732.97253886
 Copying the excited state density for this state as the 1-particle RhoCI density.

 The electronic state is 1-A.
 Alpha  occ. eigenvalues --  -19.18721 -19.18169 -19.12452 -19.11231 -19.09869
 Alpha  occ. eigenvalues --  -14.37784 -14.36926 -14.31991 -14.30737 -10.31463
 Alpha  occ. eigenvalues --  -10.29550 -10.28362 -10.26232 -10.24612 -10.24057
 Alpha  occ. eigenvalues --  -10.23868 -10.23849 -10.23046 -10.22991 -10.22695
 Alpha  occ. eigenvalues --  -10.22027 -10.21933 -10.21461 -10.21395 -10.21291
 Alpha  occ. eigenvalues --  -10.21279 -10.21187 -10.21099 -10.20874 -10.20585
 Alpha  occ. eigenvalues --  -10.20554 -10.20516 -10.20450 -10.20362 -10.20289
 Alpha  occ. eigenvalues --  -10.20219 -10.20169 -10.20164 -10.19975 -10.19917
 Alpha  occ. eigenvalues --  -10.19729 -10.19629 -10.19522 -10.19520 -10.19457
 Alpha  occ. eigenvalues --  -10.19399 -10.19395 -10.19264 -10.19205 -10.19096
 Alpha  occ. eigenvalues --  -10.19086 -10.19049 -10.18735 -10.18518 -10.18403
 Alpha  occ. eigenvalues --  -10.18368 -10.18148 -10.18140 -10.18112 -10.18057
 Alpha  occ. eigenvalues --  -10.17953 -10.16916 -10.16716 -10.16322  -1.14205
 Alpha  occ. eigenvalues --   -1.08783  -1.01644  -1.00144  -0.99002  -0.97147
 Alpha  occ. eigenvalues --   -0.96370  -0.94202  -0.91152  -0.85790  -0.83765
 Alpha  occ. eigenvalues --   -0.81894  -0.81273  -0.81087  -0.80849  -0.80308
 Alpha  occ. eigenvalues --   -0.80278  -0.79946  -0.79484  -0.78816  -0.77549
 Alpha  occ. eigenvalues --   -0.76894  -0.76446  -0.75519  -0.75400  -0.74555
 Alpha  occ. eigenvalues --   -0.73518  -0.73289  -0.72892  -0.71536  -0.70702
 Alpha  occ. eigenvalues --   -0.69527  -0.69056  -0.68345  -0.67952  -0.67793
 Alpha  occ. eigenvalues --   -0.67397  -0.66974  -0.66659  -0.66278  -0.65536
 Alpha  occ. eigenvalues --   -0.63885  -0.63278  -0.62331  -0.62051  -0.61189
 Alpha  occ. eigenvalues --   -0.61045  -0.59357  -0.58513  -0.57793  -0.57285
 Alpha  occ. eigenvalues --   -0.56963  -0.56230  -0.56164  -0.56014  -0.55701
 Alpha  occ. eigenvalues --   -0.55386  -0.54941  -0.54290  -0.53317  -0.53121
 Alpha  occ. eigenvalues --   -0.52765  -0.51993  -0.51620  -0.51155  -0.50608
 Alpha  occ. eigenvalues --   -0.50199  -0.49860  -0.49490  -0.49050  -0.48073
 Alpha  occ. eigenvalues --   -0.47957  -0.47423  -0.47255  -0.47220  -0.47173
 Alpha  occ. eigenvalues --   -0.46933  -0.46375  -0.46137  -0.45982  -0.45751
 Alpha  occ. eigenvalues --   -0.45641  -0.45289  -0.44671  -0.44655  -0.44366
 Alpha  occ. eigenvalues --   -0.44095  -0.43862  -0.43556  -0.43532  -0.43344
 Alpha  occ. eigenvalues --   -0.43306  -0.43121  -0.43092  -0.42698  -0.42288
 Alpha  occ. eigenvalues --   -0.42073  -0.41937  -0.41815  -0.41449  -0.41161
 Alpha  occ. eigenvalues --   -0.41041  -0.40763  -0.40671  -0.40589  -0.40488
 Alpha  occ. eigenvalues --   -0.40150  -0.40022  -0.39613  -0.39468  -0.39289
 Alpha  occ. eigenvalues --   -0.38969  -0.38801  -0.38766  -0.38561  -0.38354
 Alpha  occ. eigenvalues --   -0.37892  -0.37629  -0.37598  -0.37414  -0.37311
 Alpha  occ. eigenvalues --   -0.37138  -0.36982  -0.36727  -0.36544  -0.36092
 Alpha  occ. eigenvalues --   -0.36076  -0.35887  -0.35773  -0.35621  -0.35347
 Alpha  occ. eigenvalues --   -0.35140  -0.34988  -0.34806  -0.34681  -0.34553
 Alpha  occ. eigenvalues --   -0.34516  -0.34181  -0.34033  -0.33822  -0.33738
 Alpha  occ. eigenvalues --   -0.33285  -0.32995  -0.32813  -0.32688  -0.32639
 Alpha  occ. eigenvalues --   -0.32447  -0.32249  -0.31932  -0.31862  -0.31440
 Alpha  occ. eigenvalues --   -0.31234  -0.30723  -0.30419  -0.30280  -0.29950
 Alpha  occ. eigenvalues --   -0.29375  -0.28794  -0.28369  -0.27630  -0.27228
 Alpha  occ. eigenvalues --   -0.27113  -0.26844  -0.26565  -0.26555  -0.25790
 Alpha  occ. eigenvalues --   -0.25170  -0.24624  -0.24165  -0.22647  -0.19899
 Alpha  occ. eigenvalues --   -0.19537
 Alpha virt. eigenvalues --   -0.11550  -0.07529  -0.05527  -0.01601  -0.01281
 Alpha virt. eigenvalues --    0.00004   0.00071   0.02325   0.02758   0.03383
 Alpha virt. eigenvalues --    0.03507   0.03738   0.04084   0.04546   0.05084

 Mulliken charges:
               1
     1  C    0.099716
     2  C   -0.010300
     3  C    0.005833
     4  C   -0.123749
     5  N   -0.183489
     6  C   -0.155958
     7  C    0.086142
     8  C   -0.127390
     9  C    0.094036
    10  C    0.018265
    11  C    0.161402
    12  C   -0.049412
    13  C    0.106653
    14  O   -0.230592
    15  O   -0.211850
    16  N   -0.187312
    17  C    0.014851
    18  C   -0.063399
    19  C   -0.018079
    20  C    0.097261
    21  C    0.069040
    22  C    0.030110
    23  C   -0.038521
    24  N   -0.309889
    25  C    0.061756
    26  C   -0.043308
    27  C   -0.140148
    28  C    0.080187
    29  C   -0.016771
    30  C    0.144059
    31  C   -0.011983
    32  N   -0.045833
    33  C    0.065900
    34  C   -0.084629
    35  C    0.099012
    36  C    0.040814
    37  C   -0.007302
    38  C    0.020173
    39  O   -0.219670
    40  C   -0.070128
    41  C    0.246573
    42  O   -0.306763
    43  O   -0.256169
    44  C    0.155564
    45  C    0.296867
    46  C   -0.155025
    47  C   -0.079641
    48  C   -0.016659
    49  C    0.014432
    50  C    0.069658
    51  C    0.056026
    52  C   -0.061732
    53  C    0.039246
    54  C   -0.029362
    55  C   -0.043889
    56  C    0.060236
    57  C   -0.038225
    58  C    0.020417
    59  C    0.028346
    60  C    0.146849
    61  C   -0.019714
    62  C   -0.119338
    63  C    0.136862
    64  C   -0.032845
    65  H   -0.049686
    66  H   -0.090228
    67  H    0.031755
    68  H   -0.052214
    69  H    0.027641
    70  H    0.017785
    71  H    0.025292
    72  H    0.023505
    73  H   -0.007748
    74  H   -0.041442
    75  H    0.035029
    76  H    0.026885
    77  H   -0.019271
    78  H    0.014245
    79  H    0.041270
    80  H   -0.012379
    81  H    0.028279
    82  H    0.030262
    83  H    0.041205
    84  H    0.041832
    85  H    0.029432
    86  H    0.016747
    87  H   -0.048214
    88  H    0.017467
    89  H    0.027745
    90  H    0.031372
    91  H    0.036262
    92  H    0.043597
    93  H    0.050492
    94  H    0.058851
    95  H    0.037709
    96  H    0.025456
    97  H    0.033430
    98  H    0.045478
    99  H    0.023498
   100  H    0.004900
   101  H    0.030668
   102  H    0.054430
   103  H    0.025242
   104  H    0.015879
   105  H   -0.001116
   106  H   -0.038610
   107  H    0.004536
   108  H   -0.008463
   109  H   -0.018134
   110  H   -0.002185
   111  H    0.017143
   112  H   -0.000033
   113  H   -0.000711
   114  H    0.014837
   115  H    0.016489
   116  H   -0.017386
   117  H   -0.002032
   118  H    0.002743
   119  H   -0.028887
   120  H    0.007579
   121  H   -0.021630
   122  H    0.032587
   123  H    0.017848
   124  H   -0.008593
   125  H   -0.032015
   126  H   -0.024410
   127  H   -0.042416
   128  H   -0.000998
   129  H   -0.029980
   130  H    0.004686
   131  H    0.005274
   132  H   -0.020014
   133  H   -0.007244
   134  H    0.008302
   135  H    0.003039
   136  H    0.003167
   137  H    0.251427
   138  H    0.185530
 Sum of Mulliken charges =  -0.00000

 Dipole moment (field-independent basis, Debye):
    X=              1.9204    Y=              3.8433    Z=             -1.3960  Tot=              4.5175
 Quadrupole moment (field-independent basis, Debye-Ang):
   XX=           -326.7564   YY=           -381.8698   ZZ=           -398.5264
   XY=            -34.8710   XZ=             11.6884   YZ=             -0.7698

 Normal termination of Gaussian 16 at Thu Aug 22 13:34:48 2019.
