 Gaussian 16, Revision A.03,
 Gaussian 16:  ES64L-G16RevA.03 25-Dec-2016

 --------------------------
 # td=(NStates=1) B3LYP/SVP
 --------------------------

 --
 TD
 --
 Symbolic Z-matrix:
 Charge =  0 Multiplicity = 1

                         Standard orientation:
 ---------------------------------------------------------------------
 Center     Atomic      Atomic             Coordinates (Angstroms)
 Number     Number       Type             X           Y           Z
 ---------------------------------------------------------------------
      1          6           0       -5.209289   -1.957873    0.453382
      2          6           0       -4.647503    2.684571    1.473818
      3          6           0       -9.218244    3.580780   -0.150566
      4          6           0       -9.850562   -1.248479   -0.753728
      5          7           0       -5.220841    0.447088    0.816334
      6          6           0       -4.586981   -0.791693    0.775765
      7          6           0       -3.099783   -0.697020    1.185943
      8          6           0       -2.935434    0.785787    1.698861
      9          6           0       -4.331686    1.374596    1.415251
     10          6           0       -2.849247    0.766209    3.234782
     11          6           0       -2.050387   -0.967853   -0.025621
     12          6           0       -0.585478   -0.979986    0.493986
     13          6           0        0.408928   -1.349052   -0.603705
     14          8           0        0.129312   -1.752322   -1.706897
     15          8           0        1.728173   -1.227846   -0.117753
     16          7           0       -6.979435    2.822990    0.486042
     17          6           0       -5.810826    3.399817    0.998206
     18          6           0       -5.968323    4.827851    0.902397
     19          6           0       -7.305809    5.094440    0.512002
     20          6           0       -7.934146    3.814879    0.164630
     21          6           0       -4.987236    5.824679    1.371160
     22          6           0       -7.819383    6.339461    0.340943
     23          6           0       -8.730715    6.792196   -0.600683
     24          7           0       -9.144571    1.061090   -0.487010
     25          6           0       -9.789137    2.253855   -0.560898
     26          6           0      -11.224781    2.084798   -0.833552
     27          6           0      -11.360376    0.759478   -1.029655
     28          6           0      -10.095537    0.190303   -0.742935
     29          6           0      -12.192635    3.212487   -1.033126
     30          6           0      -12.547751   -0.057131   -1.573620
     31          6           0      -12.644372   -0.281129   -3.019364
     32          7           0       -7.497867   -1.208312   -0.346407
     33          6           0       -8.659110   -1.888820   -0.546912
     34          6           0       -8.358679   -3.379552   -0.488201
     35          6           0       -7.024254   -3.375126   -0.236963
     36          6           0       -6.519005   -2.030385   -0.046755
     37          6           0       -9.353381   -4.438797   -0.876890
     38          6           0       -5.927820   -4.327633    0.048301
     39          8           0       -5.985069   -5.476202   -0.046446
     40          6           0       -4.643028   -3.365206    0.383100
     41          6           0       -3.999757   -3.766466    1.698302
     42          8           0       -4.200357   -3.376248    2.869158
     43          8           0       -3.192907   -4.815625    1.502703
     44          6           0       -2.822101   -5.596110    2.686711
     45          6           0        2.704072   -1.579232   -1.011770
     46          6           0        4.021066   -1.055549   -0.502405
     47          6           0        4.926719   -0.240411   -1.032110
     48          6           0        4.705523    0.472787   -2.426590
     49          6           0        6.312864   -0.010778   -0.342646
     50          6           0        7.511736   -0.572300   -1.219642
     51          6           0        8.762011   -0.277655   -0.376756
     52          6           0       10.104098   -0.805125   -0.976272
     53          6           0       10.086949   -2.304280   -1.189429
     54          6           0       11.260052   -0.309724   -0.096734
     55          6           0       12.605714   -0.355185   -0.675890
     56          6           0       13.791385    0.049505    0.176083
     57          6           0       15.233245   -0.060189   -0.399742
     58          6           0       15.512702   -1.518434   -0.582823
     59          6           0       16.282137    0.740433    0.410718
     60          6           0       17.673959    0.824894   -0.106338
     61          6           0       18.561987    1.651721    0.884025
     62          6           0       20.033109    1.785794    0.314225
     63          6           0       20.113547    2.334155   -1.031422
     64          6           0       20.905565    2.581927    1.340071
     65          1           0       -3.872947    3.279845    1.796908
     66          1           0      -10.084960    4.382432   -0.277950
     67          1           0      -10.848016   -1.992848   -0.794945
     68          1           0       -2.905219   -1.389254    1.905688
     69          1           0       -2.092129    1.241927    1.152444
     70          1           0       -1.702764    0.437489    3.544715
     71          1           0       -2.917479    1.847681    3.519251
     72          1           0       -3.582776    0.330314    3.711586
     73          1           0       -2.114333   -1.882008   -0.509117
     74          1           0       -2.153418   -0.200848   -0.845708
     75          1           0       -0.189253   -0.160149    1.077841
     76          1           0       -0.473913   -1.716955    1.335164
     77          1           0       -3.899965    5.751442    0.816522
     78          1           0       -5.112301    6.988924    1.302663
     79          1           0       -4.750246    5.468122    2.347529
     80          1           0       -7.268307    7.011462    1.069136
     81          1           0       -9.152726    6.098399   -1.288240
     82          1           0       -9.002528    7.874706   -0.742527
     83          1           0      -12.378733    3.921055   -0.124503
     84          1           0      -11.790117    4.018100   -1.825104
     85          1           0      -13.155381    2.862075   -1.456959
     86          1           0      -12.829473   -1.030084   -1.106960
     87          1           0      -13.473542    0.520287   -1.070113
     88          1           0      -12.838181    0.624507   -3.424453
     89          1           0      -11.725594   -0.818681   -3.429969
     90          1           0      -13.565512   -1.085908   -3.152109
     91          1           0      -10.056531   -4.354044   -0.194492
     92          1           0       -9.923606   -4.320713   -1.826872
     93          1           0       -8.850866   -5.520028   -1.133708
     94          1           0       -3.853108   -3.661467   -0.608042
     95          1           0       -2.141159   -6.388531    2.292522
     96          1           0       -2.206145   -5.048668    3.306390
     97          1           0       -3.658187   -5.872114    3.434634
     98          1           0        2.560561   -2.593490   -1.484730
     99          1           0        2.463488   -1.033196   -2.009853
    100          1           0        4.268751   -1.509336    0.588204
    101          1           0        5.025322    1.606986   -2.187421
    102          1           0        5.152198    0.085863   -3.238181
    103          1           0        3.678543    0.511426   -2.898123
    104          1           0        6.444923    1.153991   -0.269396
    105          1           0        6.026811   -0.424942    0.647551
    106          1           0        7.440583   -1.573735   -1.374856
    107          1           0        7.468314    0.032900   -2.203129
    108          1           0        8.679298    0.694446   -0.077448
    109          1           0        8.855747   -0.863887    0.597433
    110          1           0       10.297284   -0.389927   -1.969733
    111          1           0        9.286820   -2.544363   -1.981547
    112          1           0       11.218950   -2.431896   -1.593821
    113          1           0       10.031611   -3.030690   -0.361019
    114          1           0       11.091824    0.817374    0.101632
    115          1           0       11.230075   -0.700199    1.030449
    116          1           0       12.866029   -1.524138   -1.093335
    117          1           0       12.501671    0.340197   -1.687838
    118          1           0       13.752999    1.189674    0.457094
    119          1           0       13.784478   -0.496282    1.117118
    120          1           0       15.078656    0.315246   -1.466960
    121          1           0       14.977175   -1.908002   -1.374778
    122          1           0       16.595801   -1.681485   -1.106945
    123          1           0       15.590288   -2.162675    0.283189
    124          1           0       15.606508    1.716265    0.522363
    125          1           0       16.278473    0.451681    1.365977
    126          1           0       18.066760   -0.208081   -0.124067
    127          1           0       17.650256    1.082451   -1.082246
    128          1           0       17.964404    2.665644    0.984844
    129          1           0       18.379298    1.106244    1.811632
    130          1           0       20.462581    0.623659    0.273048
    131          1           0       19.568049    3.283172   -1.007775
    132          1           0       21.284057    2.178256   -1.291442
    133          1           0       19.560836    1.839630   -1.939614
    134          1           0       20.648372    2.006106    2.386090
    135          1           0       21.979841    2.367020    0.889784
    136          1           0       20.608693    3.594861    1.502307
    137          1           0       -6.963044    1.847381    0.511536
    138          1           0       -7.435768   -0.166021   -0.549555
 ---------------------------------------------------------------------

 SCF Done:  E(RB3LYP) =  -2733.07606874     A.U. after   17 cycles

 Excitation energies and oscillator strengths:

 Excited State   1:      Singlet-A      2.0417 eV  607.26 nm  f=0.1181  <S**2>=0.000
     235 -> 237       -0.10907
     235 -> 238       -0.34122
     236 -> 237        0.60008
 This state for optimization and/or second-order correction.
 Total Energy, E(TD-HF/TD-DFT) =  -2733.00103742
 Copying the excited state density for this state as the 1-particle RhoCI density.

 The electronic state is 1-A.
 Alpha  occ. eigenvalues --  -19.17827 -19.17488 -19.13986 -19.13779 -19.12040
 Alpha  occ. eigenvalues --  -14.37685 -14.36614 -14.32184 -14.29662 -10.32334
 Alpha  occ. eigenvalues --  -10.31789 -10.28712 -10.24543 -10.24507 -10.24496
 Alpha  occ. eigenvalues --  -10.23685 -10.23667 -10.23600 -10.23558 -10.22984
 Alpha  occ. eigenvalues --  -10.22757 -10.22596 -10.21319 -10.21309 -10.21179
 Alpha  occ. eigenvalues --  -10.21167 -10.20972 -10.20782 -10.20703 -10.20578
 Alpha  occ. eigenvalues --  -10.20547 -10.20476 -10.20397 -10.20395 -10.20392
 Alpha  occ. eigenvalues --  -10.20351 -10.20292 -10.20085 -10.20045 -10.19981
 Alpha  occ. eigenvalues --  -10.19861 -10.19776 -10.19627 -10.19523 -10.19375
 Alpha  occ. eigenvalues --  -10.19274 -10.19230 -10.19149 -10.19127 -10.19123
 Alpha  occ. eigenvalues --  -10.19114 -10.19098 -10.19064 -10.18989 -10.18867
 Alpha  occ. eigenvalues --  -10.18667 -10.18640 -10.18618 -10.18254 -10.17665
 Alpha  occ. eigenvalues --  -10.17560 -10.17425 -10.17233 -10.16863  -1.09378
 Alpha  occ. eigenvalues --   -1.08842  -1.07281  -1.02056  -1.00055  -0.98181
 Alpha  occ. eigenvalues --   -0.96817  -0.94730  -0.91973  -0.84745  -0.82826
 Alpha  occ. eigenvalues --   -0.82416  -0.81636  -0.81239  -0.80787  -0.80377
 Alpha  occ. eigenvalues --   -0.80111  -0.79664  -0.79450  -0.78742  -0.77621
 Alpha  occ. eigenvalues --   -0.76845  -0.76128  -0.75658  -0.74992  -0.74792
 Alpha  occ. eigenvalues --   -0.73564  -0.73074  -0.72720  -0.71766  -0.70856
 Alpha  occ. eigenvalues --   -0.69956  -0.69345  -0.68618  -0.67761  -0.67261
 Alpha  occ. eigenvalues --   -0.67195  -0.66910  -0.66270  -0.65804  -0.65113
 Alpha  occ. eigenvalues --   -0.64456  -0.63316  -0.62601  -0.62257  -0.60859
 Alpha  occ. eigenvalues --   -0.60338  -0.59495  -0.59018  -0.58158  -0.57296
 Alpha  occ. eigenvalues --   -0.56974  -0.56621  -0.56180  -0.55506  -0.55096
 Alpha  occ. eigenvalues --   -0.54830  -0.54568  -0.53800  -0.53719  -0.53170
 Alpha  occ. eigenvalues --   -0.52452  -0.51920  -0.51644  -0.50756  -0.49673
 Alpha  occ. eigenvalues --   -0.49557  -0.49396  -0.49132  -0.48674  -0.48429
 Alpha  occ. eigenvalues --   -0.47947  -0.47791  -0.47369  -0.47129  -0.46919
 Alpha  occ. eigenvalues --   -0.46876  -0.46501  -0.46074  -0.46058  -0.45724
 Alpha  occ. eigenvalues --   -0.45494  -0.45200  -0.44855  -0.44689  -0.44634
 Alpha  occ. eigenvalues --   -0.44420  -0.44328  -0.44119  -0.43896  -0.43782
 Alpha  occ. eigenvalues --   -0.43531  -0.43383  -0.43134  -0.42970  -0.42537
 Alpha  occ. eigenvalues --   -0.42370  -0.42148  -0.42123  -0.41553  -0.41400
 Alpha  occ. eigenvalues --   -0.41325  -0.41194  -0.40999  -0.40949  -0.40333
 Alpha  occ. eigenvalues --   -0.40165  -0.39982  -0.39660  -0.39495  -0.39459
 Alpha  occ. eigenvalues --   -0.39388  -0.39246  -0.38701  -0.38573  -0.38521
 Alpha  occ. eigenvalues --   -0.38285  -0.38176  -0.38086  -0.37856  -0.37616
 Alpha  occ. eigenvalues --   -0.37450  -0.37339  -0.37275  -0.37027  -0.36933
 Alpha  occ. eigenvalues --   -0.36707  -0.36337  -0.36110  -0.35807  -0.35586
 Alpha  occ. eigenvalues --   -0.35459  -0.35301  -0.35105  -0.34750  -0.34599
 Alpha  occ. eigenvalues --   -0.34419  -0.34244  -0.34039  -0.33709  -0.33695
 Alpha  occ. eigenvalues --   -0.33302  -0.33136  -0.33110  -0.32630  -0.32404
 Alpha  occ. eigenvalues --   -0.32093  -0.31638  -0.31550  -0.31184  -0.31083
 Alpha  occ. eigenvalues --   -0.30760  -0.30475  -0.30214  -0.30049  -0.29966
 Alpha  occ. eigenvalues --   -0.29422  -0.28760  -0.28705  -0.28254  -0.28185
 Alpha  occ. eigenvalues --   -0.27589  -0.27469  -0.26967  -0.26738  -0.26341
 Alpha  occ. eigenvalues --   -0.25519  -0.25087  -0.23127  -0.22975  -0.19852
 Alpha  occ. eigenvalues --   -0.18848
 Alpha virt. eigenvalues --   -0.09899  -0.08433  -0.04045  -0.02661  -0.01145
 Alpha virt. eigenvalues --   -0.00907   0.00416   0.00910   0.01953   0.03161
 Alpha virt. eigenvalues --    0.03398   0.04046   0.04378   0.04732   0.04801

 Mulliken charges:
               1
     1  C    0.053925
     2  C    0.000421
     3  C   -0.108889
     4  C   -0.122324
     5  N   -0.246749
     6  C   -0.067621
     7  C    0.038540
     8  C   -0.028831
     9  C   -0.006662
    10  C    0.105916
    11  C    0.077097
    12  C    0.005140
    13  C    0.194792
    14  O   -0.215444
    15  O   -0.315686
    16  N   -0.058803
    17  C    0.077489
    18  C   -0.088241
    19  C    0.052169
    20  C    0.188898
    21  C    0.015691
    22  C   -0.089289
    23  C   -0.032268
    24  N   -0.180320
    25  C   -0.032381
    26  C   -0.106567
    27  C   -0.066649
    28  C    0.012242
    29  C    0.012962
    30  C   -0.021166
    31  C    0.058649
    32  N    0.014449
    33  C    0.031636
    34  C   -0.116040
    35  C   -0.041150
    36  C    0.057304
    37  C    0.106755
    38  C    0.084130
    39  O   -0.082895
    40  C   -0.155404
    41  C    0.226440
    42  O   -0.271387
    43  O   -0.302909
    44  C    0.204334
    45  C    0.226005
    46  C   -0.089753
    47  C   -0.129848
    48  C    0.037740
    49  C    0.019746
    50  C    0.081124
    51  C    0.043111
    52  C   -0.013895
    53  C   -0.024027
    54  C   -0.005639
    55  C   -0.052083
    56  C    0.026883
    57  C   -0.081939
    58  C    0.044589
    59  C    0.063829
    60  C    0.107000
    61  C   -0.003989
    62  C   -0.127380
    63  C    0.001023
    64  C    0.021112
    65  H   -0.074724
    66  H    0.024165
    67  H    0.027686
    68  H   -0.024611
    69  H    0.016796
    70  H    0.025512
    71  H   -0.003953
    72  H   -0.006877
    73  H   -0.005671
    74  H    0.019107
    75  H    0.012682
    76  H    0.032141
    77  H    0.031061
    78  H    0.052099
    79  H    0.029147
    80  H    0.006692
    81  H    0.021781
    82  H    0.039185
    83  H    0.039977
    84  H    0.030184
    85  H    0.018517
    86  H   -0.005714
    87  H    0.004520
    88  H   -0.005895
    89  H    0.026718
    90  H    0.018368
    91  H   -0.004973
    92  H    0.028564
    93  H    0.065635
    94  H    0.106131
    95  H    0.036907
    96  H   -0.004099
    97  H    0.053828
    98  H    0.023257
    99  H   -0.012671
   100  H    0.008640
   101  H    0.028273
   102  H    0.003316
   103  H    0.014597
   104  H    0.016594
   105  H    0.009584
   106  H   -0.019927
   107  H    0.020946
   108  H   -0.041193
   109  H   -0.003290
   110  H   -0.023519
   111  H    0.030061
   112  H    0.015733
   113  H    0.015976
   114  H   -0.003838
   115  H    0.001833
   116  H    0.021345
   117  H    0.011735
   118  H   -0.005698
   119  H   -0.012932
   120  H   -0.013780
   121  H   -0.011215
   122  H   -0.012148
   123  H    0.003188
   124  H   -0.014196
   125  H   -0.058413
   126  H   -0.010976
   127  H   -0.041568
   128  H    0.006308
   129  H   -0.001987
   130  H    0.006041
   131  H    0.007727
   132  H    0.030615
   133  H    0.025556
   134  H    0.024217
   135  H    0.030181
   136  H    0.013205
   137  H    0.105482
   138  H    0.177143
 Sum of Mulliken charges =  -0.00000

 Dipole moment (field-independent basis, Debye):
    X=              1.8654    Y=              2.7276    Z=             -0.1507  Tot=              3.3079
 Quadrupole moment (field-independent basis, Debye-Ang):
   XX=           -367.5399   YY=           -378.2822   ZZ=           -397.3628
   XY=            -13.0969   XZ=              9.7818   YZ=             -1.0787

 Normal termination of Gaussian 16 at Wed Aug 14 23:50:32 2019.
