 Gaussian 16, Revision A.03,
 Gaussian 16:  ES64L-G16RevA.03 25-Dec-2016

 --------------------------
 # td=(NStates=1) B3LYP/SVP
 --------------------------

 --
 TD
 --
 Symbolic Z-matrix:
 Charge =  0 Multiplicity = 1

                         Standard orientation:
 ---------------------------------------------------------------------
 Center     Atomic      Atomic             Coordinates (Angstroms)
 Number     Number       Type             X           Y           Z
 ---------------------------------------------------------------------
      1          6           0       -5.163674   -1.994513    0.430043
      2          6           0       -4.658542    2.736355    1.533001
      3          6           0       -9.222535    3.407087   -0.346659
      4          6           0       -9.870788   -1.409475   -0.981114
      5          7           0       -5.199029    0.428283    0.847160
      6          6           0       -4.590895   -0.733417    0.693626
      7          6           0       -3.048280   -0.665224    1.311253
      8          6           0       -3.024114    0.859800    1.831026
      9          6           0       -4.386738    1.407993    1.376900
     10          6           0       -2.927309    0.838475    3.327397
     11          6           0       -2.068245   -0.816224    0.012415
     12          6           0       -0.669611   -0.917712    0.616946
     13          6           0        0.328514   -1.297057   -0.465581
     14          8           0       -0.006258   -1.846651   -1.548356
     15          8           0        1.539710   -0.824453   -0.306943
     16          7           0       -6.954628    2.753093    0.541078
     17          6           0       -5.859393    3.413455    1.063842
     18          6           0       -6.190948    4.847178    1.047810
     19          6           0       -7.429919    5.031480    0.460427
     20          6           0       -7.925221    3.706869    0.185983
     21          6           0       -5.086715    5.780307    1.582229
     22          6           0       -8.034435    6.377078    0.454687
     23          6           0       -9.084146    6.809229   -0.319226
     24          7           0       -9.178597    0.945476   -0.459073
     25          6           0       -9.750474    2.145430   -0.525437
     26          6           0      -11.158817    2.015698   -1.127329
     27          6           0      -11.365968    0.619942   -1.210519
     28          6           0      -10.107827    0.022961   -0.848718
     29          6           0      -12.039423    3.120078   -1.338435
     30          6           0      -12.599496   -0.003948   -1.797410
     31          6           0      -12.533411   -0.320015   -3.271317
     32          7           0       -7.526930   -1.259379   -0.122215
     33          6           0       -8.651917   -1.945861   -0.502993
     34          6           0       -8.248284   -3.335223   -0.544096
     35          6           0       -7.032105   -3.439635   -0.134891
     36          6           0       -6.501713   -2.120907    0.120755
     37          6           0       -9.145104   -4.512278   -0.935758
     38          6           0       -5.825696   -4.300711    0.116650
     39          8           0       -5.824527   -5.585776   -0.004170
     40          6           0       -4.593541   -3.334123    0.464417
     41          6           0       -4.014868   -3.819436    1.681474
     42          8           0       -4.097323   -3.198964    2.788113
     43          8           0       -3.145188   -4.911597    1.557036
     44          6           0       -2.644003   -5.511928    2.679875
     45          6           0        2.588475   -1.171863   -1.157401
     46          6           0        3.980543   -0.946249   -0.647978
     47          6           0        4.959411   -0.187540   -1.201304
     48          6           0        4.718400    0.469577   -2.594715
     49          6           0        6.318824    0.076667   -0.375751
     50          6           0        7.596295   -0.328503   -1.074110
     51          6           0        8.819681   -0.113128   -0.236160
     52          6           0       10.177567   -0.734420   -0.813835
     53          6           0        9.952317   -2.274821   -0.909304
     54          6           0       11.362135   -0.479618    0.031971
     55          6           0       12.683947   -0.660003   -0.559992
     56          6           0       13.860109   -0.055124    0.329320
     57          6           0       15.205737   -0.122344   -0.377140
     58          6           0       15.771070   -1.601631   -0.513337
     59          6           0       16.223696    0.658117    0.427171
     60          6           0       17.700912    0.716940   -0.077471
     61          6           0       18.498281    1.750909    0.701236
     62          6           0       20.011280    1.815181    0.154926
     63          6           0       20.090333    2.450137   -1.288844
     64          6           0       20.983410    2.502025    1.039668
     65          1           0       -3.782205    3.397351    1.907599
     66          1           0      -10.027245    4.208419   -0.567672
     67          1           0      -10.648483   -2.165349   -1.122012
     68          1           0       -2.757940   -1.370424    2.159647
     69          1           0       -2.192953    1.410593    1.335666
     70          1           0       -1.875393    0.616128    3.851962
     71          1           0       -3.255733    1.816016    3.987535
     72          1           0       -3.611623    0.219849    3.833213
     73          1           0       -2.488560   -1.650190   -0.570302
     74          1           0       -2.138459    0.333001   -0.440469
     75          1           0       -0.406447    0.068567    1.063329
     76          1           0       -0.716282   -1.859788    1.387363
     77          1           0       -4.316635    5.839937    0.930865
     78          1           0       -5.445757    6.702593    1.887639
     79          1           0       -4.775087    5.316340    2.448122
     80          1           0       -7.711411    7.125096    0.990572
     81          1           0       -9.482526    6.194984   -1.089714
     82          1           0       -9.578375    7.772338    0.010788
     83          1           0      -12.257800    3.587326   -0.480887
     84          1           0      -11.576527    3.762853   -2.027737
     85          1           0      -12.940726    2.876958   -1.800484
     86          1           0      -12.535757   -1.036752   -1.294755
     87          1           0      -13.501675    0.652173   -1.629103
     88          1           0      -12.213855    0.599238   -3.953279
     89          1           0      -11.698109   -1.014697   -3.459264
     90          1           0      -13.413944   -0.516391   -3.686607
     91          1           0      -10.120028   -4.269588   -0.401423
     92          1           0       -9.511470   -4.597503   -2.038627
     93          1           0       -8.835216   -5.475662   -0.795911
     94          1           0       -4.146416   -3.530018   -0.460747
     95          1           0       -2.143632   -6.341709    2.277003
     96          1           0       -2.007391   -4.866719    3.226373
     97          1           0       -3.517288   -5.877330    3.175724
     98          1           0        2.448130   -2.309102   -1.273219
     99          1           0        2.260318   -0.765793   -2.110656
    100          1           0        4.166394   -1.306146    0.363130
    101          1           0        5.287006    1.479663   -2.740843
    102          1           0        5.320024   -0.157029   -3.300559
    103          1           0        3.870961    0.342057   -2.904027
    104          1           0        6.295732    1.186037   -0.402777
    105          1           0        6.309741   -0.400201    0.599405
    106          1           0        7.264937   -1.341952   -1.381850
    107          1           0        7.940318    0.305206   -1.955738
    108          1           0        9.108557    1.090476   -0.255453
    109          1           0        8.717147   -0.492583    0.724057
    110          1           0       10.313671   -0.362069   -1.737652
    111          1           0        9.040313   -2.540807   -1.721964
    112          1           0       10.991135   -2.725634   -1.298962
    113          1           0        9.550216   -2.797037   -0.055649
    114          1           0       11.035500    0.566148    0.072461
    115          1           0       11.257190   -0.931637    0.993888
    116          1           0       12.960612   -1.643305   -0.966370
    117          1           0       12.887386   -0.244433   -1.544905
    118          1           0       13.723904    0.897011    0.583198
    119          1           0       13.744095   -0.478942    1.379390
    120          1           0       15.278153    0.298270   -1.405118
    121          1           0       15.229646   -2.119259   -1.279299
    122          1           0       16.839428   -1.758137   -0.906811
    123          1           0       15.692361   -2.118873    0.389027
    124          1           0       15.826294    1.541333    0.521573
    125          1           0       16.310603    0.148159    1.364178
    126          1           0       17.974782   -0.478570    0.178400
    127          1           0       17.836003    1.026126   -1.021962
    128          1           0       17.907977    2.564555    0.421786
    129          1           0       18.637070    1.437759    1.757752
    130          1           0       20.315139    0.713162    0.124954
    131          1           0       19.824786    3.534781   -1.195481
    132          1           0       21.047393    2.286011   -1.687769
    133          1           0       19.620871    1.955907   -2.169619
    134          1           0       21.026476    2.104453    2.132875
    135          1           0       21.917518    2.691599    0.635123
    136          1           0       20.634210    3.677654    1.162336
    137          1           0       -7.216646    1.748750    0.582810
    138          1           0       -7.542124   -0.240259    0.152502
 ---------------------------------------------------------------------

 SCF Done:  E(RB3LYP) =  -2733.03607858     A.U. after   17 cycles

 Excitation energies and oscillator strengths:

 Excited State   1:      Singlet-A      2.0128 eV  615.98 nm  f=0.2038  <S**2>=0.000
     235 -> 238       -0.27811
     236 -> 237        0.64444
 This state for optimization and/or second-order correction.
 Total Energy, E(TD-HF/TD-DFT) =  -2732.96210994
 Copying the excited state density for this state as the 1-particle RhoCI density.

 The electronic state is 1-A.
 Alpha  occ. eigenvalues --  -19.17778 -19.17157 -19.13424 -19.12727 -19.10882
 Alpha  occ. eigenvalues --  -14.37767 -14.37211 -14.32673 -14.30073 -10.32590
 Alpha  occ. eigenvalues --  -10.31130 -10.29995 -10.24924 -10.24348 -10.24203
 Alpha  occ. eigenvalues --  -10.23907 -10.23902 -10.23273 -10.22980 -10.22741
 Alpha  occ. eigenvalues --  -10.22572 -10.22126 -10.21666 -10.21312 -10.21278
 Alpha  occ. eigenvalues --  -10.20986 -10.20965 -10.20839 -10.20786 -10.20685
 Alpha  occ. eigenvalues --  -10.20540 -10.20529 -10.20480 -10.20476 -10.20475
 Alpha  occ. eigenvalues --  -10.20017 -10.19977 -10.19813 -10.19813 -10.19550
 Alpha  occ. eigenvalues --  -10.19544 -10.19469 -10.19400 -10.19110 -10.19097
 Alpha  occ. eigenvalues --  -10.19044 -10.18891 -10.18840 -10.18733 -10.18568
 Alpha  occ. eigenvalues --  -10.18395 -10.18200 -10.18028 -10.17955 -10.17934
 Alpha  occ. eigenvalues --  -10.17886 -10.17718 -10.17708 -10.17647 -10.17617
 Alpha  occ. eigenvalues --  -10.17260 -10.16981 -10.16862 -10.15716  -1.10554
 Alpha  occ. eigenvalues --   -1.08234  -1.00053  -0.98916  -0.98846  -0.97898
 Alpha  occ. eigenvalues --   -0.97301  -0.93770  -0.93433  -0.86732  -0.83188
 Alpha  occ. eigenvalues --   -0.81880  -0.81797  -0.81754  -0.81260  -0.80446
 Alpha  occ. eigenvalues --   -0.80027  -0.79948  -0.79483  -0.79125  -0.78146
 Alpha  occ. eigenvalues --   -0.77626  -0.76784  -0.75925  -0.75388  -0.74967
 Alpha  occ. eigenvalues --   -0.74177  -0.73550  -0.72683  -0.72143  -0.71641
 Alpha  occ. eigenvalues --   -0.70395  -0.69829  -0.69304  -0.68695  -0.67699
 Alpha  occ. eigenvalues --   -0.67345  -0.67288  -0.66606  -0.66391  -0.65418
 Alpha  occ. eigenvalues --   -0.64195  -0.62553  -0.62310  -0.61910  -0.61516
 Alpha  occ. eigenvalues --   -0.60671  -0.58903  -0.58653  -0.58538  -0.58053
 Alpha  occ. eigenvalues --   -0.56970  -0.56697  -0.56399  -0.56066  -0.55697
 Alpha  occ. eigenvalues --   -0.55568  -0.55549  -0.55170  -0.54782  -0.53991
 Alpha  occ. eigenvalues --   -0.53525  -0.52952  -0.52511  -0.51878  -0.50528
 Alpha  occ. eigenvalues --   -0.50370  -0.49710  -0.49300  -0.49205  -0.49021
 Alpha  occ. eigenvalues --   -0.48241  -0.47932  -0.47812  -0.47601  -0.47012
 Alpha  occ. eigenvalues --   -0.46943  -0.46741  -0.46499  -0.46289  -0.46116
 Alpha  occ. eigenvalues --   -0.46102  -0.45756  -0.45644  -0.45620  -0.45208
 Alpha  occ. eigenvalues --   -0.45080  -0.44761  -0.44672  -0.44264  -0.43947
 Alpha  occ. eigenvalues --   -0.43880  -0.43542  -0.43494  -0.43308  -0.42500
 Alpha  occ. eigenvalues --   -0.42239  -0.42149  -0.42016  -0.41968  -0.41450
 Alpha  occ. eigenvalues --   -0.41407  -0.41379  -0.41290  -0.40688  -0.40552
 Alpha  occ. eigenvalues --   -0.40385  -0.40248  -0.40048  -0.39589  -0.39520
 Alpha  occ. eigenvalues --   -0.39308  -0.39249  -0.38763  -0.38701  -0.38603
 Alpha  occ. eigenvalues --   -0.38551  -0.38109  -0.37986  -0.37767  -0.37652
 Alpha  occ. eigenvalues --   -0.37332  -0.37082  -0.36954  -0.36897  -0.36775
 Alpha  occ. eigenvalues --   -0.36724  -0.36601  -0.36467  -0.36313  -0.36031
 Alpha  occ. eigenvalues --   -0.35823  -0.35780  -0.35400  -0.34844  -0.34801
 Alpha  occ. eigenvalues --   -0.34755  -0.34573  -0.34483  -0.33635  -0.33236
 Alpha  occ. eigenvalues --   -0.33106  -0.32987  -0.32722  -0.32458  -0.31980
 Alpha  occ. eigenvalues --   -0.31909  -0.31790  -0.31346  -0.31324  -0.30869
 Alpha  occ. eigenvalues --   -0.30769  -0.30341  -0.30219  -0.29793  -0.29602
 Alpha  occ. eigenvalues --   -0.29520  -0.28598  -0.28074  -0.27846  -0.27721
 Alpha  occ. eigenvalues --   -0.27496  -0.27114  -0.26780  -0.26310  -0.26074
 Alpha  occ. eigenvalues --   -0.25439  -0.24606  -0.23842  -0.22157  -0.20396
 Alpha  occ. eigenvalues --   -0.18951
 Alpha virt. eigenvalues --   -0.10596  -0.08042  -0.05238  -0.02739  -0.02049
 Alpha virt. eigenvalues --   -0.00460   0.00052   0.00208   0.02083   0.03407
 Alpha virt. eigenvalues --    0.03825   0.04400   0.04818   0.05045   0.05555

 Mulliken charges:
               1
     1  C    0.037829
     2  C   -0.059742
     3  C   -0.102023
     4  C   -0.066432
     5  N   -0.159025
     6  C   -0.060868
     7  C   -0.162017
     8  C    0.018847
     9  C   -0.001084
    10  C   -0.006294
    11  C   -0.001504
    12  C    0.026952
    13  C    0.172697
    14  O   -0.293513
    15  O   -0.257529
    16  N   -0.083828
    17  C    0.075013
    18  C   -0.180713
    19  C    0.062496
    20  C    0.101498
    21  C    0.237896
    22  C   -0.002917
    23  C   -0.038362
    24  N   -0.224888
    25  C    0.031952
    26  C   -0.207150
    27  C   -0.098212
    28  C    0.068142
    29  C    0.242350
    30  C    0.056099
    31  C    0.051198
    32  N   -0.049671
    33  C    0.052473
    34  C   -0.199334
    35  C    0.130405
    36  C    0.003015
    37  C    0.096507
    38  C    0.022349
    39  O   -0.228361
    40  C    0.099700
    41  C    0.266473
    42  O   -0.275077
    43  O   -0.320887
    44  C    0.253699
    45  C    0.245573
    46  C   -0.067746
    47  C   -0.193129
    48  C    0.216313
    49  C    0.115483
    50  C   -0.019196
    51  C    0.006988
    52  C   -0.028551
    53  C   -0.053643
    54  C    0.138920
    55  C    0.057085
    56  C    0.099560
    57  C   -0.077636
    58  C    0.026428
    59  C    0.103319
    60  C   -0.000529
    61  C    0.094279
    62  C   -0.106432
    63  C    0.014511
    64  C    0.037494
    65  H    0.012343
    66  H   -0.000470
    67  H   -0.007736
    68  H    0.058050
    69  H    0.004808
    70  H    0.025370
    71  H    0.004223
    72  H    0.013307
    73  H    0.038004
    74  H    0.032949
    75  H    0.038741
    76  H    0.054265
    77  H    0.006402
    78  H   -0.015547
    79  H   -0.002706
    80  H   -0.071697
    81  H    0.017292
    82  H    0.034401
    83  H   -0.000052
    84  H    0.000909
    85  H   -0.029985
    86  H    0.007042
    87  H    0.012037
    88  H   -0.003844
    89  H    0.009747
    90  H   -0.017596
    91  H    0.028497
    92  H    0.030329
    93  H    0.007592
    94  H    0.050295
    95  H    0.009449
    96  H    0.014080
    97  H    0.010637
    98  H    0.018052
    99  H    0.009266
   100  H   -0.017447
   101  H    0.027945
   102  H    0.011019
   103  H   -0.092850
   104  H    0.003419
   105  H    0.002039
   106  H    0.020135
   107  H    0.005834
   108  H    0.013376
   109  H   -0.025443
   110  H   -0.050485
   111  H    0.013751
   112  H    0.026764
   113  H    0.006727
   114  H   -0.023861
   115  H   -0.016993
   116  H   -0.021546
   117  H   -0.040201
   118  H   -0.059934
   119  H   -0.012169
   120  H   -0.009983
   121  H   -0.010542
   122  H    0.016650
   123  H   -0.009701
   124  H   -0.065905
   125  H   -0.025237
   126  H    0.016241
   127  H   -0.044432
   128  H   -0.024788
   129  H   -0.003791
   130  H   -0.001760
   131  H    0.022490
   132  H   -0.012262
   133  H    0.009298
   134  H    0.025116
   135  H   -0.009572
   136  H   -0.007653
   137  H    0.161465
   138  H    0.168588
 Sum of Mulliken charges =  -0.00000

 Dipole moment (field-independent basis, Debye):
    X=              1.6692    Y=              4.5191    Z=              0.4888  Tot=              4.8423
 Quadrupole moment (field-independent basis, Debye-Ang):
   XX=           -338.9573   YY=           -386.0318   ZZ=           -394.7600
   XY=            -19.4297   XZ=              2.4070   YZ=             -3.2916

 Normal termination of Gaussian 16 at Fri Aug  9 13:24:44 2019.
