 Gaussian 16, Revision A.03,
 Gaussian 16:  ES64L-G16RevA.03 25-Dec-2016

 --------------------------
 # td=(NStates=1) B3LYP/SVP
 --------------------------

 --
 TD
 --
 Symbolic Z-matrix:
 Charge =  0 Multiplicity = 1

                         Standard orientation:
 ---------------------------------------------------------------------
 Center     Atomic      Atomic             Coordinates (Angstroms)
 Number     Number       Type             X           Y           Z
 ---------------------------------------------------------------------
      1          6           0       -5.093829   -1.907445    0.489961
      2          6           0       -4.784884    2.788182    1.307053
      3          6           0       -9.382715    3.267957   -0.318777
      4          6           0       -9.845950   -1.480972   -0.840825
      5          7           0       -5.237306    0.392732    0.716297
      6          6           0       -4.396829   -0.685485    0.681055
      7          6           0       -2.973112   -0.478035    1.101730
      8          6           0       -3.085062    0.898386    1.699359
      9          6           0       -4.417885    1.442298    1.153426
     10          6           0       -3.034300    0.964140    3.210800
     11          6           0       -2.059276   -0.705386   -0.064610
     12          6           0       -0.637471   -0.568226    0.372923
     13          6           0        0.330814   -0.775194   -0.786902
     14          8           0       -0.047859   -1.006716   -1.961959
     15          8           0        1.629209   -0.698075   -0.387140
     16          7           0       -7.082730    2.742156    0.378994
     17          6           0       -5.944003    3.382440    0.975988
     18          6           0       -6.318858    4.846907    1.082310
     19          6           0       -7.655148    4.971201    0.621703
     20          6           0       -8.066677    3.626970    0.220418
     21          6           0       -5.383180    5.853965    1.763968
     22          6           0       -8.250747    6.237916    0.335239
     23          6           0       -9.377580    6.573847   -0.392136
     24          7           0       -9.135840    0.826713   -0.541993
     25          6           0       -9.796725    2.094579   -0.563390
     26          6           0      -11.179586    1.787993   -1.060324
     27          6           0      -11.376956    0.490672   -1.147130
     28          6           0      -10.004166   -0.131590   -0.930208
     29          6           0      -12.246022    2.950816   -1.119842
     30          6           0      -12.511278   -0.392846   -1.592628
     31          6           0      -12.538338   -0.826799   -3.014011
     32          7           0       -7.516263   -1.347618   -0.153152
     33          6           0       -8.552270   -2.182466   -0.444840
     34          6           0       -8.137537   -3.553275   -0.509173
     35          6           0       -6.781234   -3.446905   -0.117689
     36          6           0       -6.442808   -2.100674    0.110782
     37          6           0       -8.934032   -4.706290   -0.817242
     38          6           0       -5.663723   -4.351613    0.237153
     39          8           0       -5.518785   -5.558187    0.183027
     40          6           0       -4.394140   -3.336555    0.425451
     41          6           0       -3.638256   -3.702997    1.719496
     42          8           0       -3.797247   -3.159648    2.837004
     43          8           0       -3.044638   -4.874751    1.565120
     44          6           0       -2.316635   -5.417330    2.777226
     45          6           0        2.611583   -1.071127   -1.293734
     46          6           0        3.975543   -0.658299   -0.717460
     47          6           0        5.023253    0.022728   -1.284836
     48          6           0        4.854148    0.660374   -2.547282
     49          6           0        6.314826    0.261957   -0.422938
     50          6           0        7.463851   -0.412301   -1.069429
     51          6           0        8.785660   -0.136625   -0.227300
     52          6           0       10.032756   -0.768294   -0.777959
     53          6           0        9.980803   -2.293952   -0.790928
     54          6           0       11.275698   -0.335581   -0.014834
     55          6           0       12.686740   -0.625637   -0.540835
     56          6           0       13.780685    0.060261    0.317072
     57          6           0       15.259620   -0.268725   -0.316620
     58          6           0       15.550032   -1.687495   -0.328582
     59          6           0       16.249112    0.548733    0.428442
     60          6           0       17.602740    0.602372   -0.129449
     61          6           0       18.534035    1.469866    0.727907
     62          6           0       20.018873    1.681683    0.075275
     63          6           0       20.047330    2.602603   -1.253520
     64          6           0       20.753732    2.338154    1.338933
     65          1           0       -4.077741    3.555587    2.053223
     66          1           0       -9.989596    4.007238   -0.149754
     67          1           0      -10.730699   -2.138040   -1.185266
     68          1           0       -2.865643   -1.246845    1.894168
     69          1           0       -2.381941    1.552106    1.235595
     70          1           0       -2.233355    0.924623    3.624462
     71          1           0       -3.284939    1.997804    3.599021
     72          1           0       -3.861160    0.274312    3.589490
     73          1           0       -2.015148   -1.644517   -0.504723
     74          1           0       -2.343248   -0.005401   -0.842948
     75          1           0       -0.394941    0.525176    0.803978
     76          1           0       -0.425050   -1.071904    1.351855
     77          1           0       -4.541792    6.160300    1.091484
     78          1           0       -5.995782    6.763638    1.894660
     79          1           0       -4.978755    5.294743    2.818003
     80          1           0       -7.815324    7.199639    0.735180
     81          1           0       -9.852843    6.026595   -1.166852
     82          1           0       -9.616601    7.623610   -0.428628
     83          1           0      -12.078939    3.512494   -0.182446
     84          1           0      -12.030657    3.585352   -1.709225
     85          1           0      -13.197333    2.377241   -1.224838
     86          1           0      -12.516134   -1.218852   -0.836790
     87          1           0      -13.264557    0.181977   -1.236352
     88          1           0      -12.622131    0.137804   -3.401588
     89          1           0      -11.606350   -1.404830   -3.418774
     90          1           0      -13.501243   -1.160815   -3.462187
     91          1           0      -10.009564   -4.677505   -0.176486
     92          1           0       -9.060379   -4.923123   -1.763491
     93          1           0       -8.596326   -5.605677   -0.249898
     94          1           0       -3.625263   -3.333252   -0.498648
     95          1           0       -1.444787   -6.066516    2.401095
     96          1           0       -1.887547   -4.724720    3.471616
     97          1           0       -2.991061   -5.980838    3.333893
     98          1           0        2.545738   -2.257559   -1.744174
     99          1           0        2.261809   -0.684966   -2.182048
    100          1           0        3.917751   -0.890266    0.430422
    101          1           0        5.269091    1.759779   -2.663603
    102          1           0        5.568648    0.074963   -3.244315
    103          1           0        3.710997    0.765899   -3.007698
    104          1           0        6.465710    1.329409   -0.513855
    105          1           0        6.295485    0.027246    0.525303
    106          1           0        7.277542   -1.504053   -1.258825
    107          1           0        7.651741   -0.044414   -2.257251
    108          1           0        8.945905    0.943584   -0.297371
    109          1           0        8.590497   -0.322802    1.003141
    110          1           0       10.393905   -0.419821   -1.859376
    111          1           0        9.236192   -2.701065   -1.371310
    112          1           0       10.948579   -2.845250   -1.187745
    113          1           0        9.905063   -2.874432    0.193252
    114          1           0       11.013479    0.747265    0.311433
    115          1           0       11.239554   -0.651041    1.001124
    116          1           0       12.883078   -1.612243   -0.721323
    117          1           0       12.695319   -0.087851   -1.598899
    118          1           0       13.602882    1.262004    0.237039
    119          1           0       13.668764   -0.170045    1.362366
    120          1           0       15.284651    0.084011   -1.284645
    121          1           0       14.758544   -2.306758   -0.653325
    122          1           0       16.352151   -1.946861   -1.111318
    123          1           0       15.726667   -2.007851    0.634419
    124          1           0       15.686422    1.582235    0.600635
    125          1           0       16.520176    0.067540    1.547743
    126          1           0       18.021536   -0.489468   -0.545590
    127          1           0       17.290055    1.049814   -1.097113
    128          1           0       17.924688    2.446986    0.636202
    129          1           0       18.814414    1.059204    1.687607
    130          1           0       20.365283    0.588761   -0.431159
    131          1           0       19.829182    3.542400   -0.650678
    132          1           0       20.987306    2.839152   -1.498122
    133          1           0       19.613285    1.866651   -2.070776
    134          1           0       20.767464    1.556917    2.243127
    135          1           0       21.788499    2.462854    0.888074
    136          1           0       20.435552    3.346990    1.456311
    137          1           0       -7.170441    1.753005    0.175876
    138          1           0       -7.670540   -0.269480   -0.261251
 ---------------------------------------------------------------------

 SCF Done:  E(RB3LYP) =  -2732.90657509     A.U. after   18 cycles

 Excitation energies and oscillator strengths:

 Excited State   1:      Singlet-A      1.9334 eV  641.28 nm  f=0.2564  <S**2>=0.000
     235 -> 238        0.24397
     236 -> 237        0.66115
 This state for optimization and/or second-order correction.
 Total Energy, E(TD-HF/TD-DFT) =  -2732.83552410
 Copying the excited state density for this state as the 1-particle RhoCI density.

 The electronic state is 1-A.
 Alpha  occ. eigenvalues --  -19.18715 -19.18416 -19.13324 -19.12449 -19.11667
 Alpha  occ. eigenvalues --  -14.37635 -14.36405 -14.33222 -14.30092 -10.32783
 Alpha  occ. eigenvalues --  -10.31585 -10.28181 -10.25206 -10.24907 -10.24508
 Alpha  occ. eigenvalues --  -10.23960 -10.23471 -10.22910 -10.22742 -10.22459
 Alpha  occ. eigenvalues --  -10.22399 -10.22310 -10.21896 -10.21608 -10.21340
 Alpha  occ. eigenvalues --  -10.21201 -10.21188 -10.20985 -10.20912 -10.20858
 Alpha  occ. eigenvalues --  -10.20853 -10.20784 -10.20676 -10.20619 -10.20435
 Alpha  occ. eigenvalues --  -10.20380 -10.20014 -10.19880 -10.19801 -10.19780
 Alpha  occ. eigenvalues --  -10.19521 -10.19437 -10.19316 -10.19151 -10.19053
 Alpha  occ. eigenvalues --  -10.18984 -10.18777 -10.18729 -10.18688 -10.18492
 Alpha  occ. eigenvalues --  -10.18452 -10.18432 -10.18423 -10.18401 -10.18379
 Alpha  occ. eigenvalues --  -10.18356 -10.17930 -10.17817 -10.17666 -10.17659
 Alpha  occ. eigenvalues --  -10.17635 -10.17596 -10.17590 -10.16540  -1.09990
 Alpha  occ. eigenvalues --   -1.08480  -1.02327  -1.00108  -0.98631  -0.98068
 Alpha  occ. eigenvalues --   -0.97844  -0.94027  -0.92120  -0.83367  -0.82940
 Alpha  occ. eigenvalues --   -0.82632  -0.82450  -0.81715  -0.81414  -0.81007
 Alpha  occ. eigenvalues --   -0.80206  -0.80015  -0.79221  -0.78547  -0.78239
 Alpha  occ. eigenvalues --   -0.76928  -0.75834  -0.75162  -0.75058  -0.74895
 Alpha  occ. eigenvalues --   -0.74077  -0.73124  -0.72868  -0.72367  -0.70778
 Alpha  occ. eigenvalues --   -0.70664  -0.69678  -0.68877  -0.68253  -0.67773
 Alpha  occ. eigenvalues --   -0.67731  -0.67050  -0.66296  -0.65733  -0.65524
 Alpha  occ. eigenvalues --   -0.64259  -0.63328  -0.62910  -0.62201  -0.61841
 Alpha  occ. eigenvalues --   -0.61220  -0.58662  -0.58249  -0.58104  -0.57432
 Alpha  occ. eigenvalues --   -0.57068  -0.57042  -0.55826  -0.55539  -0.55346
 Alpha  occ. eigenvalues --   -0.54740  -0.54701  -0.53937  -0.53744  -0.53202
 Alpha  occ. eigenvalues --   -0.52110  -0.52017  -0.51602  -0.50798  -0.50167
 Alpha  occ. eigenvalues --   -0.49569  -0.49058  -0.48908  -0.48698  -0.48019
 Alpha  occ. eigenvalues --   -0.48002  -0.47699  -0.47462  -0.47079  -0.46936
 Alpha  occ. eigenvalues --   -0.46466  -0.46425  -0.46224  -0.46179  -0.45786
 Alpha  occ. eigenvalues --   -0.45616  -0.45272  -0.45052  -0.44935  -0.44649
 Alpha  occ. eigenvalues --   -0.44481  -0.44193  -0.44016  -0.43884  -0.43753
 Alpha  occ. eigenvalues --   -0.43680  -0.43290  -0.43118  -0.42767  -0.42534
 Alpha  occ. eigenvalues --   -0.42496  -0.42163  -0.41999  -0.41785  -0.41708
 Alpha  occ. eigenvalues --   -0.41353  -0.41223  -0.41061  -0.40915  -0.40779
 Alpha  occ. eigenvalues --   -0.40703  -0.40369  -0.40261  -0.39880  -0.39523
 Alpha  occ. eigenvalues --   -0.39423  -0.39013  -0.38823  -0.38739  -0.38544
 Alpha  occ. eigenvalues --   -0.38187  -0.38120  -0.37966  -0.37781  -0.37595
 Alpha  occ. eigenvalues --   -0.37461  -0.37162  -0.36922  -0.36818  -0.36529
 Alpha  occ. eigenvalues --   -0.36453  -0.36228  -0.36154  -0.36071  -0.35993
 Alpha  occ. eigenvalues --   -0.35649  -0.35438  -0.35171  -0.34759  -0.34706
 Alpha  occ. eigenvalues --   -0.34566  -0.34378  -0.34147  -0.34013  -0.33584
 Alpha  occ. eigenvalues --   -0.33300  -0.32840  -0.32622  -0.32452  -0.32208
 Alpha  occ. eigenvalues --   -0.32180  -0.31818  -0.31482  -0.31347  -0.31295
 Alpha  occ. eigenvalues --   -0.31154  -0.30286  -0.30147  -0.30095  -0.29866
 Alpha  occ. eigenvalues --   -0.28856  -0.28761  -0.28439  -0.28092  -0.27787
 Alpha  occ. eigenvalues --   -0.27464  -0.27109  -0.26805  -0.25909  -0.25628
 Alpha  occ. eigenvalues --   -0.24550  -0.23836  -0.23701  -0.23323  -0.19431
 Alpha  occ. eigenvalues --   -0.18478
 Alpha virt. eigenvalues --   -0.10778  -0.06498  -0.04625  -0.02774  -0.02018
 Alpha virt. eigenvalues --   -0.00587  -0.00526   0.00267   0.01514   0.02411
 Alpha virt. eigenvalues --    0.03359   0.03400   0.04225   0.04435   0.04943

 Mulliken charges:
               1
     1  C   -0.011746
     2  C   -0.109195
     3  C   -0.055344
     4  C   -0.110013
     5  N   -0.197093
     6  C   -0.084913
     7  C   -0.011927
     8  C    0.001515
     9  C   -0.019773
    10  C    0.204782
    11  C    0.153679
    12  C   -0.039929
    13  C    0.228652
    14  O   -0.270311
    15  O   -0.283993
    16  N   -0.051195
    17  C    0.090994
    18  C   -0.132543
    19  C    0.082581
    20  C   -0.000949
    21  C    0.045459
    22  C   -0.086751
    23  C   -0.042443
    24  N   -0.314527
    25  C    0.212192
    26  C   -0.197367
    27  C   -0.167162
    28  C    0.083791
    29  C    0.282265
    30  C    0.146845
    31  C    0.063044
    32  N   -0.038179
    33  C    0.030751
    34  C   -0.112677
    35  C   -0.043485
    36  C    0.115820
    37  C    0.098604
    38  C    0.120382
    39  O   -0.162850
    40  C   -0.132587
    41  C    0.209994
    42  O   -0.283542
    43  O   -0.285981
    44  C    0.199279
    45  C    0.230109
    46  C   -0.115267
    47  C   -0.102665
    48  C   -0.028958
    49  C    0.241634
    50  C   -0.089502
    51  C    0.006196
    52  C   -0.042019
    53  C    0.023576
    54  C    0.020212
    55  C    0.094405
    56  C   -0.034557
    57  C   -0.002503
    58  C    0.103272
    59  C   -0.044440
    60  C   -0.014838
    61  C    0.084244
    62  C   -0.232522
    63  C    0.061707
    64  C    0.015007
    65  H    0.035122
    66  H   -0.096110
    67  H    0.014181
    68  H    0.021932
    69  H   -0.034871
    70  H   -0.084855
    71  H   -0.016870
    72  H    0.045215
    73  H   -0.009442
    74  H    0.003783
    75  H    0.034847
    76  H    0.033618
    77  H    0.043615
    78  H    0.022601
    79  H    0.068677
    80  H    0.010267
    81  H    0.017642
    82  H    0.011875
    83  H    0.011454
    84  H   -0.098063
    85  H    0.021481
    86  H   -0.006007
    87  H   -0.051835
    88  H   -0.017130
    89  H    0.045263
    90  H    0.007107
    91  H    0.029650
    92  H    0.001440
    93  H    0.029111
    94  H    0.094814
    95  H    0.047229
    96  H    0.033203
    97  H    0.028959
    98  H    0.030162
    99  H   -0.028951
   100  H    0.017845
   101  H    0.033567
   102  H    0.035683
   103  H    0.057939
   104  H   -0.012724
   105  H   -0.057734
   106  H    0.015934
   107  H    0.013311
   108  H   -0.003180
   109  H    0.023413
   110  H    0.008494
   111  H   -0.018522
   112  H    0.003269
   113  H    0.002915
   114  H   -0.029220
   115  H   -0.045848
   116  H   -0.021554
   117  H   -0.004526
   118  H    0.011957
   119  H   -0.001627
   120  H   -0.047578
   121  H   -0.026761
   122  H    0.013391
   123  H   -0.020415
   124  H    0.011873
   125  H   -0.013600
   126  H    0.012006
   127  H   -0.020713
   128  H    0.012793
   129  H    0.003297
   130  H    0.011124
   131  H    0.004827
   132  H   -0.029401
   133  H    0.055910
   134  H    0.053267
   135  H    0.006922
   136  H    0.014942
   137  H    0.142113
   138  H    0.190254
 Sum of Mulliken charges =  -0.00000

 Dipole moment (field-independent basis, Debye):
    X=              3.2362    Y=              4.0629    Z=              1.0103  Tot=              5.2915
 Quadrupole moment (field-independent basis, Debye-Ang):
   XX=           -358.4873   YY=           -380.8300   ZZ=           -394.7205
   XY=            -21.2981   XZ=              6.5196   YZ=             -0.5365

 Normal termination of Gaussian 16 at Tue Aug 27 12:10:40 2019.
