 Gaussian 16, Revision A.03,
 Gaussian 16:  ES64L-G16RevA.03 25-Dec-2016

 --------------------------
 # td=(NStates=1) B3LYP/SVP
 --------------------------

 --
 TD
 --
 Symbolic Z-matrix:
 Charge =  0 Multiplicity = 1

                         Standard orientation:
 ---------------------------------------------------------------------
 Center     Atomic      Atomic             Coordinates (Angstroms)
 Number     Number       Type             X           Y           Z
 ---------------------------------------------------------------------
      1          6           0       -5.109999   -1.797680    0.472221
      2          6           0       -4.710001    2.899574    1.324845
      3          6           0       -9.375192    3.374397   -0.301007
      4          6           0       -9.850346   -1.483328   -0.799425
      5          7           0       -5.250460    0.594226    0.789946
      6          6           0       -4.585053   -0.601564    0.795689
      7          6           0       -3.141497   -0.476641    1.253501
      8          6           0       -3.095248    1.050698    1.767953
      9          6           0       -4.341616    1.530906    1.234080
     10          6           0       -2.976099    1.092424    3.340034
     11          6           0       -2.097207   -0.867973    0.119739
     12          6           0       -0.619508   -0.835906    0.657443
     13          6           0        0.366825   -1.136018   -0.464924
     14          8           0        0.026478   -1.671082   -1.528797
     15          8           0        1.607645   -0.826236   -0.120270
     16          7           0       -7.008214    2.802351    0.374877
     17          6           0       -5.936455    3.380736    0.921508
     18          6           0       -6.300664    4.831820    0.872367
     19          6           0       -7.561554    5.002187    0.461491
     20          6           0       -8.046587    3.698117    0.177006
     21          6           0       -5.294176    5.854532    1.484005
     22          6           0       -8.225192    6.377631    0.382638
     23          6           0       -9.185075    6.780526   -0.519613
     24          7           0       -9.264976    0.821682   -0.397035
     25          6           0       -9.855628    2.115769   -0.639104
     26          6           0      -11.257023    1.932028   -1.037918
     27          6           0      -11.472177    0.535836   -1.184026
     28          6           0      -10.152417   -0.124260   -0.753481
     29          6           0      -12.232606    3.002582   -1.192540
     30          6           0      -12.652775   -0.252835   -1.762059
     31          6           0      -12.581824   -0.693953   -3.157899
     32          7           0       -7.548253   -1.202363   -0.117750
     33          6           0       -8.647760   -2.056538   -0.489057
     34          6           0       -8.213408   -3.448481   -0.584195
     35          6           0       -6.755491   -3.449742   -0.182298
     36          6           0       -6.424185   -2.033293    0.055478
     37          6           0       -9.021537   -4.618201   -0.903368
     38          6           0       -5.616895   -4.332994   -0.063159
     39          8           0       -5.460438   -5.469018   -0.149517
     40          6           0       -4.366951   -3.238738    0.341372
     41          6           0       -3.719697   -3.851916    1.574207
     42          8           0       -3.941610   -3.377296    2.666767
     43          8           0       -3.005454   -4.951449    1.379188
     44          6           0       -2.380238   -5.448419    2.576446
     45          6           0        2.726782   -1.276894   -0.943679
     46          6           0        3.934386   -0.698652   -0.365481
     47          6           0        4.947526   -0.090387   -0.994645
     48          6           0        4.928586    0.452633   -2.411843
     49          6           0        6.261173    0.111260   -0.207226
     50          6           0        7.526647   -0.610108   -0.777140
     51          6           0        8.753596   -0.165279   -0.074800
     52          6           0       10.036914   -0.861038   -0.592161
     53          6           0       10.095449   -2.473338   -0.631620
     54          6           0       11.310014   -0.358027    0.108168
     55          6           0       12.682424   -0.772944   -0.428321
     56          6           0       13.781090   -0.007570    0.236597
     57          6           0       15.172283   -0.261680   -0.408011
     58          6           0       15.655446   -1.673283   -0.128423
     59          6           0       16.147983    0.810974    0.227952
     60          6           0       17.639662    0.744594   -0.278706
     61          6           0       18.445994    1.926658    0.365891
     62          6           0       20.004853    1.877588    0.023801
     63          6           0       20.219849    2.089764   -1.464778
     64          6           0       20.820803    3.003746    0.750765
     65          1           0       -3.943733    3.627448    1.844956
     66          1           0       -9.898873    4.303283   -0.313940
     67          1           0      -10.538519   -2.189252   -1.144489
     68          1           0       -2.906594   -1.260312    2.046930
     69          1           0       -2.269919    1.688159    1.422832
     70          1           0       -2.089230    0.550636    3.743871
     71          1           0       -3.113230    2.005432    3.682665
     72          1           0       -3.860866    0.567092    3.925121
     73          1           0       -2.268734   -1.832922   -0.277758
     74          1           0       -2.041946   -0.186281   -0.927546
     75          1           0       -0.098013    0.023160    0.918442
     76          1           0       -0.288810   -1.589156    1.368397
     77          1           0       -4.235507    5.499539    0.908180
     78          1           0       -5.540528    6.939828    0.998967
     79          1           0       -5.183350    5.920861    2.605665
     80          1           0       -7.660051    6.897351    1.123164
     81          1           0       -9.519429    6.046169   -1.331091
     82          1           0       -9.516987    7.745128   -0.681975
     83          1           0      -12.583267    3.348556   -0.251291
     84          1           0      -11.815026    3.762147   -1.911781
     85          1           0      -13.101577    2.541076   -1.693125
     86          1           0      -12.632177   -1.181800   -1.044629
     87          1           0      -13.646762    0.325369   -1.575234
     88          1           0      -12.494347    0.102905   -3.838262
     89          1           0      -11.615594   -1.389698   -3.295805
     90          1           0      -13.661693   -1.170407   -3.365038
     91          1           0       -9.838007   -4.838502   -0.117493
     92          1           0       -9.483068   -4.470929   -1.926676
     93          1           0       -8.422840   -5.562870   -1.024897
     94          1           0       -3.540155   -3.070781   -0.538844
     95          1           0       -1.720173   -6.194467    2.319716
     96          1           0       -1.961264   -4.489735    3.082789
     97          1           0       -3.172005   -5.927286    3.340286
     98          1           0        2.648278   -2.267151   -1.208753
     99          1           0        2.639119   -0.772177   -1.972296
    100          1           0        3.999182   -1.115238    0.762597
    101          1           0        4.904341    1.673795   -2.666920
    102          1           0        5.615137    0.121043   -3.167682
    103          1           0        3.947788    0.126777   -3.036794
    104          1           0        6.400456    1.183359   -0.415863
    105          1           0        6.176755   -0.187476    0.833258
    106          1           0        7.347240   -1.676707   -0.891394
    107          1           0        7.704117   -0.449563   -1.922729
    108          1           0        8.832287    1.005590    0.075839
    109          1           0        8.669390   -0.674978    0.855821
    110          1           0       10.115079   -0.704455   -1.707739
    111          1           0        9.143174   -2.972570   -1.098097
    112          1           0       10.986932   -2.806398   -1.046109
    113          1           0        9.973952   -2.784010    0.458718
    114          1           0       11.198726    0.677358    0.353334
    115          1           0       11.224221   -0.584203    1.307664
    116          1           0       12.757721   -1.800350   -0.355081
    117          1           0       12.442559   -0.749317   -1.823145
    118          1           0       13.706329    1.141008    0.297723
    119          1           0       13.706017   -0.285914    1.277834
    120          1           0       15.317790   -0.024629   -1.536080
    121          1           0       14.805429   -2.594192   -0.412393
    122          1           0       16.362870   -1.995095   -0.787425
    123          1           0       15.733631   -2.039436    0.938033
    124          1           0       15.669476    2.014301    0.046286
    125          1           0       16.368989    0.437657    1.277088
    126          1           0       17.932499   -0.445457    0.102855
    127          1           0       17.723697    0.744222   -1.441371
    128          1           0       18.206665    2.948824    0.239206
    129          1           0       18.115573    1.602316    1.454125
    130          1           0       20.655808    0.883562    0.311358
    131          1           0       19.889555    3.234220   -1.899300
    132          1           0       21.340799    2.258705   -1.771460
    133          1           0       19.625070    1.205302   -2.324629
    134          1           0       20.840113    2.724863    1.826174
    135          1           0       21.967692    2.991474    0.577716
    136          1           0       20.484137    4.156277    0.765120
    137          1           0       -7.171101    1.779606    0.584900
    138          1           0       -7.592075   -0.147132   -0.167436
 ---------------------------------------------------------------------

 SCF Done:  E(RB3LYP) =  -2733.01147215     A.U. after   16 cycles

 Excitation energies and oscillator strengths:

 Excited State   1:      Singlet-A      1.9963 eV  621.06 nm  f=0.1945  <S**2>=0.000
     235 -> 237       -0.12610
     235 -> 238       -0.25010
     236 -> 237        0.63778
     236 -> 238       -0.11106
 This state for optimization and/or second-order correction.
 Total Energy, E(TD-HF/TD-DFT) =  -2732.93810778
 Copying the excited state density for this state as the 1-particle RhoCI density.

 The electronic state is 1-A.
 Alpha  occ. eigenvalues --  -19.18058 -19.17873 -19.12958 -19.11163 -19.11136
 Alpha  occ. eigenvalues --  -14.36987 -14.36225 -14.32400 -14.30060 -10.30755
 Alpha  occ. eigenvalues --  -10.30705 -10.28085 -10.24956 -10.24633 -10.23777
 Alpha  occ. eigenvalues --  -10.23400 -10.23364 -10.23361 -10.22797 -10.22736
 Alpha  occ. eigenvalues --  -10.22435 -10.22131 -10.21958 -10.21808 -10.21712
 Alpha  occ. eigenvalues --  -10.21689 -10.21667 -10.21648 -10.21502 -10.21415
 Alpha  occ. eigenvalues --  -10.20908 -10.20713 -10.20705 -10.20622 -10.20616
 Alpha  occ. eigenvalues --  -10.20498 -10.20487 -10.20335 -10.20188 -10.20110
 Alpha  occ. eigenvalues --  -10.20105 -10.20059 -10.20054 -10.20005 -10.19904
 Alpha  occ. eigenvalues --  -10.19886 -10.19869 -10.19697 -10.19663 -10.19637
 Alpha  occ. eigenvalues --  -10.19585 -10.19449 -10.19345 -10.19315 -10.19286
 Alpha  occ. eigenvalues --  -10.19167 -10.19158 -10.19028 -10.18882 -10.18840
 Alpha  occ. eigenvalues --  -10.18807 -10.18788 -10.18403 -10.18351  -1.09849
 Alpha  occ. eigenvalues --   -1.09166  -1.06612  -0.99922  -0.98870  -0.98712
 Alpha  occ. eigenvalues --   -0.94911  -0.93730  -0.91060  -0.82922  -0.82883
 Alpha  occ. eigenvalues --   -0.81852  -0.81767  -0.80704  -0.80116  -0.79676
 Alpha  occ. eigenvalues --   -0.79318  -0.79288  -0.79177  -0.78572  -0.77729
 Alpha  occ. eigenvalues --   -0.76669  -0.75714  -0.75121  -0.74815  -0.74399
 Alpha  occ. eigenvalues --   -0.73392  -0.73214  -0.72716  -0.71605  -0.70147
 Alpha  occ. eigenvalues --   -0.69486  -0.68078  -0.68051  -0.67600  -0.67035
 Alpha  occ. eigenvalues --   -0.66928  -0.66218  -0.65813  -0.65265  -0.64909
 Alpha  occ. eigenvalues --   -0.64454  -0.63508  -0.62558  -0.61481  -0.61182
 Alpha  occ. eigenvalues --   -0.59838  -0.58671  -0.58062  -0.57698  -0.57036
 Alpha  occ. eigenvalues --   -0.56838  -0.56429  -0.55483  -0.55038  -0.54561
 Alpha  occ. eigenvalues --   -0.54180  -0.54018  -0.53758  -0.53316  -0.53168
 Alpha  occ. eigenvalues --   -0.52261  -0.51025  -0.50642  -0.50353  -0.50253
 Alpha  occ. eigenvalues --   -0.49358  -0.48710  -0.48624  -0.48164  -0.47868
 Alpha  occ. eigenvalues --   -0.47719  -0.47386  -0.47212  -0.47143  -0.46783
 Alpha  occ. eigenvalues --   -0.46490  -0.46158  -0.45906  -0.45380  -0.45196
 Alpha  occ. eigenvalues --   -0.45099  -0.45010  -0.44781  -0.44620  -0.44178
 Alpha  occ. eigenvalues --   -0.44073  -0.43863  -0.43675  -0.43549  -0.43357
 Alpha  occ. eigenvalues --   -0.43299  -0.43110  -0.42942  -0.42831  -0.42575
 Alpha  occ. eigenvalues --   -0.42415  -0.41803  -0.41666  -0.41653  -0.41493
 Alpha  occ. eigenvalues --   -0.41139  -0.40935  -0.40753  -0.40703  -0.40320
 Alpha  occ. eigenvalues --   -0.40277  -0.39925  -0.39588  -0.39550  -0.39415
 Alpha  occ. eigenvalues --   -0.39215  -0.39125  -0.38840  -0.38416  -0.38257
 Alpha  occ. eigenvalues --   -0.38056  -0.37853  -0.37551  -0.37294  -0.37265
 Alpha  occ. eigenvalues --   -0.37024  -0.36938  -0.36560  -0.36325  -0.36094
 Alpha  occ. eigenvalues --   -0.36078  -0.35996  -0.35717  -0.35600  -0.35464
 Alpha  occ. eigenvalues --   -0.35325  -0.35250  -0.34800  -0.34670  -0.34371
 Alpha  occ. eigenvalues --   -0.34308  -0.33986  -0.33574  -0.33242  -0.33167
 Alpha  occ. eigenvalues --   -0.33140  -0.32994  -0.32803  -0.32440  -0.32195
 Alpha  occ. eigenvalues --   -0.31876  -0.31829  -0.31805  -0.31609  -0.31076
 Alpha  occ. eigenvalues --   -0.30730  -0.30617  -0.30048  -0.30019  -0.29874
 Alpha  occ. eigenvalues --   -0.29404  -0.29044  -0.27886  -0.27757  -0.27517
 Alpha  occ. eigenvalues --   -0.27140  -0.26680  -0.26193  -0.25624  -0.25303
 Alpha  occ. eigenvalues --   -0.25167  -0.24676  -0.24372  -0.21786  -0.19982
 Alpha  occ. eigenvalues --   -0.18387
 Alpha virt. eigenvalues --   -0.10297  -0.07400  -0.04246  -0.02394  -0.01374
 Alpha virt. eigenvalues --   -0.00015   0.00905   0.01206   0.02369   0.02970
 Alpha virt. eigenvalues --    0.03328   0.03823   0.03951   0.04177   0.04355

 Mulliken charges:
               1
     1  C    0.041850
     2  C   -0.145596
     3  C   -0.066579
     4  C   -0.064963
     5  N   -0.200083
     6  C   -0.026463
     7  C   -0.036404
     8  C    0.012156
     9  C    0.021817
    10  C    0.078256
    11  C    0.025548
    12  C    0.083637
    13  C    0.127079
    14  O   -0.274704
    15  O   -0.315116
    16  N   -0.032673
    17  C    0.106633
    18  C   -0.144022
    19  C   -0.000899
    20  C   -0.012503
    21  C   -0.037988
    22  C    0.020943
    23  C   -0.016222
    24  N   -0.290847
    25  C    0.173165
    26  C   -0.198627
    27  C   -0.085971
    28  C    0.091753
    29  C    0.155216
    30  C   -0.000047
    31  C    0.021746
    32  N   -0.136098
    33  C    0.106557
    34  C   -0.091771
    35  C   -0.032394
    36  C    0.087663
    37  C    0.044547
    38  C    0.061033
    39  O   -0.085939
    40  C   -0.182881
    41  C    0.205162
    42  O   -0.248381
    43  O   -0.272579
    44  C    0.162673
    45  C    0.294547
    46  C   -0.125292
    47  C   -0.056915
    48  C   -0.034808
    49  C    0.117241
    50  C   -0.036802
    51  C    0.074674
    52  C   -0.089605
    53  C   -0.008176
    54  C    0.019407
    55  C    0.044509
    56  C    0.065992
    57  C   -0.043714
    58  C   -0.008338
    59  C   -0.064216
    60  C   -0.072249
    61  C    0.061722
    62  C   -0.074384
    63  C   -0.097589
    64  C   -0.040783
    65  H    0.019219
    66  H   -0.042649
    67  H   -0.057262
    68  H    0.036323
    69  H    0.001937
    70  H    0.029654
    71  H   -0.035169
    72  H    0.021146
    73  H    0.000182
    74  H    0.035338
    75  H   -0.003503
    76  H    0.020484
    77  H    0.053404
    78  H    0.041613
    79  H    0.063749
    80  H   -0.006071
    81  H    0.050208
    82  H    0.014460
    83  H    0.022379
    84  H    0.023800
    85  H   -0.005216
    86  H    0.018494
    87  H    0.011829
    88  H   -0.000290
    89  H    0.028800
    90  H    0.028381
    91  H    0.054837
    92  H    0.035311
    93  H    0.041582
    94  H    0.098954
    95  H    0.017984
    96  H    0.046682
    97  H    0.047961
    98  H    0.012634
    99  H    0.009370
   100  H    0.018567
   101  H    0.049592
   102  H    0.026376
   103  H    0.014359
   104  H    0.003353
   105  H    0.001238
   106  H   -0.007908
   107  H   -0.012280
   108  H    0.028155
   109  H   -0.020501
   110  H   -0.005265
   111  H    0.020976
   112  H    0.015558
   113  H    0.004143
   114  H   -0.033892
   115  H   -0.025689
   116  H   -0.009760
   117  H   -0.007708
   118  H    0.004280
   119  H   -0.008407
   120  H    0.015920
   121  H   -0.002021
   122  H    0.001406
   123  H    0.024003
   124  H    0.034120
   125  H    0.009958
   126  H    0.033736
   127  H    0.014838
   128  H    0.002706
   129  H    0.009872
   130  H    0.028090
   131  H    0.014115
   132  H    0.025977
   133  H    0.039648
   134  H    0.003901
   135  H    0.019047
   136  H    0.031233
   137  H    0.179600
   138  H    0.169203
 Sum of Mulliken charges =  -0.00000

 Dipole moment (field-independent basis, Debye):
    X=              3.3780    Y=              3.5181    Z=              1.2172  Tot=              5.0269
 Quadrupole moment (field-independent basis, Debye-Ang):
   XX=           -345.3731   YY=           -379.0395   ZZ=           -395.6929
   XY=            -23.6302   XZ=             18.8474   YZ=             -1.3383

 Normal termination of Gaussian 16 at Fri Aug  9 21:12:03 2019.
