 Gaussian 16, Revision A.03,
 Gaussian 16:  ES64L-G16RevA.03 25-Dec-2016

 --------------------------
 # td=(NStates=1) B3LYP/SVP
 --------------------------

 --
 TD
 --
 Symbolic Z-matrix:
 Charge =  0 Multiplicity = 1

                         Standard orientation:
 ---------------------------------------------------------------------
 Center     Atomic      Atomic             Coordinates (Angstroms)
 Number     Number       Type             X           Y           Z
 ---------------------------------------------------------------------
      1          6           0       -5.131366   -2.026634    0.492302
      2          6           0       -4.524913    2.725911    1.335820
      3          6           0       -9.008898    3.483865   -0.239769
      4          6           0       -9.786963   -1.228751   -1.054687
      5          7           0       -5.134527    0.351718    0.849499
      6          6           0       -4.498458   -0.879487    0.941751
      7          6           0       -3.100745   -0.753682    1.296163
      8          6           0       -3.013482    0.771278    1.871758
      9          6           0       -4.232244    1.313220    1.266225
     10          6           0       -3.007121    0.753987    3.403418
     11          6           0       -2.043206   -0.948923    0.126869
     12          6           0       -0.648645   -0.892255    0.506319
     13          6           0        0.340011   -1.310017   -0.472852
     14          8           0       -0.034847   -1.846752   -1.553409
     15          8           0        1.570281   -1.010071   -0.201072
     16          7           0       -6.825337    2.788050    0.636008
     17          6           0       -5.658043    3.402008    1.009793
     18          6           0       -5.997735    4.880780    1.196416
     19          6           0       -7.207634    4.990625    0.643804
     20          6           0       -7.765586    3.692566    0.336518
     21          6           0       -5.049929    5.895847    1.769600
     22          6           0       -7.973822    6.282088    0.545287
     23          6           0       -8.795411    6.854440   -0.415390
     24          7           0       -9.077923    1.060210   -0.457587
     25          6           0       -9.699510    2.310836   -0.620763
     26          6           0      -11.032520    2.222254   -1.100484
     27          6           0      -11.283211    0.783430   -1.303461
     28          6           0      -10.020611    0.222836   -0.933878
     29          6           0      -11.962808    3.343485   -1.332403
     30          6           0      -12.479196    0.160961   -1.738639
     31          6           0      -12.436389   -0.177064   -3.284531
     32          7           0       -7.605215   -1.196135   -0.198736
     33          6           0       -8.594562   -1.870806   -0.773518
     34          6           0       -8.173698   -3.247376   -0.930321
     35          6           0       -6.920973   -3.326102   -0.360412
     36          6           0       -6.517976   -2.079624    0.033398
     37          6           0       -9.182225   -4.422600   -1.234798
     38          6           0       -5.952552   -4.327700   -0.046246
     39          8           0       -5.958066   -5.496324   -0.233380
     40          6           0       -4.631535   -3.463531    0.499087
     41          6           0       -4.111117   -4.023002    1.709424
     42          8           0       -4.311187   -3.566564    2.886655
     43          8           0       -3.292602   -5.104584    1.482296
     44          6           0       -2.822387   -5.739842    2.676471
     45          6           0        2.693379   -1.434546   -1.057330
     46          6           0        3.894697   -0.924066   -0.447592
     47          6           0        4.917303   -0.149852   -0.956744
     48          6           0        4.799478    0.455915   -2.359638
     49          6           0        6.187648    0.196147   -0.292310
     50          6           0        7.363387   -0.410043   -0.866654
     51          6           0        8.658146   -0.157094   -0.024958
     52          6           0        9.959231   -0.743111   -0.708782
     53          6           0        9.924573   -2.300345   -0.694712
     54          6           0       11.176969   -0.382365    0.135374
     55          6           0       12.524548   -0.605027   -0.544462
     56          6           0       13.813147    0.067492    0.185135
     57          6           0       15.113469   -0.014500   -0.439274
     58          6           0       15.441907   -1.553805   -0.553502
     59          6           0       16.313516    0.749937    0.290270
     60          6           0       17.623183    0.878008   -0.297110
     61          6           0       18.594485    1.785762    0.530492
     62          6           0       19.933194    1.670697   -0.047196
     63          6           0       20.061642    2.418358   -1.321565
     64          6           0       20.956965    2.294053    0.894274
     65          1           0       -3.562130    3.193456    1.595752
     66          1           0       -9.614249    4.496977   -0.457911
     67          1           0      -10.574575   -1.925653   -1.436045
     68          1           0       -2.825522   -1.609732    2.131159
     69          1           0       -2.042342    1.260472    1.566731
     70          1           0       -2.214904    0.303908    4.028522
     71          1           0       -3.286991    1.681456    3.886094
     72          1           0       -3.961004   -0.067421    3.753952
     73          1           0       -2.239929   -1.932949   -0.257897
     74          1           0       -2.106501   -0.351975   -0.792231
     75          1           0       -0.498437    0.246134    0.901023
     76          1           0       -0.093925   -1.459212    1.361607
     77          1           0       -4.135802    6.066286    1.153659
     78          1           0       -5.535289    6.824205    2.055852
     79          1           0       -4.866835    5.498696    2.809156
     80          1           0       -7.724313    6.912945    1.494342
     81          1           0       -8.978817    6.386919   -1.516961
     82          1           0       -9.519531    7.715187   -0.255461
     83          1           0      -12.144197    3.865194   -0.578617
     84          1           0      -11.670757    3.982097   -2.055176
     85          1           0      -12.762312    2.874058   -1.711967
     86          1           0      -12.497525   -0.866973   -1.412840
     87          1           0      -13.322204    0.749852   -1.431733
     88          1           0      -12.560535    0.672120   -4.018648
     89          1           0      -11.489700   -0.829726   -3.474573
     90          1           0      -13.358450   -0.835200   -3.382336
     91          1           0       -9.896512   -4.903821   -0.363292
     92          1           0       -9.688400   -4.148222   -2.165365
     93          1           0       -8.534646   -5.369909   -1.473908
     94          1           0       -3.860226   -3.495971   -0.287859
     95          1           0       -2.081430   -6.481242    2.495932
     96          1           0       -2.396526   -5.003335    3.430847
     97          1           0       -3.603870   -6.119193    3.253865
     98          1           0        2.577886   -2.549428   -1.173831
     99          1           0        2.553001   -1.051618   -1.962251
    100          1           0        4.086611   -1.372575    0.554623
    101          1           0        4.857258    1.666698   -2.303853
    102          1           0        5.529475    0.146772   -3.137515
    103          1           0        3.836029    0.290525   -3.002476
    104          1           0        6.492449    1.330425   -0.367024
    105          1           0        6.088081    0.063058    0.954794
    106          1           0        6.990037   -1.585211   -0.951276
    107          1           0        7.340147    0.013965   -1.716977
    108          1           0        8.675127    0.841764    0.179387
    109          1           0        8.485509   -0.560625    0.888444
    110          1           0       10.145534   -0.389072   -1.678081
    111          1           0        9.163131   -2.823947   -1.207228
    112          1           0       10.797823   -2.893748   -1.258831
    113          1           0       10.083367   -2.469725    0.297682
    114          1           0       11.040503    0.553296    0.580720
    115          1           0       11.123637   -0.977702    1.073174
    116          1           0       12.656954   -1.789566   -0.637093
    117          1           0       12.384306   -0.166727   -1.651294
    118          1           0       13.642351    1.188321    0.429138
    119          1           0       13.667246   -0.405008    1.289500
    120          1           0       14.987318    0.378999   -1.465751
    121          1           0       14.748415   -2.131937   -0.881105
    122          1           0       16.531267   -1.683565   -0.927293
    123          1           0       15.763743   -1.965659    0.258480
    124          1           0       15.924384    1.747146    0.500468
    125          1           0       16.414779    0.149080    1.311896
    126          1           0       18.103363   -0.033267   -0.788773
    127          1           0       17.415680    1.355436   -1.279411
    128          1           0       18.242123    2.850328    0.616954
    129          1           0       18.404306    1.465943    1.384853
    130          1           0       20.423518    0.621799   -0.327401
    131          1           0       19.728086    3.410909   -1.100025
    132          1           0       21.176987    2.028682   -1.730595
    133          1           0       19.157923    2.248090   -2.287418
    134          1           0       20.888751    1.828629    2.044865
    135          1           0       21.949073    2.357166    0.567823
    136          1           0       20.749035    3.309198    1.259597
    137          1           0       -7.177406    1.848776    0.572588
    138          1           0       -7.439480   -0.295452   -0.080086
 ---------------------------------------------------------------------

 SCF Done:  E(RB3LYP) =  -2732.95297888     A.U. after   17 cycles

 Excitation energies and oscillator strengths:

 Excited State   1:      Singlet-A      2.0490 eV  605.10 nm  f=0.1295  <S**2>=0.000
     235 -> 237       -0.20448
     235 -> 238        0.25955
     236 -> 237        0.58771
     236 -> 238        0.19391
 This state for optimization and/or second-order correction.
 Total Energy, E(TD-HF/TD-DFT) =  -2732.87767998
 Copying the excited state density for this state as the 1-particle RhoCI density.

 The electronic state is 1-A.
 Alpha  occ. eigenvalues --  -19.17960 -19.17914 -19.13436 -19.11639 -19.10358
 Alpha  occ. eigenvalues --  -14.36977 -14.36220 -14.32430 -14.28993 -10.31468
 Alpha  occ. eigenvalues --  -10.30751 -10.28499 -10.24882 -10.24705 -10.23392
 Alpha  occ. eigenvalues --  -10.23236 -10.23205 -10.23082 -10.22918 -10.22393
 Alpha  occ. eigenvalues --  -10.22224 -10.22198 -10.21776 -10.21457 -10.21406
 Alpha  occ. eigenvalues --  -10.21228 -10.21205 -10.21147 -10.21140 -10.21082
 Alpha  occ. eigenvalues --  -10.21080 -10.20907 -10.20887 -10.20852 -10.20709
 Alpha  occ. eigenvalues --  -10.20627 -10.20484 -10.20465 -10.20461 -10.20459
 Alpha  occ. eigenvalues --  -10.20057 -10.20045 -10.19978 -10.19708 -10.19664
 Alpha  occ. eigenvalues --  -10.19602 -10.19411 -10.19242 -10.19145 -10.19080
 Alpha  occ. eigenvalues --  -10.18839 -10.18677 -10.18446 -10.18420 -10.18376
 Alpha  occ. eigenvalues --  -10.18166 -10.18080 -10.18061 -10.17944 -10.17602
 Alpha  occ. eigenvalues --  -10.17536 -10.17150 -10.15236 -10.15207  -1.09718
 Alpha  occ. eigenvalues --   -1.07682  -1.05187  -0.99355  -0.99172  -0.97523
 Alpha  occ. eigenvalues --   -0.97293  -0.93560  -0.92257  -0.85277  -0.84295
 Alpha  occ. eigenvalues --   -0.83179  -0.82244  -0.82024  -0.81313  -0.80963
 Alpha  occ. eigenvalues --   -0.80518  -0.80009  -0.79869  -0.79200  -0.78696
 Alpha  occ. eigenvalues --   -0.77363  -0.76461  -0.76222  -0.75665  -0.74438
 Alpha  occ. eigenvalues --   -0.74240  -0.73016  -0.72651  -0.71802  -0.71448
 Alpha  occ. eigenvalues --   -0.69684  -0.69067  -0.68632  -0.68545  -0.68273
 Alpha  occ. eigenvalues --   -0.68130  -0.67413  -0.66695  -0.66603  -0.66346
 Alpha  occ. eigenvalues --   -0.64508  -0.63625  -0.62669  -0.62012  -0.61698
 Alpha  occ. eigenvalues --   -0.61409  -0.59448  -0.59150  -0.58238  -0.58029
 Alpha  occ. eigenvalues --   -0.57537  -0.57314  -0.57051  -0.56568  -0.56329
 Alpha  occ. eigenvalues --   -0.55983  -0.54778  -0.54681  -0.53477  -0.53089
 Alpha  occ. eigenvalues --   -0.52568  -0.52148  -0.51437  -0.50803  -0.50655
 Alpha  occ. eigenvalues --   -0.50306  -0.49707  -0.49351  -0.49203  -0.48344
 Alpha  occ. eigenvalues --   -0.48319  -0.47945  -0.47498  -0.47336  -0.47079
 Alpha  occ. eigenvalues --   -0.46898  -0.46791  -0.46451  -0.46014  -0.45674
 Alpha  occ. eigenvalues --   -0.45570  -0.45325  -0.45138  -0.44963  -0.44922
 Alpha  occ. eigenvalues --   -0.44794  -0.44745  -0.44455  -0.44154  -0.43993
 Alpha  occ. eigenvalues --   -0.43826  -0.43779  -0.43565  -0.43139  -0.42940
 Alpha  occ. eigenvalues --   -0.42533  -0.42489  -0.41943  -0.41705  -0.41493
 Alpha  occ. eigenvalues --   -0.41394  -0.41195  -0.40783  -0.40718  -0.40512
 Alpha  occ. eigenvalues --   -0.40342  -0.40032  -0.39893  -0.39778  -0.39602
 Alpha  occ. eigenvalues --   -0.39472  -0.39211  -0.39080  -0.38951  -0.38694
 Alpha  occ. eigenvalues --   -0.38451  -0.38194  -0.38023  -0.37368  -0.37198
 Alpha  occ. eigenvalues --   -0.36978  -0.36905  -0.36741  -0.36654  -0.36408
 Alpha  occ. eigenvalues --   -0.36202  -0.36002  -0.35899  -0.35702  -0.35665
 Alpha  occ. eigenvalues --   -0.35444  -0.35138  -0.35047  -0.34935  -0.34866
 Alpha  occ. eigenvalues --   -0.34569  -0.34093  -0.34061  -0.33922  -0.33744
 Alpha  occ. eigenvalues --   -0.33334  -0.33211  -0.33184  -0.32775  -0.32393
 Alpha  occ. eigenvalues --   -0.31768  -0.31605  -0.31549  -0.31453  -0.31231
 Alpha  occ. eigenvalues --   -0.30922  -0.30329  -0.30183  -0.29768  -0.29713
 Alpha  occ. eigenvalues --   -0.29485  -0.29126  -0.28384  -0.28211  -0.27712
 Alpha  occ. eigenvalues --   -0.27126  -0.26992  -0.26737  -0.26335  -0.25964
 Alpha  occ. eigenvalues --   -0.25407  -0.25204  -0.24425  -0.20924  -0.19821
 Alpha  occ. eigenvalues --   -0.18564
 Alpha virt. eigenvalues --   -0.10014  -0.07996  -0.04600  -0.02496  -0.02417
 Alpha virt. eigenvalues --   -0.01390  -0.00148   0.00411   0.01968   0.03258
 Alpha virt. eigenvalues --    0.04158   0.04396   0.04589   0.04778   0.04900

 Mulliken charges:
               1
     1  C   -0.019006
     2  C   -0.084452
     3  C   -0.122880
     4  C   -0.102569
     5  N   -0.202813
     6  C    0.000137
     7  C   -0.109877
     8  C   -0.021141
     9  C   -0.030251
    10  C   -0.001106
    11  C    0.146729
    12  C   -0.053337
    13  C    0.169640
    14  O   -0.309404
    15  O   -0.297535
    16  N    0.004610
    17  C    0.168765
    18  C   -0.140160
    19  C    0.016731
    20  C    0.039851
    21  C    0.124287
    22  C   -0.065114
    23  C   -0.092800
    24  N   -0.265192
    25  C    0.082142
    26  C   -0.226073
    27  C   -0.101449
    28  C    0.091517
    29  C    0.375136
    30  C    0.103517
    31  C   -0.052951
    32  N    0.046492
    33  C    0.059922
    34  C   -0.138775
    35  C    0.037423
    36  C    0.061790
    37  C    0.006348
    38  C    0.054445
    39  O   -0.115968
    40  C   -0.023367
    41  C    0.229491
    42  O   -0.294647
    43  O   -0.310838
    44  C    0.233200
    45  C    0.395280
    46  C   -0.111436
    47  C   -0.059689
    48  C   -0.048053
    49  C   -0.012437
    50  C    0.059990
    51  C    0.154786
    52  C   -0.033566
    53  C    0.051884
    54  C    0.053079
    55  C   -0.024997
    56  C   -0.025719
    57  C   -0.013834
    58  C    0.163176
    59  C    0.004592
    60  C    0.016361
    61  C    0.173930
    62  C   -0.080713
    63  C   -0.052823
    64  C    0.033290
    65  H   -0.022900
    66  H    0.006434
    67  H   -0.014257
    68  H    0.051581
    69  H    0.012342
    70  H    0.028489
    71  H    0.009454
    72  H    0.033321
    73  H   -0.010633
    74  H    0.011386
    75  H    0.040570
    76  H    0.034771
    77  H    0.055482
    78  H   -0.000210
    79  H    0.026242
    80  H    0.033126
    81  H    0.056765
    82  H    0.046538
    83  H   -0.053210
    84  H   -0.033014
    85  H   -0.054407
    86  H   -0.013262
    87  H    0.007281
    88  H    0.028612
    89  H    0.034247
    90  H    0.012706
    91  H    0.068244
    92  H    0.028371
    93  H    0.044210
    94  H    0.068586
    95  H    0.022633
    96  H    0.019458
    97  H    0.002985
    98  H    0.035504
    99  H   -0.051715
   100  H   -0.006782
   101  H    0.039462
   102  H    0.041166
   103  H    0.028134
   104  H    0.002614
   105  H    0.013010
   106  H    0.018631
   107  H   -0.066528
   108  H   -0.042528
   109  H   -0.045864
   110  H   -0.026024
   111  H   -0.002224
   112  H    0.008769
   113  H   -0.019727
   114  H   -0.040805
   115  H   -0.023045
   116  H    0.034070
   117  H    0.008823
   118  H   -0.007730
   119  H    0.001373
   120  H   -0.009438
   121  H   -0.043746
   122  H   -0.019000
   123  H   -0.069650
   124  H   -0.012981
   125  H    0.002185
   126  H    0.003601
   127  H   -0.025684
   128  H   -0.005739
   129  H   -0.091477
   130  H    0.016942
   131  H   -0.000263
   132  H    0.045048
   133  H    0.018084
   134  H    0.005971
   135  H   -0.008044
   136  H   -0.014098
   137  H    0.142320
   138  H    0.071882
 Sum of Mulliken charges =  -0.00000

 Dipole moment (field-independent basis, Debye):
    X=              3.5011    Y=              4.9955    Z=              0.8143  Tot=              6.1543
 Quadrupole moment (field-independent basis, Debye-Ang):
   XX=           -352.1640   YY=           -379.7419   ZZ=           -395.9379
   XY=            -21.6877   XZ=             13.2070   YZ=              0.5390

 Normal termination of Gaussian 16 at Fri Aug 30 13:45:19 2019.
