 Gaussian 16, Revision A.03,
 Gaussian 16:  ES64L-G16RevA.03 25-Dec-2016

 --------------------------
 # td=(NStates=1) B3LYP/SVP
 --------------------------

 --
 TD
 --
 Symbolic Z-matrix:
 Charge =  0 Multiplicity = 1

                         Standard orientation:
 ---------------------------------------------------------------------
 Center     Atomic      Atomic             Coordinates (Angstroms)
 Number     Number       Type             X           Y           Z
 ---------------------------------------------------------------------
      1          6           0       -5.026109   -1.901991    0.477652
      2          6           0       -4.848938    2.722657    1.400431
      3          6           0       -9.362636    3.253134   -0.280630
      4          6           0       -9.784707   -1.437143   -1.122560
      5          7           0       -5.193422    0.360634    0.881811
      6          6           0       -4.471940   -0.769386    0.935447
      7          6           0       -3.087953   -0.602112    1.471200
      8          6           0       -3.077169    0.808023    1.926867
      9          6           0       -4.481139    1.324551    1.337490
     10          6           0       -3.184128    0.862173    3.569033
     11          6           0       -2.148132   -0.761690    0.304685
     12          6           0       -0.640894   -0.807182    0.756925
     13          6           0        0.305803   -0.938640   -0.473732
     14          8           0       -0.015047   -1.314873   -1.520067
     15          8           0        1.590237   -0.598916   -0.098371
     16          7           0       -7.097919    2.723550    0.332339
     17          6           0       -6.087679    3.372440    1.069117
     18          6           0       -6.302719    4.751647    1.114500
     19          6           0       -7.536806    4.943356    0.561140
     20          6           0       -8.087544    3.701844    0.245696
     21          6           0       -5.402175    5.701048    1.687981
     22          6           0       -8.283343    6.265523    0.384023
     23          6           0       -9.214474    6.563312   -0.471251
     24          7           0       -9.207301    0.809732   -0.589269
     25          6           0       -9.891171    2.014797   -0.601248
     26          6           0      -11.317387    1.872850   -1.011559
     27          6           0      -11.459862    0.552994   -1.406762
     28          6           0      -10.169020   -0.100081   -0.967818
     29          6           0      -12.265134    3.045572   -1.257494
     30          6           0      -12.642222   -0.257873   -1.761156
     31          6           0      -12.653659   -0.444617   -3.303670
     32          7           0       -7.430453   -1.169336   -0.262999
     33          6           0       -8.516223   -1.986456   -0.769506
     34          6           0       -8.056951   -3.349276   -0.866007
     35          6           0       -6.692617   -3.341212   -0.376213
     36          6           0       -6.411370   -2.113293   -0.019237
     37          6           0       -8.911787   -4.454406   -1.279849
     38          6           0       -5.662117   -4.286784   -0.070972
     39          8           0       -5.691722   -5.502565   -0.163935
     40          6           0       -4.548285   -3.396187    0.413524
     41          6           0       -3.948816   -3.811078    1.729539
     42          8           0       -4.218578   -3.312623    2.856009
     43          8           0       -3.196486   -4.875205    1.490610
     44          6           0       -2.795307   -5.767653    2.641180
     45          6           0        2.629545   -0.866562   -1.077538
     46          6           0        3.938475   -0.636172   -0.443079
     47          6           0        4.910322    0.181853   -0.858804
     48          6           0        4.907599    0.828763   -2.263397
     49          6           0        6.205817    0.194384   -0.193786
     50          6           0        7.459287   -0.388610   -0.859861
     51          6           0        8.755417   -0.194567   -0.017947
     52          6           0       10.045585   -0.770767   -0.645580
     53          6           0       10.049575   -2.315358   -0.801256
     54          6           0       11.304026   -0.212255    0.202211
     55          6           0       12.700685   -0.550097   -0.511244
     56          6           0       13.877696    0.071630    0.249831
     57          6           0       15.326768   -0.239943   -0.310238
     58          6           0       15.776825   -1.639830   -0.402809
     59          6           0       16.461028    0.705811    0.301224
     60          6           0       17.900236    0.513159   -0.322566
     61          6           0       18.797951    1.718129    0.330209
     62          6           0       20.318754    1.729309   -0.079827
     63          6           0       20.449529    1.931910   -1.584302
     64          6           0       21.050852    2.601319    0.859353
     65          1           0       -4.024552    3.343696    1.720527
     66          1           0       -9.804273    4.273860   -0.243467
     67          1           0      -10.476010   -2.282308   -1.563852
     68          1           0       -2.823945   -1.286765    2.202796
     69          1           0       -2.279839    1.588603    1.728725
     70          1           0       -2.222737    0.453735    3.785284
     71          1           0       -3.252769    1.693792    3.896964
     72          1           0       -3.921638    0.031044    3.841638
     73          1           0       -2.388222   -1.582414   -0.372674
     74          1           0       -2.420027    0.041606   -0.301130
     75          1           0       -0.528935    0.140592    1.392820
     76          1           0       -0.510900   -1.693202    1.397085
     77          1           0       -4.493451    5.673724    1.043570
     78          1           0       -5.539075    6.721948    1.661658
     79          1           0       -5.030821    5.632203    2.621348
     80          1           0       -8.021517    6.909331    1.277583
     81          1           0       -9.494355    5.905330   -1.379505
     82          1           0       -9.772403    7.410894   -0.392543
     83          1           0      -12.237842    3.794599   -0.407534
     84          1           0      -11.974238    3.531242   -2.324837
     85          1           0      -13.273216    2.666520   -1.467600
     86          1           0      -12.771504   -1.188170   -1.240607
     87          1           0      -13.571107    0.178948   -1.355382
     88          1           0      -12.399256    0.560145   -3.839894
     89          1           0      -11.829434   -1.054885   -3.672296
     90          1           0      -13.442461   -1.019297   -3.585685
     91          1           0      -10.010819   -4.434783   -0.634405
     92          1           0       -9.097409   -4.408309   -2.320547
     93          1           0       -8.169278   -5.429883   -1.188147
     94          1           0       -3.626937   -3.332250   -0.119325
     95          1           0       -2.256265   -6.422701    2.247068
     96          1           0       -2.230671   -5.008550    3.349085
     97          1           0       -3.650017   -6.130425    2.984164
     98          1           0        2.532613   -1.893755   -1.684360
     99          1           0        2.409103   -0.181351   -1.832140
    100          1           0        4.080383   -1.122746    0.727042
    101          1           0        5.290984    1.622085   -2.187759
    102          1           0        5.615461    0.164522   -2.864352
    103          1           0        3.814766    1.028494   -2.594850
    104          1           0        6.476561    1.223727   -0.216838
    105          1           0        6.031063   -0.063287    0.774700
    106          1           0        7.403225   -1.522895   -0.805837
    107          1           0        7.539832   -0.133300   -1.933493
    108          1           0        8.753625    0.879420    0.206228
    109          1           0        8.652002   -0.850695    0.719099
    110          1           0       10.502906   -0.299663   -1.690153
    111          1           0        9.117022   -2.644607   -1.264520
    112          1           0       10.967490   -2.423234   -1.335972
    113          1           0        9.899976   -2.794731    0.326533
    114          1           0       11.243621    1.004112    0.256442
    115          1           0       11.463409   -0.716991    1.330690
    116          1           0       12.827812   -1.537552   -0.470290
    117          1           0       12.487408   -0.206671   -1.410476
    118          1           0       13.816076    1.090157    0.799253
    119          1           0       13.930907   -0.694369    1.299602
    120          1           0       15.192308   -0.049660   -1.422836
    121          1           0       15.010878   -2.420230   -0.896246
    122          1           0       16.715197   -1.666714   -0.867784
    123          1           0       16.017163   -2.078661    0.573001
    124          1           0       16.201949    1.934071   -0.178890
    125          1           0       16.315367    0.661134    1.551366
    126          1           0       18.236355   -0.429547   -0.279434
    127          1           0       17.975947    0.719163   -1.414487
    128          1           0       18.232698    2.585272   -0.030421
    129          1           0       18.730853    1.392140    1.503870
    130          1           0       20.475453    0.661509    0.055159
    131          1           0       20.386820    3.068060   -1.957971
    132          1           0       21.616409    1.578960   -1.569766
    133          1           0       19.823971    1.121506   -2.087352
    134          1           0       20.951796    2.199672    1.854956
    135          1           0       22.309740    2.598671    0.523321
    136          1           0       20.650426    3.670261    0.801847
    137          1           0       -7.208136    1.722790    0.455484
    138          1           0       -7.397259   -0.057361    0.105453
 ---------------------------------------------------------------------

 SCF Done:  E(RB3LYP) =  -2732.86803380     A.U. after   17 cycles

 Excitation energies and oscillator strengths:

 Excited State   1:      Singlet-A      2.0375 eV  608.50 nm  f=0.1891  <S**2>=0.000
     235 -> 237       -0.24321
     235 -> 238       -0.20315
     236 -> 237        0.60577
     236 -> 238       -0.17131
 This state for optimization and/or second-order correction.
 Total Energy, E(TD-HF/TD-DFT) =  -2732.79315523
 Copying the excited state density for this state as the 1-particle RhoCI density.

 The electronic state is 1-A.
 Alpha  occ. eigenvalues --  -19.17882 -19.16871 -19.13335 -19.11823 -19.11741
 Alpha  occ. eigenvalues --  -14.36068 -14.35933 -14.31710 -14.30094 -10.31421
 Alpha  occ. eigenvalues --  -10.31415 -10.27320 -10.24615 -10.24016 -10.23295
 Alpha  occ. eigenvalues --  -10.23216 -10.22774 -10.22585 -10.22346 -10.22043
 Alpha  occ. eigenvalues --  -10.21680 -10.21665 -10.21338 -10.21200 -10.21083
 Alpha  occ. eigenvalues --  -10.20860 -10.20848 -10.20721 -10.20694 -10.20614
 Alpha  occ. eigenvalues --  -10.20544 -10.20526 -10.20509 -10.20413 -10.20302
 Alpha  occ. eigenvalues --  -10.20259 -10.20239 -10.19737 -10.19618 -10.19596
 Alpha  occ. eigenvalues --  -10.19564 -10.19537 -10.19480 -10.19442 -10.19414
 Alpha  occ. eigenvalues --  -10.19375 -10.19299 -10.19284 -10.19180 -10.18873
 Alpha  occ. eigenvalues --  -10.18801 -10.18670 -10.18553 -10.18528 -10.18499
 Alpha  occ. eigenvalues --  -10.18258 -10.18160 -10.18001 -10.17907 -10.17904
 Alpha  occ. eigenvalues --  -10.17623 -10.17399 -10.17120 -10.17076  -1.09915
 Alpha  occ. eigenvalues --   -1.08155  -1.02064  -1.01983  -0.98043  -0.97678
 Alpha  occ. eigenvalues --   -0.96426  -0.94557  -0.92122  -0.84615  -0.83361
 Alpha  occ. eigenvalues --   -0.82980  -0.82121  -0.81239  -0.80730  -0.80393
 Alpha  occ. eigenvalues --   -0.79665  -0.79267  -0.79058  -0.78085  -0.77238
 Alpha  occ. eigenvalues --   -0.77139  -0.76391  -0.75977  -0.74950  -0.74285
 Alpha  occ. eigenvalues --   -0.73554  -0.73238  -0.73100  -0.72369  -0.72214
 Alpha  occ. eigenvalues --   -0.70470  -0.69829  -0.69383  -0.68332  -0.67291
 Alpha  occ. eigenvalues --   -0.66927  -0.66386  -0.65777  -0.65146  -0.64147
 Alpha  occ. eigenvalues --   -0.63644  -0.62942  -0.62465  -0.61957  -0.61380
 Alpha  occ. eigenvalues --   -0.61106  -0.59161  -0.58334  -0.57699  -0.57234
 Alpha  occ. eigenvalues --   -0.57203  -0.56085  -0.56014  -0.54951  -0.54674
 Alpha  occ. eigenvalues --   -0.54128  -0.53844  -0.53620  -0.52911  -0.52833
 Alpha  occ. eigenvalues --   -0.52511  -0.51650  -0.51008  -0.50256  -0.49835
 Alpha  occ. eigenvalues --   -0.49533  -0.49444  -0.49171  -0.49079  -0.48755
 Alpha  occ. eigenvalues --   -0.48197  -0.48067  -0.47591  -0.47370  -0.47282
 Alpha  occ. eigenvalues --   -0.47088  -0.46918  -0.46402  -0.46234  -0.45633
 Alpha  occ. eigenvalues --   -0.45594  -0.45284  -0.45207  -0.44799  -0.44633
 Alpha  occ. eigenvalues --   -0.44505  -0.44364  -0.44058  -0.43991  -0.43728
 Alpha  occ. eigenvalues --   -0.43495  -0.43319  -0.43046  -0.42892  -0.42873
 Alpha  occ. eigenvalues --   -0.42440  -0.42287  -0.41895  -0.41821  -0.41422
 Alpha  occ. eigenvalues --   -0.41386  -0.41044  -0.40787  -0.40576  -0.40422
 Alpha  occ. eigenvalues --   -0.40031  -0.39832  -0.39545  -0.39481  -0.39329
 Alpha  occ. eigenvalues --   -0.39261  -0.38819  -0.38320  -0.38288  -0.38203
 Alpha  occ. eigenvalues --   -0.37983  -0.37817  -0.37647  -0.37566  -0.37506
 Alpha  occ. eigenvalues --   -0.37439  -0.37277  -0.37115  -0.36836  -0.36653
 Alpha  occ. eigenvalues --   -0.36489  -0.36305  -0.36142  -0.36137  -0.35949
 Alpha  occ. eigenvalues --   -0.35767  -0.35398  -0.35197  -0.35124  -0.34625
 Alpha  occ. eigenvalues --   -0.34617  -0.34300  -0.34235  -0.33763  -0.33560
 Alpha  occ. eigenvalues --   -0.33167  -0.32808  -0.32772  -0.32624  -0.32227
 Alpha  occ. eigenvalues --   -0.32191  -0.32051  -0.31982  -0.31459  -0.31163
 Alpha  occ. eigenvalues --   -0.30557  -0.30419  -0.30343  -0.30147  -0.29482
 Alpha  occ. eigenvalues --   -0.29100  -0.28843  -0.28553  -0.27589  -0.27532
 Alpha  occ. eigenvalues --   -0.27053  -0.26894  -0.26498  -0.25701  -0.25332
 Alpha  occ. eigenvalues --   -0.25091  -0.24531  -0.24491  -0.22700  -0.19643
 Alpha  occ. eigenvalues --   -0.18281
 Alpha virt. eigenvalues --   -0.10403  -0.06911  -0.03958  -0.01148  -0.00179
 Alpha virt. eigenvalues --    0.00334   0.00466   0.01156   0.02544   0.02689
 Alpha virt. eigenvalues --    0.03548   0.04149   0.04302   0.04464   0.04723

 Mulliken charges:
               1
     1  C    0.026409
     2  C   -0.081501
     3  C   -0.072144
     4  C   -0.103022
     5  N   -0.105807
     6  C   -0.139773
     7  C    0.125533
     8  C   -0.169913
     9  C   -0.021088
    10  C    0.184443
    11  C    0.028439
    12  C    0.039275
    13  C    0.179751
    14  O   -0.167555
    15  O   -0.344239
    16  N   -0.089616
    17  C    0.103943
    18  C   -0.096527
    19  C    0.016948
    20  C   -0.046768
    21  C    0.180704
    22  C   -0.029042
    23  C   -0.001970
    24  N   -0.255608
    25  C    0.166385
    26  C   -0.147666
    27  C   -0.073520
    28  C    0.088819
    29  C    0.065786
    30  C    0.062518
    31  C    0.046674
    32  N   -0.190238
    33  C    0.092860
    34  C   -0.124243
    35  C   -0.002136
    36  C    0.078895
    37  C    0.012606
    38  C    0.109098
    39  O   -0.170885
    40  C    0.038231
    41  C    0.166824
    42  O   -0.280805
    43  O   -0.326781
    44  C    0.309267
    45  C    0.279550
    46  C   -0.112056
    47  C   -0.201618
    48  C    0.196061
    49  C    0.172825
    50  C   -0.015433
    51  C    0.135028
    52  C   -0.151307
    53  C    0.025659
    54  C   -0.103590
    55  C    0.157378
    56  C   -0.047598
    57  C   -0.028509
    58  C    0.027395
    59  C   -0.089665
    60  C    0.019253
    61  C   -0.047599
    62  C   -0.060933
    63  C   -0.042195
    64  C    0.032504
    65  H   -0.042871
    66  H   -0.031930
    67  H    0.009680
    68  H   -0.031447
    69  H    0.011944
    70  H   -0.008757
    71  H   -0.080443
    72  H    0.045277
    73  H    0.006235
    74  H   -0.022133
    75  H    0.035278
    76  H    0.032229
    77  H    0.012089
    78  H   -0.029331
    79  H   -0.008983
    80  H    0.018345
    81  H    0.054375
    82  H   -0.000500
    83  H    0.042487
    84  H    0.042019
    85  H    0.010371
    86  H   -0.010910
    87  H   -0.006862
    88  H    0.029135
    89  H   -0.002030
    90  H   -0.018517
    91  H    0.063104
    92  H    0.020831
    93  H    0.064709
    94  H    0.021391
    95  H   -0.025761
    96  H    0.059180
    97  H    0.011862
    98  H    0.044447
    99  H   -0.026738
   100  H    0.021586
   101  H   -0.104136
   102  H    0.046655
   103  H    0.025096
   104  H   -0.029140
   105  H   -0.042850
   106  H   -0.011974
   107  H    0.001896
   108  H   -0.000689
   109  H   -0.041338
   110  H    0.005339
   111  H    0.021976
   112  H    0.023293
   113  H    0.024901
   114  H    0.024285
   115  H    0.012778
   116  H   -0.017695
   117  H   -0.044403
   118  H    0.022378
   119  H   -0.014908
   120  H   -0.012809
   121  H    0.024558
   122  H   -0.005651
   123  H   -0.014750
   124  H    0.019078
   125  H    0.042936
   126  H   -0.021893
   127  H    0.003193
   128  H    0.001632
   129  H    0.018031
   130  H   -0.016501
   131  H    0.040348
   132  H    0.021969
   133  H    0.033231
   134  H    0.012739
   135  H    0.014294
   136  H    0.024212
   137  H    0.145138
   138  H    0.231710
 Sum of Mulliken charges =  -0.00000

 Dipole moment (field-independent basis, Debye):
    X=              2.8885    Y=              3.8080    Z=              0.8074  Tot=              4.8473
 Quadrupole moment (field-independent basis, Debye-Ang):
   XX=           -358.4577   YY=           -371.2861   ZZ=           -395.6065
   XY=            -33.8695   XZ=              0.1479   YZ=             -0.6741

 Normal termination of Gaussian 16 at Fri Aug 23 15:47:38 2019.
