 Gaussian 16, Revision A.03,
 Gaussian 16:  ES64L-G16RevA.03 25-Dec-2016

 --------------------------
 # td=(NStates=1) B3LYP/SVP
 --------------------------

 --
 TD
 --
 Symbolic Z-matrix:
 Charge =  0 Multiplicity = 1

                         Standard orientation:
 ---------------------------------------------------------------------
 Center     Atomic      Atomic             Coordinates (Angstroms)
 Number     Number       Type             X           Y           Z
 ---------------------------------------------------------------------
      1          6           0       -5.104984   -1.918244    0.355016
      2          6           0       -4.459459    2.698350    1.503115
      3          6           0       -9.131922    3.458508   -0.245647
      4          6           0       -9.864418   -1.268608   -1.010257
      5          7           0       -5.084373    0.477493    0.914623
      6          6           0       -4.489580   -0.805855    0.706210
      7          6           0       -3.096727   -0.704063    1.228490
      8          6           0       -2.990544    0.699615    1.870222
      9          6           0       -4.236805    1.341869    1.346541
     10          6           0       -2.843361    0.727401    3.407091
     11          6           0       -1.960047   -0.971324    0.130077
     12          6           0       -0.540410   -1.099917    0.550905
     13          6           0        0.369067   -1.415490   -0.603026
     14          8           0       -0.026384   -1.747853   -1.734966
     15          8           0        1.662078   -1.134929   -0.256432
     16          7           0       -6.837734    2.724449    0.484757
     17          6           0       -5.691168    3.409864    1.140689
     18          6           0       -6.097912    4.728531    1.270093
     19          6           0       -7.283896    4.952167    0.682718
     20          6           0       -7.934515    3.689097    0.253979
     21          6           0       -5.171774    5.940244    1.748652
     22          6           0       -7.965278    6.260205    0.515594
     23          6           0       -8.706225    6.688412   -0.463935
     24          7           0       -9.173374    1.044790   -0.522517
     25          6           0       -9.790471    2.231353   -0.586289
     26          6           0      -11.158226    2.053085   -0.924678
     27          6           0      -11.415439    0.732069   -1.159448
     28          6           0      -10.051426    0.148383   -0.865336
     29          6           0      -12.251636    3.193330   -1.243300
     30          6           0      -12.624166    0.109168   -1.723831
     31          6           0      -12.535242   -0.117347   -3.317659
     32          7           0       -7.491500   -1.174597   -0.215334
     33          6           0       -8.637915   -1.881804   -0.665376
     34          6           0       -8.261307   -3.314890   -0.741513
     35          6           0       -6.944085   -3.391613   -0.252894
     36          6           0       -6.464590   -2.043420   -0.031646
     37          6           0       -9.216823   -4.378874   -1.108831
     38          6           0       -5.873014   -4.282034   -0.021392
     39          8           0       -5.843084   -5.512173    0.051745
     40          6           0       -4.633032   -3.436161    0.498540
     41          6           0       -4.107720   -3.887984    1.817773
     42          8           0       -4.405972   -3.330552    2.815109
     43          8           0       -3.294048   -4.972864    1.692777
     44          6           0       -2.884229   -5.598595    2.858085
     45          6           0        2.680223   -1.285937   -1.242817
     46          6           0        3.951722   -1.004826   -0.567422
     47          6           0        4.894971   -0.196745   -1.210656
     48          6           0        4.741549    0.428139   -2.572730
     49          6           0        6.252538    0.221591   -0.473516
     50          6           0        7.451933   -0.386556   -1.133058
     51          6           0        8.720312   -0.231751   -0.292105
     52          6           0       10.070541   -0.746594   -0.905240
     53          6           0       10.020639   -2.309460   -1.098946
     54          6           0       11.271326   -0.244146    0.012043
     55          6           0       12.641130   -0.532060   -0.657948
     56          6           0       13.724945    0.082728    0.254723
     57          6           0       15.203658   -0.151005   -0.247806
     58          6           0       15.768762   -1.702167   -0.161235
     59          6           0       16.192929    0.773990    0.468814
     60          6           0       17.548994    0.820172   -0.078518
     61          6           0       18.474344    1.885049    0.567875
     62          6           0       20.032186    1.758058    0.156960
     63          6           0       20.350238    2.139877   -1.334165
     64          6           0       20.835683    2.556019    1.129205
     65          1           0       -3.889561    3.221041    2.169120
     66          1           0       -9.833744    4.112795   -0.479004
     67          1           0      -10.519102   -1.979226   -1.368234
     68          1           0       -3.104164   -1.521141    2.094012
     69          1           0       -2.013791    1.183894    1.440896
     70          1           0       -1.810190    0.179714    3.570829
     71          1           0       -2.820009    1.873561    3.789280
     72          1           0       -3.701389    0.207534    3.915381
     73          1           0       -2.227813   -1.747151   -0.505942
     74          1           0       -2.071560   -0.203359   -0.563695
     75          1           0       -0.249381   -0.141407    0.981915
     76          1           0       -0.359638   -1.777964    1.455411
     77          1           0       -4.241114    5.911909    0.966726
     78          1           0       -5.606666    6.825872    1.484762
     79          1           0       -5.044472    5.720529    2.775129
     80          1           0       -7.621101    7.153348    1.203657
     81          1           0       -8.809620    6.165011   -1.465971
     82          1           0       -9.102876    7.691566   -0.539204
     83          1           0      -12.368501    4.085541   -0.418840
     84          1           0      -11.879962    3.533551   -2.037120
     85          1           0      -13.346997    2.959124   -1.470914
     86          1           0      -12.651823   -0.875585   -1.293949
     87          1           0      -13.595708    0.600394   -1.581326
     88          1           0      -12.424165    0.843930   -3.996217
     89          1           0      -11.539954   -0.556499   -3.496867
     90          1           0      -13.517794   -0.545280   -3.507023
     91          1           0       -9.963826   -4.259082   -0.485391
     92          1           0       -9.733247   -4.280159   -2.067808
     93          1           0       -8.550122   -5.286313   -1.060297
     94          1           0       -3.840625   -3.541426   -0.315534
     95          1           0       -2.534518   -6.453138    2.603921
     96          1           0       -2.342583   -4.819827    3.676426
     97          1           0       -3.747935   -5.879123    3.537651
     98          1           0        2.455582   -2.310579   -1.571728
     99          1           0        2.396111   -0.506971   -2.105600
    100          1           0        4.250160   -1.613459    0.393289
    101          1           0        4.669764    1.623241   -2.359218
    102          1           0        5.541601    0.082200   -3.274191
    103          1           0        3.569347    0.163839   -2.849841
    104          1           0        6.269509    1.289958   -0.482227
    105          1           0        6.054734   -0.185221    0.533090
    106          1           0        7.396426   -1.471897   -1.222026
    107          1           0        7.626629    0.127367   -2.068910
    108          1           0        8.966277    0.734415    0.002746
    109          1           0        8.421371   -0.649705    0.584256
    110          1           0       10.024485   -0.307266   -2.049945
    111          1           0        9.086924   -2.452691   -1.802167
    112          1           0       10.982222   -2.502263   -1.586674
    113          1           0        9.786552   -2.778670   -0.024614
    114          1           0       11.245146    0.765937    0.038401
    115          1           0       11.214318   -0.709042    1.055583
    116          1           0       12.766899   -1.747401   -0.762323
    117          1           0       12.724796   -0.079297   -1.678966
    118          1           0       13.644975    1.163399    0.191070
    119          1           0       13.570920   -0.236381    1.251131
    120          1           0       15.262521    0.027100   -1.306676
    121          1           0       15.212810   -2.360607   -0.827265
    122          1           0       16.642407   -1.827414   -0.831455
    123          1           0       16.016786   -2.226229    0.743621
    124          1           0       15.777467    1.844033    0.577872
    125          1           0       16.045748    0.543074    1.523980
    126          1           0       17.858318   -0.322328   -0.041640
    127          1           0       17.348138    1.078365   -1.173766
    128          1           0       18.166261    2.968278    0.258668
    129          1           0       18.417250    1.790314    1.696428
    130          1           0       20.197394    0.482887    0.444949
    131          1           0       20.346766    3.477941   -1.469205
    132          1           0       21.387077    1.911238   -1.588701
    133          1           0       19.685323    1.698314   -2.164557
    134          1           0       20.658627    2.313479    2.183078
    135          1           0       21.973706    2.269978    1.012713
    136          1           0       20.857735    3.568553    1.177279
    137          1           0       -7.184369    1.740798    0.212981
    138          1           0       -7.578665   -0.216739   -0.020906
 ---------------------------------------------------------------------

 SCF Done:  E(RB3LYP) =  -2733.04972725     A.U. after   17 cycles

 Excitation energies and oscillator strengths:

 Excited State   1:      Singlet-A      2.0640 eV  600.70 nm  f=0.1496  <S**2>=0.000
     235 -> 237        0.15214
     235 -> 238       -0.28706
     236 -> 237        0.60635
     236 -> 238        0.15200
 This state for optimization and/or second-order correction.
 Total Energy, E(TD-HF/TD-DFT) =  -2732.97387728
 Copying the excited state density for this state as the 1-particle RhoCI density.

 The electronic state is 1-A.
 Alpha  occ. eigenvalues --  -19.18036 -19.17261 -19.13001 -19.12695 -19.11578
 Alpha  occ. eigenvalues --  -14.37367 -14.35841 -14.30977 -14.30069 -10.31795
 Alpha  occ. eigenvalues --  -10.31685 -10.27510 -10.25271 -10.25102 -10.24274
 Alpha  occ. eigenvalues --  -10.24243 -10.23563 -10.23239 -10.22293 -10.22253
 Alpha  occ. eigenvalues --  -10.21799 -10.21790 -10.21629 -10.21465 -10.21376
 Alpha  occ. eigenvalues --  -10.21256 -10.21153 -10.20834 -10.20812 -10.20776
 Alpha  occ. eigenvalues --  -10.20776 -10.20634 -10.20443 -10.20299 -10.20238
 Alpha  occ. eigenvalues --  -10.20112 -10.20105 -10.20040 -10.20032 -10.19927
 Alpha  occ. eigenvalues --  -10.19523 -10.19509 -10.19480 -10.19476 -10.19465
 Alpha  occ. eigenvalues --  -10.19448 -10.19435 -10.19390 -10.19079 -10.19076
 Alpha  occ. eigenvalues --  -10.18973 -10.18710 -10.18701 -10.18568 -10.18499
 Alpha  occ. eigenvalues --  -10.18413 -10.18226 -10.18125 -10.17935 -10.17922
 Alpha  occ. eigenvalues --  -10.17715 -10.17463 -10.17433 -10.16276  -1.10461
 Alpha  occ. eigenvalues --   -1.08331  -1.02844  -1.01341  -0.99708  -0.97874
 Alpha  occ. eigenvalues --   -0.95692  -0.94430  -0.93000  -0.84567  -0.82262
 Alpha  occ. eigenvalues --   -0.81650  -0.81256  -0.81063  -0.80795  -0.80508
 Alpha  occ. eigenvalues --   -0.79992  -0.79324  -0.78864  -0.78626  -0.77441
 Alpha  occ. eigenvalues --   -0.77040  -0.76396  -0.76005  -0.74774  -0.74534
 Alpha  occ. eigenvalues --   -0.74036  -0.73386  -0.72779  -0.71271  -0.70753
 Alpha  occ. eigenvalues --   -0.70110  -0.69338  -0.68486  -0.67867  -0.67451
 Alpha  occ. eigenvalues --   -0.67172  -0.66984  -0.66684  -0.65975  -0.65471
 Alpha  occ. eigenvalues --   -0.64408  -0.63503  -0.62264  -0.62014  -0.60935
 Alpha  occ. eigenvalues --   -0.60468  -0.59189  -0.58879  -0.57970  -0.56729
 Alpha  occ. eigenvalues --   -0.56612  -0.55984  -0.55954  -0.55639  -0.55440
 Alpha  occ. eigenvalues --   -0.54804  -0.54205  -0.53771  -0.53577  -0.52605
 Alpha  occ. eigenvalues --   -0.52442  -0.52123  -0.51530  -0.50659  -0.50570
 Alpha  occ. eigenvalues --   -0.50086  -0.49547  -0.48878  -0.48665  -0.48557
 Alpha  occ. eigenvalues --   -0.48373  -0.48214  -0.47745  -0.47457  -0.46751
 Alpha  occ. eigenvalues --   -0.46461  -0.46334  -0.46250  -0.46077  -0.45658
 Alpha  occ. eigenvalues --   -0.45590  -0.45349  -0.45144  -0.44992  -0.44696
 Alpha  occ. eigenvalues --   -0.44081  -0.43957  -0.43761  -0.43545  -0.43438
 Alpha  occ. eigenvalues --   -0.43376  -0.43113  -0.42955  -0.42717  -0.42615
 Alpha  occ. eigenvalues --   -0.42528  -0.42145  -0.41902  -0.41738  -0.41636
 Alpha  occ. eigenvalues --   -0.41415  -0.41352  -0.41022  -0.40771  -0.40336
 Alpha  occ. eigenvalues --   -0.39868  -0.39777  -0.39584  -0.39480  -0.39195
 Alpha  occ. eigenvalues --   -0.38956  -0.38849  -0.38712  -0.38518  -0.38360
 Alpha  occ. eigenvalues --   -0.38215  -0.38085  -0.37885  -0.37835  -0.37451
 Alpha  occ. eigenvalues --   -0.36965  -0.36954  -0.36874  -0.36687  -0.36607
 Alpha  occ. eigenvalues --   -0.36421  -0.36308  -0.36168  -0.36093  -0.35629
 Alpha  occ. eigenvalues --   -0.35507  -0.35219  -0.35035  -0.34822  -0.34775
 Alpha  occ. eigenvalues --   -0.34471  -0.34059  -0.33850  -0.33708  -0.33514
 Alpha  occ. eigenvalues --   -0.33141  -0.33131  -0.32731  -0.32645  -0.32404
 Alpha  occ. eigenvalues --   -0.32350  -0.31906  -0.31703  -0.31537  -0.31250
 Alpha  occ. eigenvalues --   -0.31024  -0.30870  -0.30476  -0.29933  -0.29716
 Alpha  occ. eigenvalues --   -0.29392  -0.28940  -0.28726  -0.28178  -0.28135
 Alpha  occ. eigenvalues --   -0.27934  -0.27433  -0.26511  -0.26384  -0.25035
 Alpha  occ. eigenvalues --   -0.24737  -0.24451  -0.24035  -0.22953  -0.20181
 Alpha  occ. eigenvalues --   -0.19081
 Alpha virt. eigenvalues --   -0.10403  -0.08192  -0.04652  -0.01323  -0.01064
 Alpha virt. eigenvalues --   -0.00576  -0.00117   0.01406   0.02020   0.03926
 Alpha virt. eigenvalues --    0.04108   0.04265   0.04435   0.04598   0.04642

 Mulliken charges:
               1
     1  C    0.043366
     2  C   -0.011179
     3  C    0.019360
     4  C   -0.019390
     5  N   -0.158262
     6  C   -0.090594
     7  C   -0.086042
     8  C   -0.061558
     9  C    0.010160
    10  C    0.001711
    11  C    0.122886
    12  C    0.058130
    13  C    0.195774
    14  O   -0.262164
    15  O   -0.327862
    16  N   -0.244148
    17  C    0.136752
    18  C   -0.169460
    19  C    0.072574
    20  C    0.202364
    21  C    0.133106
    22  C   -0.059764
    23  C   -0.055076
    24  N   -0.175693
    25  C   -0.072486
    26  C   -0.101217
    27  C   -0.104243
    28  C    0.060350
    29  C    0.095371
    30  C    0.086833
    31  C   -0.029083
    32  N   -0.022161
    33  C    0.017310
    34  C   -0.157910
    35  C    0.032793
    36  C    0.064964
    37  C    0.175060
    38  C    0.027460
    39  O   -0.198113
    40  C   -0.027970
    41  C    0.217584
    42  O   -0.190126
    43  O   -0.281239
    44  C    0.212827
    45  C    0.230563
    46  C   -0.061600
    47  C   -0.208991
    48  C    0.008699
    49  C    0.107261
    50  C    0.039477
    51  C    0.101570
    52  C   -0.154887
    53  C   -0.008065
    54  C    0.091586
    55  C   -0.049093
    56  C    0.081087
    57  C   -0.041002
    58  C    0.003218
    59  C    0.009145
    60  C    0.040703
    61  C    0.011517
    62  C   -0.125965
    63  C   -0.031721
    64  C    0.067525
    65  H   -0.058879
    66  H   -0.113806
    67  H   -0.065749
    68  H    0.042693
    69  H    0.008466
    70  H    0.034945
    71  H    0.033194
    72  H    0.045093
    73  H   -0.020340
    74  H   -0.030125
    75  H    0.013484
    76  H    0.037413
    77  H    0.049415
    78  H   -0.013900
    79  H    0.036729
    80  H    0.024778
    81  H    0.035058
    82  H    0.020824
    83  H    0.032443
    84  H   -0.030133
    85  H    0.022763
    86  H   -0.005218
    87  H    0.002499
    88  H    0.018511
    89  H    0.020333
    90  H    0.027325
    91  H   -0.012803
    92  H    0.016744
    93  H    0.060126
    94  H    0.063461
    95  H   -0.018854
    96  H    0.040507
    97  H    0.014007
    98  H    0.019044
    99  H    0.047502
   100  H    0.028029
   101  H    0.041478
   102  H    0.064230
   103  H    0.021401
   104  H   -0.002878
   105  H   -0.010566
   106  H    0.000277
   107  H   -0.010755
   108  H   -0.047369
   109  H   -0.054008
   110  H    0.003275
   111  H    0.028227
   112  H    0.025483
   113  H    0.028485
   114  H   -0.033412
   115  H    0.014768
   116  H    0.025907
   117  H    0.002906
   118  H   -0.010596
   119  H   -0.014613
   120  H   -0.029101
   121  H   -0.013686
   122  H   -0.004741
   123  H    0.015611
   124  H   -0.024625
   125  H   -0.026205
   126  H    0.015207
   127  H   -0.001778
   128  H    0.010218
   129  H    0.005241
   130  H    0.016866
   131  H    0.017765
   132  H    0.021094
   133  H    0.038903
   134  H   -0.006524
   135  H    0.004141
   136  H   -0.018138
   137  H    0.177810
   138  H    0.112104
 Sum of Mulliken charges =  -0.00000

 Dipole moment (field-independent basis, Debye):
    X=              2.0385    Y=              4.4021    Z=              0.2501  Tot=              4.8576
 Quadrupole moment (field-independent basis, Debye-Ang):
   XX=           -344.9020   YY=           -382.7916   ZZ=           -392.7529
   XY=            -18.2185   XZ=             15.7258   YZ=             -3.9010

 Normal termination of Gaussian 16 at Mon Aug 26 02:32:15 2019.
