 Gaussian 16, Revision A.03,
 Gaussian 16:  ES64L-G16RevA.03 25-Dec-2016

 --------------------------
 # td=(NStates=1) B3LYP/SVP
 --------------------------

 --
 TD
 --
 Symbolic Z-matrix:
 Charge =  0 Multiplicity = 1

                         Standard orientation:
 ---------------------------------------------------------------------
 Center     Atomic      Atomic             Coordinates (Angstroms)
 Number     Number       Type             X           Y           Z
 ---------------------------------------------------------------------
      1          6           0       -5.098763   -2.022685    0.529418
      2          6           0       -4.719215    2.741817    1.442659
      3          6           0       -9.422722    3.391671   -0.175832
      4          6           0       -9.759668   -1.407046   -0.949953
      5          7           0       -5.144831    0.431255    0.861430
      6          6           0       -4.473556   -0.775336    0.846945
      7          6           0       -3.013317   -0.599039    1.300051
      8          6           0       -3.041357    0.756972    1.986507
      9          6           0       -4.379066    1.377347    1.417525
     10          6           0       -2.992713    0.639795    3.569755
     11          6           0       -2.079946   -0.574040    0.088033
     12          6           0       -0.533035   -0.521578    0.526878
     13          6           0        0.401353   -0.770513   -0.652936
     14          8           0        0.034886   -1.094938   -1.743197
     15          8           0        1.659736   -0.570269   -0.242336
     16          7           0       -7.005110    2.739644    0.460391
     17          6           0       -5.974736    3.329815    1.045006
     18          6           0       -6.223901    4.693935    1.146155
     19          6           0       -7.552470    4.965602    0.543950
     20          6           0       -8.085631    3.670185    0.292062
     21          6           0       -5.241281    5.815777    1.607407
     22          6           0       -8.025677    6.275053    0.290416
     23          6           0       -8.892892    6.663188   -0.666233
     24          7           0       -9.256873    0.899594   -0.494821
     25          6           0       -9.839740    2.052018   -0.426873
     26          6           0      -11.245665    1.808310   -0.983602
     27          6           0      -11.356038    0.478602   -1.168002
     28          6           0      -10.084927   -0.086577   -0.914264
     29          6           0      -12.228965    2.914752   -1.151972
     30          6           0      -12.653120   -0.266019   -1.684388
     31          6           0      -12.583491   -0.676255   -3.156035
     32          7           0       -7.394041   -1.308971   -0.220053
     33          6           0       -8.559846   -2.066702   -0.670102
     34          6           0       -8.247237   -3.520783   -0.644155
     35          6           0       -6.827033   -3.481364   -0.270940
     36          6           0       -6.449992   -2.087405    0.018221
     37          6           0       -9.037671   -4.659851   -1.182474
     38          6           0       -5.566813   -4.318183   -0.078834
     39          8           0       -5.551498   -5.462414   -0.295812
     40          6           0       -4.438217   -3.418534    0.431470
     41          6           0       -3.974478   -3.873735    1.781855
     42          8           0       -4.424426   -3.504357    2.898404
     43          8           0       -2.965346   -4.844384    1.640601
     44          6           0       -2.457354   -5.481928    2.818302
     45          6           0        2.686168   -1.015156   -1.287015
     46          6           0        4.019746   -0.593396   -0.557061
     47          6           0        4.899893    0.382966   -1.027261
     48          6           0        4.822239    1.161356   -2.345210
     49          6           0        6.290019    0.395746   -0.329092
     50          6           0        7.442751   -0.361129   -1.036030
     51          6           0        8.828352   -0.213940   -0.190743
     52          6           0        9.981701   -0.696227   -0.925935
     53          6           0        9.916374   -2.164274   -1.101833
     54          6           0       11.257812   -0.224797   -0.066297
     55          6           0       12.584971   -0.519642   -0.627757
     56          6           0       13.836892   -0.138473    0.228435
     57          6           0       15.255382   -0.330656   -0.400764
     58          6           0       15.549431   -1.780529   -0.617058
     59          6           0       16.262825    0.547538    0.365430
     60          6           0       17.669164    0.523863   -0.212480
     61          6           0       18.561823    1.439834    0.615761
     62          6           0       20.008550    1.641653    0.222433
     63          6           0       20.161289    2.148963   -1.255275
     64          6           0       20.811594    2.310817    1.297934
     65          1           0       -3.938688    3.565923    1.682266
     66          1           0      -10.100195    4.040803   -0.325792
     67          1           0      -10.440740   -2.039758   -1.178091
     68          1           0       -2.726311   -1.218577    2.122203
     69          1           0       -2.073447    1.330274    1.805165
     70          1           0       -2.074631    0.423480    3.962276
     71          1           0       -3.257360    1.629447    3.934212
     72          1           0       -3.790826    0.012417    4.082515
     73          1           0       -2.277771   -1.215156   -0.674649
     74          1           0       -2.305745    0.200528   -0.605706
     75          1           0       -0.336289    0.336076    1.106525
     76          1           0       -0.190382   -1.368413    1.090997
     77          1           0       -4.576035    6.268294    0.660836
     78          1           0       -6.034745    6.751097    1.847813
     79          1           0       -4.606482    5.384536    2.439063
     80          1           0       -7.880236    6.965535    1.017965
     81          1           0       -9.119451    6.073768   -1.487482
     82          1           0       -9.427650    7.686554   -0.580657
     83          1           0      -12.390821    3.425263   -0.139110
     84          1           0      -12.076395    3.665029   -1.953822
     85          1           0      -13.179101    2.425797   -1.487841
     86          1           0      -12.848823   -1.171300   -1.028637
     87          1           0      -13.463850    0.316561   -1.401115
     88          1           0      -12.373464    0.298995   -3.793165
     89          1           0      -11.730940   -1.377043   -3.634404
     90          1           0      -13.564748   -1.000866   -3.524564
     91          1           0       -9.871226   -4.945497   -0.349776
     92          1           0       -9.551378   -4.461578   -2.053718
     93          1           0       -8.331993   -5.506608   -1.191797
     94          1           0       -3.814685   -3.753984   -0.172266
     95          1           0       -1.816682   -6.210144    2.648357
     96          1           0       -1.931816   -4.712069    3.495768
     97          1           0       -3.326719   -5.762994    3.525959
     98          1           0        2.698974   -2.235835   -1.492484
     99          1           0        2.565867   -0.465113   -2.201372
    100          1           0        4.423954   -1.011678    0.367438
    101          1           0        5.132246    2.210473   -2.301855
    102          1           0        5.183046    0.473016   -3.162779
    103          1           0        3.610686    1.177850   -2.548932
    104          1           0        6.641542    1.331727   -0.256332
    105          1           0        6.248262    0.008901    0.673329
    106          1           0        7.226046   -1.415158   -1.026316
    107          1           0        7.867283    0.078618   -2.130622
    108          1           0        8.674864    0.929521    0.065117
    109          1           0        8.768639   -0.792725    0.697665
    110          1           0       10.167089   -0.106393   -1.760694
    111          1           0        8.915642   -2.303169   -1.648515
    112          1           0       11.038750   -2.550859   -1.489220
    113          1           0        9.770989   -2.796406   -0.134956
    114          1           0       10.945758    0.962608    0.112638
    115          1           0       11.206939   -0.675870    1.016298
    116          1           0       12.647622   -1.619032   -0.725617
    117          1           0       12.595884   -0.045029   -1.538394
    118          1           0       13.757304    0.961676    0.408809
    119          1           0       13.786413   -0.696327    1.271925
    120          1           0       15.186068    0.157413   -1.398331
    121          1           0       14.587444   -2.226989   -1.159934
    122          1           0       16.478610   -2.097433   -1.193159
    123          1           0       15.755118   -2.319277    0.365350
    124          1           0       15.749873    1.625348    0.272658
    125          1           0       16.297163    0.269645    1.560744
    126          1           0       17.865676   -0.602730   -0.365458
    127          1           0       17.768827    0.842674   -1.302892
    128          1           0       18.154762    2.544837    0.581471
    129          1           0       18.349758    1.352630    1.678314
    130          1           0       20.332732    0.506962    0.266567
    131          1           0       20.300388    3.404776   -1.256373
    132          1           0       21.342391    1.758439   -1.368637
    133          1           0       19.572558    1.669629   -2.004393
    134          1           0       20.561437    2.124779    2.347672
    135          1           0       21.728852    2.187265    1.150424
    136          1           0       20.599956    3.492396    1.450816
    137          1           0       -7.171087    1.695915    0.462932
    138          1           0       -7.452290   -0.273889   -0.369344
 ---------------------------------------------------------------------

 SCF Done:  E(RB3LYP) =  -2733.01067205     A.U. after   17 cycles

 Excitation energies and oscillator strengths:

 Excited State   1:      Singlet-A      2.0314 eV  610.35 nm  f=0.1564  <S**2>=0.000
     235 -> 238       -0.30746
     236 -> 237        0.62692
 This state for optimization and/or second-order correction.
 Total Energy, E(TD-HF/TD-DFT) =  -2732.93602115
 Copying the excited state density for this state as the 1-particle RhoCI density.

 The electronic state is 1-A.
 Alpha  occ. eigenvalues --  -19.17935 -19.17882 -19.12787 -19.12632 -19.12192
 Alpha  occ. eigenvalues --  -14.37575 -14.36978 -14.32202 -14.29372 -10.32378
 Alpha  occ. eigenvalues --  -10.30886 -10.28057 -10.27190 -10.24240 -10.24230
 Alpha  occ. eigenvalues --  -10.23942 -10.23544 -10.23432 -10.23252 -10.23158
 Alpha  occ. eigenvalues --  -10.23027 -10.22760 -10.21286 -10.21044 -10.21015
 Alpha  occ. eigenvalues --  -10.20899 -10.20791 -10.20778 -10.20565 -10.20528
 Alpha  occ. eigenvalues --  -10.20431 -10.20357 -10.20200 -10.20194 -10.20121
 Alpha  occ. eigenvalues --  -10.20044 -10.19951 -10.19902 -10.19863 -10.19785
 Alpha  occ. eigenvalues --  -10.19764 -10.19661 -10.19605 -10.19587 -10.19567
 Alpha  occ. eigenvalues --  -10.19518 -10.19374 -10.19306 -10.19242 -10.19202
 Alpha  occ. eigenvalues --  -10.19072 -10.19014 -10.18986 -10.18831 -10.18463
 Alpha  occ. eigenvalues --  -10.18333 -10.18245 -10.18156 -10.17951 -10.17876
 Alpha  occ. eigenvalues --  -10.17804 -10.17685 -10.17607 -10.17306  -1.08867
 Alpha  occ. eigenvalues --   -1.07016  -1.05965  -1.00652  -0.99355  -0.98656
 Alpha  occ. eigenvalues --   -0.97841  -0.94744  -0.93701  -0.84457  -0.83038
 Alpha  occ. eigenvalues --   -0.81872  -0.81584  -0.81289  -0.80943  -0.80520
 Alpha  occ. eigenvalues --   -0.79866  -0.79647  -0.78691  -0.78571  -0.76937
 Alpha  occ. eigenvalues --   -0.76709  -0.76084  -0.75625  -0.74493  -0.74017
 Alpha  occ. eigenvalues --   -0.73871  -0.73101  -0.72396  -0.71517  -0.70534
 Alpha  occ. eigenvalues --   -0.70135  -0.69375  -0.68230  -0.68032  -0.67452
 Alpha  occ. eigenvalues --   -0.67200  -0.66513  -0.65831  -0.65700  -0.65080
 Alpha  occ. eigenvalues --   -0.63765  -0.63602  -0.62794  -0.62324  -0.61594
 Alpha  occ. eigenvalues --   -0.61369  -0.59298  -0.58820  -0.57657  -0.56906
 Alpha  occ. eigenvalues --   -0.56696  -0.56379  -0.55762  -0.55421  -0.55377
 Alpha  occ. eigenvalues --   -0.55126  -0.54787  -0.53836  -0.53720  -0.53326
 Alpha  occ. eigenvalues --   -0.52683  -0.52474  -0.51693  -0.51115  -0.50434
 Alpha  occ. eigenvalues --   -0.49355  -0.49180  -0.49056  -0.48872  -0.48129
 Alpha  occ. eigenvalues --   -0.47837  -0.47716  -0.47320  -0.46800  -0.46661
 Alpha  occ. eigenvalues --   -0.46427  -0.46392  -0.46310  -0.45985  -0.45743
 Alpha  occ. eigenvalues --   -0.45733  -0.45507  -0.45040  -0.44888  -0.44769
 Alpha  occ. eigenvalues --   -0.44313  -0.44096  -0.43966  -0.43775  -0.43666
 Alpha  occ. eigenvalues --   -0.43571  -0.43442  -0.43341  -0.43296  -0.43069
 Alpha  occ. eigenvalues --   -0.42609  -0.42582  -0.41972  -0.41905  -0.41732
 Alpha  occ. eigenvalues --   -0.41354  -0.40851  -0.40792  -0.40677  -0.40193
 Alpha  occ. eigenvalues --   -0.39943  -0.39890  -0.39725  -0.39645  -0.39438
 Alpha  occ. eigenvalues --   -0.39364  -0.39164  -0.39097  -0.38806  -0.38612
 Alpha  occ. eigenvalues --   -0.38501  -0.38077  -0.37985  -0.37925  -0.37796
 Alpha  occ. eigenvalues --   -0.37618  -0.37211  -0.37145  -0.36795  -0.36696
 Alpha  occ. eigenvalues --   -0.36662  -0.36443  -0.36176  -0.35908  -0.35880
 Alpha  occ. eigenvalues --   -0.35755  -0.35614  -0.35484  -0.35374  -0.34848
 Alpha  occ. eigenvalues --   -0.34734  -0.34283  -0.34107  -0.34042  -0.33515
 Alpha  occ. eigenvalues --   -0.33241  -0.32814  -0.32799  -0.32706  -0.32234
 Alpha  occ. eigenvalues --   -0.31935  -0.31841  -0.31817  -0.31530  -0.30941
 Alpha  occ. eigenvalues --   -0.30852  -0.30818  -0.30460  -0.30232  -0.29993
 Alpha  occ. eigenvalues --   -0.29530  -0.28145  -0.27945  -0.27885  -0.27735
 Alpha  occ. eigenvalues --   -0.27455  -0.27085  -0.26477  -0.25886  -0.25143
 Alpha  occ. eigenvalues --   -0.24637  -0.24463  -0.23362  -0.22899  -0.19388
 Alpha  occ. eigenvalues --   -0.19162
 Alpha virt. eigenvalues --   -0.10576  -0.07444  -0.03786  -0.02328  -0.01412
 Alpha virt. eigenvalues --   -0.01327   0.00907   0.01704   0.02487   0.03380
 Alpha virt. eigenvalues --    0.04058   0.04276   0.04377   0.04636   0.04891

 Mulliken charges:
               1
     1  C    0.011546
     2  C   -0.104594
     3  C    0.029821
     4  C    0.022767
     5  N   -0.180867
     6  C   -0.059996
     7  C    0.034958
     8  C   -0.109372
     9  C    0.040392
    10  C    0.079183
    11  C    0.146389
    12  C    0.076503
    13  C    0.153739
    14  O   -0.223815
    15  O   -0.324142
    16  N   -0.070366
    17  C    0.088347
    18  C   -0.165071
    19  C    0.070260
    20  C    0.120522
    21  C   -0.014422
    22  C   -0.037833
    23  C   -0.036252
    24  N   -0.170261
    25  C    0.008472
    26  C   -0.170585
    27  C   -0.091931
    28  C    0.090366
    29  C    0.075417
    30  C    0.127159
    31  C   -0.045640
    32  N    0.025714
    33  C    0.017149
    34  C   -0.113731
    35  C   -0.084295
    36  C    0.022238
    37  C    0.101840
    38  C   -0.006770
    39  O   -0.112639
    40  C    0.219459
    41  C    0.212703
    42  O   -0.254301
    43  O   -0.340406
    44  C    0.218228
    45  C    0.239782
    46  C   -0.053433
    47  C   -0.170642
    48  C    0.014984
    49  C    0.142549
    50  C   -0.043991
    51  C   -0.032759
    52  C    0.025213
    53  C   -0.024404
    54  C   -0.099975
    55  C    0.132495
    56  C   -0.014398
    57  C   -0.038708
    58  C   -0.013465
    59  C   -0.061626
    60  C    0.047942
    61  C    0.012603
    62  C   -0.082165
    63  C   -0.033736
    64  C    0.117655
    65  H    0.008547
    66  H   -0.129202
    67  H   -0.132485
    68  H   -0.007370
    69  H    0.003555
    70  H   -0.004779
    71  H   -0.007586
    72  H    0.031221
    73  H   -0.036809
    74  H   -0.024197
    75  H    0.011735
    76  H    0.016051
    77  H    0.060979
    78  H    0.045996
    79  H    0.054026
    80  H   -0.024702
    81  H    0.006474
    82  H    0.036832
    83  H    0.038433
    84  H    0.026885
    85  H   -0.001862
    86  H   -0.001516
    87  H   -0.023957
    88  H    0.013961
    89  H    0.039681
    90  H    0.015660
    91  H    0.040913
    92  H    0.020488
    93  H    0.049418
    94  H   -0.079803
    95  H    0.000919
    96  H    0.017565
    97  H    0.039060
    98  H    0.068868
    99  H    0.026921
   100  H   -0.007621
   101  H    0.038271
   102  H    0.056308
   103  H    0.026542
   104  H   -0.048288
   105  H   -0.010537
   106  H   -0.000043
   107  H    0.023891
   108  H    0.008996
   109  H   -0.017765
   110  H   -0.031034
   111  H    0.027665
   112  H    0.040181
   113  H    0.016656
   114  H    0.001936
   115  H   -0.008312
   116  H    0.001406
   117  H   -0.034465
   118  H   -0.008790
   119  H    0.006180
   120  H   -0.015361
   121  H    0.025997
   122  H    0.021559
   123  H    0.007528
   124  H    0.012343
   125  H    0.017671
   126  H   -0.002183
   127  H   -0.009357
   128  H   -0.022874
   129  H   -0.025452
   130  H    0.000340
   131  H    0.043569
   132  H    0.021529
   133  H    0.031379
   134  H    0.000165
   135  H   -0.052727
   136  H   -0.004019
   137  H    0.168390
   138  H    0.160607
 Sum of Mulliken charges =  -0.00000

 Dipole moment (field-independent basis, Debye):
    X=              2.4984    Y=              2.7683    Z=             -0.1840  Tot=              3.7335
 Quadrupole moment (field-independent basis, Debye-Ang):
   XX=           -345.5517   YY=           -383.6280   ZZ=           -395.7541
   XY=            -21.9207   XZ=             13.0069   YZ=             -0.8651

 Normal termination of Gaussian 16 at Sat Aug 31 13:33:56 2019.
