 Gaussian 16, Revision A.03,
 Gaussian 16:  ES64L-G16RevA.03 25-Dec-2016

 --------------------------
 # td=(NStates=1) B3LYP/SVP
 --------------------------

 --
 TD
 --
 Symbolic Z-matrix:
 Charge =  0 Multiplicity = 1

                         Standard orientation:
 ---------------------------------------------------------------------
 Center     Atomic      Atomic             Coordinates (Angstroms)
 Number     Number       Type             X           Y           Z
 ---------------------------------------------------------------------
      1          6           0       -5.167188   -1.962201    0.429996
      2          6           0       -4.648712    2.671434    1.381349
      3          6           0       -9.278200    3.459517   -0.183237
      4          6           0       -9.873505   -1.354508   -0.815373
      5          7           0       -5.163613    0.388120    0.863743
      6          6           0       -4.503916   -0.846304    0.884057
      7          6           0       -3.055673   -0.713228    1.275206
      8          6           0       -3.031667    0.762016    1.916590
      9          6           0       -4.302230    1.329187    1.351958
     10          6           0       -2.910981    0.742910    3.373673
     11          6           0       -2.105858   -0.916471    0.051380
     12          6           0       -0.676001   -0.822880    0.448563
     13          6           0        0.339011   -1.274875   -0.662652
     14          8           0        0.003832   -1.762517   -1.763431
     15          8           0        1.593459   -0.843759   -0.448533
     16          7           0       -7.015805    2.782673    0.527360
     17          6           0       -5.833994    3.338993    0.955651
     18          6           0       -6.034216    4.821323    1.002454
     19          6           0       -7.266853    5.046534    0.494720
     20          6           0       -7.906886    3.760448    0.184656
     21          6           0       -4.983999    5.770699    1.462820
     22          6           0       -7.790452    6.408837    0.317707
     23          6           0       -8.797942    6.857945   -0.561092
     24          7           0       -9.176590    0.959911   -0.377297
     25          6           0       -9.761458    2.166697   -0.405828
     26          6           0      -11.128943    1.980164   -0.890191
     27          6           0      -11.422711    0.682478   -1.117956
     28          6           0      -10.094766    0.079596   -0.825159
     29          6           0      -12.097409    3.218987   -1.009927
     30          6           0      -12.656373    0.006436   -1.529846
     31          6           0      -12.642847   -0.330873   -2.989560
     32          7           0       -7.649764   -1.202132   -0.095333
     33          6           0       -8.722193   -1.938394   -0.498472
     34          6           0       -8.229800   -3.316805   -0.570876
     35          6           0       -6.946636   -3.387627   -0.247228
     36          6           0       -6.505065   -2.056976    0.004458
     37          6           0       -9.176581   -4.473158   -0.933964
     38          6           0       -5.848907   -4.370704   -0.003974
     39          8           0       -5.825402   -5.540794    0.039788
     40          6           0       -4.578081   -3.365128    0.266342
     41          6           0       -4.039617   -3.920405    1.667044
     42          8           0       -4.281704   -3.443875    2.701059
     43          8           0       -3.229869   -4.996321    1.416777
     44          6           0       -2.692027   -5.605334    2.539465
     45          6           0        2.607648   -1.208435   -1.322668
     46          6           0        3.951984   -0.797824   -0.701826
     47          6           0        4.972133   -0.032659   -1.195727
     48          6           0        4.876235    0.626074   -2.542785
     49          6           0        6.238451    0.248018   -0.399123
     50          6           0        7.506631   -0.384622   -1.069230
     51          6           0        8.784617   -0.045681   -0.223784
     52          6           0        9.992291   -0.619753   -0.843217
     53          6           0       10.095536   -2.175147   -1.020202
     54          6           0       11.211991   -0.193975    0.019981
     55          6           0       12.540798   -0.552781   -0.558781
     56          6           0       13.733744    0.009871    0.221810
     57          6           0       15.194602   -0.113419   -0.342002
     58          6           0       15.522150   -1.551256   -0.347882
     59          6           0       16.196140    0.719328    0.428132
     60          6           0       17.649024    0.744763   -0.118090
     61          6           0       18.570847    1.682853    0.647396
     62          6           0       20.065052    1.469365    0.325315
     63          6           0       20.410613    1.982639   -1.197837
     64          6           0       20.927796    2.386937    1.275220
     65          1           0       -3.817032    3.396619    1.501343
     66          1           0       -9.804646    4.354330   -0.624857
     67          1           0      -10.744068   -2.034763   -1.047342
     68          1           0       -2.890108   -1.330107    2.187271
     69          1           0       -2.098250    1.518326    1.426620
     70          1           0       -1.882111    0.510978    3.644712
     71          1           0       -3.306932    1.618560    4.035886
     72          1           0       -3.611196    0.124219    3.734036
     73          1           0       -2.535166   -1.912162   -0.372804
     74          1           0       -2.354924   -0.075145   -0.764966
     75          1           0       -0.173630    0.013488    1.054355
     76          1           0       -0.409250   -1.586288    1.135202
     77          1           0       -3.954435    5.823574    0.939290
     78          1           0       -5.347399    6.819783    1.464709
     79          1           0       -4.780617    5.581866    2.653548
     80          1           0       -7.519007    7.192134    1.024821
     81          1           0       -9.279997    5.936946   -1.350328
     82          1           0       -9.255158    7.863333   -0.674807
     83          1           0      -11.967078    4.016391   -0.187186
     84          1           0      -11.941603    3.670681   -2.140672
     85          1           0      -13.060107    2.747952   -1.026296
     86          1           0      -12.536700   -0.937520   -0.860394
     87          1           0      -13.590298    0.417144   -1.277716
     88          1           0      -12.748410    0.653153   -3.509841
     89          1           0      -11.771405   -0.684255   -3.298211
     90          1           0      -13.466538   -0.914151   -3.531575
     91          1           0      -10.207295   -4.511861   -0.507437
     92          1           0       -9.520115   -4.756515   -1.998599
     93          1           0       -8.720884   -5.459747   -0.495678
     94          1           0       -3.616407   -3.679740   -0.408980
     95          1           0       -2.071382   -6.340648    2.088214
     96          1           0       -2.033384   -4.940761    3.046030
     97          1           0       -3.437474   -6.200027    3.040993
     98          1           0        2.599262   -2.301572   -1.534810
     99          1           0        2.473615   -0.665141   -2.500282
    100          1           0        4.066757   -1.127879    0.337560
    101          1           0        5.427139    1.655189   -2.261685
    102          1           0        5.559635    0.018964   -3.332685
    103          1           0        3.923886    0.738946   -2.917427
    104          1           0        6.313919    1.402210   -0.544594
    105          1           0        6.028424   -0.052939    0.599916
    106          1           0        7.247002   -1.551920   -1.201484
    107          1           0        7.378518   -0.107211   -2.063426
    108          1           0        8.812796    0.953661    0.094106
    109          1           0        8.559247   -0.568565    0.725651
    110          1           0       10.193642   -0.202355   -1.713317
    111          1           0        9.359300   -2.548866   -1.605474
    112          1           0       11.083684   -2.461752   -1.529946
    113          1           0       10.120447   -2.681006   -0.085186
    114          1           0       11.187928    0.978086    0.293021
    115          1           0       11.187164   -0.839290    0.815520
    116          1           0       12.732666   -1.591917   -0.567910
    117          1           0       12.752714   -0.083425   -1.585498
    118          1           0       13.424718    1.107781    0.423585
    119          1           0       13.838935   -0.035353    1.451379
    120          1           0       15.220156    0.163568   -1.285527
    121          1           0       14.777309   -2.213047   -0.866030
    122          1           0       16.525059   -1.689000   -0.906578
    123          1           0       15.463587   -2.050193    0.682327
    124          1           0       15.872536    1.842719    0.467115
    125          1           0       16.197494    0.313940    1.352330
    126          1           0       17.922886   -0.260865   -0.176053
    127          1           0       17.599830    1.126338   -1.199163
    128          1           0       18.231858    2.781997    0.504372
    129          1           0       18.656809    1.331461    1.654619
    130          1           0       20.206627    0.423438    0.430947
    131          1           0       20.183034    3.133354   -1.241194
    132          1           0       21.528786    1.983653   -1.398613
    133          1           0       19.794978    1.321433   -2.074488
    134          1           0       20.855141    1.885929    2.287936
    135          1           0       22.170031    2.206052    1.111488
    136          1           0       20.780730    3.518259    1.405049
    137          1           0       -7.217351    1.711958    0.501786
    138          1           0       -7.683640   -0.120056   -0.226013
 ---------------------------------------------------------------------

 SCF Done:  E(RB3LYP) =  -2733.09545086     A.U. after   16 cycles

 Excitation energies and oscillator strengths:

 Excited State   1:      Singlet-A      2.0585 eV  602.32 nm  f=0.1529  <S**2>=0.000
     235 -> 237       -0.12116
     235 -> 238       -0.30436
     236 -> 237        0.61400
     236 -> 238       -0.11752
 This state for optimization and/or second-order correction.
 Total Energy, E(TD-HF/TD-DFT) =  -2733.01980395
 Copying the excited state density for this state as the 1-particle RhoCI density.

 The electronic state is 1-A.
 Alpha  occ. eigenvalues --  -19.18702 -19.17404 -19.13922 -19.13383 -19.12107
 Alpha  occ. eigenvalues --  -14.37850 -14.36253 -14.32307 -14.30540 -10.32133
 Alpha  occ. eigenvalues --  -10.31458 -10.29110 -10.26678 -10.24112 -10.24078
 Alpha  occ. eigenvalues --  -10.23874 -10.23312 -10.22811 -10.22413 -10.22403
 Alpha  occ. eigenvalues --  -10.22393 -10.22045 -10.21997 -10.21804 -10.21618
 Alpha  occ. eigenvalues --  -10.21596 -10.21499 -10.21437 -10.21433 -10.21011
 Alpha  occ. eigenvalues --  -10.20830 -10.20791 -10.20691 -10.20620 -10.20474
 Alpha  occ. eigenvalues --  -10.20351 -10.20253 -10.20118 -10.20063 -10.20048
 Alpha  occ. eigenvalues --  -10.19968 -10.19966 -10.19791 -10.19478 -10.19427
 Alpha  occ. eigenvalues --  -10.19378 -10.19362 -10.19070 -10.18992 -10.18764
 Alpha  occ. eigenvalues --  -10.18441 -10.18381 -10.18344 -10.18295 -10.18254
 Alpha  occ. eigenvalues --  -10.18169 -10.18106 -10.17941 -10.17822 -10.17720
 Alpha  occ. eigenvalues --  -10.17515 -10.17481 -10.17323 -10.17308  -1.10641
 Alpha  occ. eigenvalues --   -1.10310  -1.06259  -1.03295  -0.99155  -0.97938
 Alpha  occ. eigenvalues --   -0.97237  -0.94420  -0.93351  -0.84742  -0.83089
 Alpha  occ. eigenvalues --   -0.82118  -0.81839  -0.81463  -0.81089  -0.80679
 Alpha  occ. eigenvalues --   -0.80124  -0.79483  -0.79381  -0.78509  -0.78090
 Alpha  occ. eigenvalues --   -0.76819  -0.75907  -0.75283  -0.74626  -0.74005
 Alpha  occ. eigenvalues --   -0.73685  -0.73259  -0.72405  -0.71825  -0.70159
 Alpha  occ. eigenvalues --   -0.69907  -0.68772  -0.68428  -0.68323  -0.66803
 Alpha  occ. eigenvalues --   -0.66588  -0.66485  -0.65704  -0.65278  -0.64801
 Alpha  occ. eigenvalues --   -0.64162  -0.62793  -0.62728  -0.61794  -0.61479
 Alpha  occ. eigenvalues --   -0.61029  -0.59742  -0.58700  -0.58165  -0.57376
 Alpha  occ. eigenvalues --   -0.56765  -0.56623  -0.56213  -0.55984  -0.55820
 Alpha  occ. eigenvalues --   -0.55172  -0.55059  -0.54568  -0.53405  -0.52764
 Alpha  occ. eigenvalues --   -0.52278  -0.51764  -0.51408  -0.50640  -0.50462
 Alpha  occ. eigenvalues --   -0.49607  -0.49391  -0.49104  -0.48911  -0.48761
 Alpha  occ. eigenvalues --   -0.48403  -0.47966  -0.47606  -0.47327  -0.46899
 Alpha  occ. eigenvalues --   -0.46736  -0.46407  -0.46215  -0.45953  -0.45820
 Alpha  occ. eigenvalues --   -0.45633  -0.45491  -0.44989  -0.44856  -0.44677
 Alpha  occ. eigenvalues --   -0.44401  -0.44291  -0.44075  -0.43846  -0.43745
 Alpha  occ. eigenvalues --   -0.43521  -0.43339  -0.43110  -0.42440  -0.42332
 Alpha  occ. eigenvalues --   -0.42134  -0.42000  -0.41870  -0.41397  -0.41324
 Alpha  occ. eigenvalues --   -0.41269  -0.41035  -0.40911  -0.40619  -0.40399
 Alpha  occ. eigenvalues --   -0.39994  -0.39868  -0.39721  -0.39516  -0.39185
 Alpha  occ. eigenvalues --   -0.39177  -0.38978  -0.38812  -0.38619  -0.38476
 Alpha  occ. eigenvalues --   -0.38061  -0.38041  -0.37939  -0.37724  -0.37433
 Alpha  occ. eigenvalues --   -0.37405  -0.37201  -0.36982  -0.36872  -0.36841
 Alpha  occ. eigenvalues --   -0.36732  -0.36463  -0.36312  -0.36139  -0.35835
 Alpha  occ. eigenvalues --   -0.35693  -0.35496  -0.35194  -0.35038  -0.34960
 Alpha  occ. eigenvalues --   -0.34397  -0.34061  -0.33989  -0.33852  -0.33749
 Alpha  occ. eigenvalues --   -0.33521  -0.33376  -0.33181  -0.33167  -0.32526
 Alpha  occ. eigenvalues --   -0.32177  -0.32050  -0.31875  -0.31806  -0.31282
 Alpha  occ. eigenvalues --   -0.31154  -0.30812  -0.30710  -0.30687  -0.29860
 Alpha  occ. eigenvalues --   -0.29534  -0.28895  -0.28535  -0.28533  -0.27978
 Alpha  occ. eigenvalues --   -0.27727  -0.27157  -0.26965  -0.26473  -0.26119
 Alpha  occ. eigenvalues --   -0.25589  -0.24240  -0.23939  -0.23196  -0.20020
 Alpha  occ. eigenvalues --   -0.18548
 Alpha virt. eigenvalues --   -0.09838  -0.07936  -0.04476  -0.02378  -0.00862
 Alpha virt. eigenvalues --   -0.00141   0.00151   0.01127   0.02107   0.03651
 Alpha virt. eigenvalues --    0.03993   0.04138   0.04318   0.04655   0.04923

 Mulliken charges:
               1
     1  C    0.061530
     2  C   -0.053950
     3  C   -0.112356
     4  C   -0.110039
     5  N   -0.204164
     6  C   -0.086934
     7  C   -0.007542
     8  C   -0.122329
     9  C    0.019202
    10  C    0.130372
    11  C    0.063510
    12  C    0.086021
    13  C    0.149746
    14  O   -0.264363
    15  O   -0.268459
    16  N   -0.091536
    17  C    0.060800
    18  C   -0.102139
    19  C    0.071543
    20  C    0.042020
    21  C    0.023217
    22  C   -0.062013
    23  C   -0.117748
    24  N   -0.231445
    25  C    0.118920
    26  C   -0.174461
    27  C   -0.084522
    28  C    0.033629
    29  C    0.059552
    30  C    0.085762
    31  C    0.061286
    32  N   -0.125227
    33  C    0.100443
    34  C   -0.106411
    35  C    0.006945
    36  C    0.125986
    37  C   -0.007681
    38  C    0.122598
    39  O   -0.101080
    40  C   -0.225493
    41  C    0.186427
    42  O   -0.166876
    43  O   -0.310042
    44  C    0.232748
    45  C    0.199459
    46  C   -0.077691
    47  C   -0.189021
    48  C    0.053315
    49  C    0.080682
    50  C   -0.010958
    51  C    0.138875
    52  C    0.017783
    53  C    0.059696
    54  C    0.019582
    55  C    0.087606
    56  C   -0.094843
    57  C    0.073324
    58  C   -0.018684
    59  C    0.049051
    60  C    0.020559
    61  C    0.067234
    62  C   -0.071118
    63  C   -0.061602
    64  C   -0.050558
    65  H   -0.015572
    66  H    0.001601
    67  H   -0.006746
    68  H    0.014012
    69  H    0.018491
    70  H    0.018717
    71  H    0.012672
    72  H   -0.017056
    73  H    0.042601
    74  H    0.041824
    75  H    0.043373
    76  H   -0.005587
    77  H    0.056165
    78  H    0.010594
    79  H    0.042728
    80  H    0.015254
    81  H    0.053094
    82  H    0.045790
    83  H    0.051140
    84  H    0.036589
    85  H   -0.000522
    86  H    0.010728
    87  H   -0.012263
    88  H   -0.005416
    89  H   -0.026871
    90  H    0.016596
    91  H    0.016688
    92  H    0.038888
    93  H    0.041684
    94  H    0.101781
    95  H    0.001054
    96  H    0.014282
    97  H    0.025311
    98  H    0.032316
    99  H    0.036253
   100  H   -0.020085
   101  H    0.022354
   102  H    0.050666
   103  H    0.001759
   104  H    0.010891
   105  H   -0.012236
   106  H    0.012620
   107  H   -0.034395
   108  H   -0.022782
   109  H   -0.020563
   110  H   -0.061847
   111  H   -0.019565
   112  H    0.017140
   113  H   -0.004672
   114  H    0.014929
   115  H   -0.035663
   116  H   -0.005192
   117  H    0.001439
   118  H   -0.029523
   119  H   -0.014741
   120  H   -0.070245
   121  H    0.004694
   122  H    0.021087
   123  H    0.003415
   124  H   -0.000264
   125  H   -0.041484
   126  H   -0.027359
   127  H   -0.001518
   128  H    0.014779
   129  H   -0.020337
   130  H   -0.006919
   131  H    0.017172
   132  H    0.018625
   133  H    0.038346
   134  H    0.010349
   135  H    0.017586
   136  H    0.043794
   137  H    0.190932
   138  H    0.188489
 Sum of Mulliken charges =  -0.00000

 Dipole moment (field-independent basis, Debye):
    X=              2.6083    Y=              2.8077    Z=              1.4999  Tot=              4.1154
 Quadrupole moment (field-independent basis, Debye-Ang):
   XX=           -372.0313   YY=           -379.6350   ZZ=           -396.9997
   XY=            -20.7016   XZ=             11.7029   YZ=             -1.2984

 Normal termination of Gaussian 16 at Fri Aug 23 23:32:10 2019.
