 Gaussian 16, Revision A.03,
 Gaussian 16:  ES64L-G16RevA.03 25-Dec-2016

 --------------------------
 # td=(NStates=1) B3LYP/SVP
 --------------------------

 --
 TD
 --
 Symbolic Z-matrix:
 Charge =  0 Multiplicity = 1

                         Standard orientation:
 ---------------------------------------------------------------------
 Center     Atomic      Atomic             Coordinates (Angstroms)
 Number     Number       Type             X           Y           Z
 ---------------------------------------------------------------------
      1          6           0       -5.129497   -2.073111    0.500807
      2          6           0       -4.652141    2.595794    1.402555
      3          6           0       -9.223473    3.523072   -0.074444
      4          6           0       -9.784864   -1.247657   -0.951195
      5          7           0       -5.205365    0.332639    0.770777
      6          6           0       -4.500298   -0.879360    0.877145
      7          6           0       -3.080212   -0.807296    1.339940
      8          6           0       -3.072856    0.637628    1.914911
      9          6           0       -4.290891    1.307082    1.238031
     10          6           0       -3.098215    0.699071    3.373122
     11          6           0       -2.128248   -0.947760    0.119700
     12          6           0       -0.626673   -1.021758    0.642451
     13          6           0        0.349127   -1.090780   -0.521638
     14          8           0        0.058945   -1.355815   -1.633332
     15          8           0        1.628663   -0.919594   -0.067806
     16          7           0       -6.945816    2.659014    0.624395
     17          6           0       -5.846226    3.389065    1.104277
     18          6           0       -5.983398    4.689090    1.239619
     19          6           0       -7.272845    5.010998    0.677080
     20          6           0       -7.874212    3.733175    0.381410
     21          6           0       -4.914795    5.731547    1.555101
     22          6           0       -7.873997    6.337658    0.511447
     23          6           0       -8.647299    6.757759   -0.460700
     24          7           0       -9.213215    1.108424   -0.351192
     25          6           0       -9.858312    2.331905   -0.396820
     26          6           0      -11.246199    2.187090   -0.910625
     27          6           0      -11.342065    0.773527   -1.141927
     28          6           0      -10.013718    0.161041   -0.845096
     29          6           0      -12.214414    3.264537   -1.202052
     30          6           0      -12.467026    0.006041   -1.899176
     31          6           0      -12.343025   -0.060691   -3.408531
     32          7           0       -7.508321   -1.174283   -0.184698
     33          6           0       -8.657577   -1.953607   -0.637722
     34          6           0       -8.267024   -3.281438   -0.811659
     35          6           0       -6.945427   -3.379663   -0.340847
     36          6           0       -6.448473   -1.983781   -0.009402
     37          6           0       -9.093404   -4.433733   -1.356195
     38          6           0       -5.907444   -4.262702   -0.066800
     39          8           0       -5.868360   -5.460958   -0.144994
     40          6           0       -4.572643   -3.503554    0.445408
     41          6           0       -4.064277   -4.066826    1.679706
     42          8           0       -4.401496   -3.636240    2.762844
     43          8           0       -3.366207   -5.153745    1.556168
     44          6           0       -2.902157   -5.846239    2.795320
     45          6           0        2.653705   -1.187429   -1.077136
     46          6           0        4.001895   -0.927046   -0.509455
     47          6           0        4.883322    0.024693   -0.977667
     48          6           0        4.700543    0.789510   -2.292683
     49          6           0        6.210564    0.263030   -0.284174
     50          6           0        7.457798   -0.373663   -1.128487
     51          6           0        8.728137   -0.138645   -0.310511
     52          6           0       10.050369   -0.596726   -0.945585
     53          6           0       10.054201   -2.140651   -1.134660
     54          6           0       11.224297   -0.208370   -0.088784
     55          6           0       12.676900   -0.432016   -0.656828
     56          6           0       13.798469    0.176972    0.085839
     57          6           0       15.223944   -0.131035   -0.547248
     58          6           0       15.563432   -1.604697   -0.656444
     59          6           0       16.196829    0.608959    0.417071
     60          6           0       17.684414    0.629802   -0.094864
     61          6           0       18.598104    1.476254    0.729322
     62          6           0       20.073534    1.587297    0.120737
     63          6           0       20.192583    2.424901   -1.161201
     64          6           0       20.870750    2.279928    1.320671
     65          1           0       -3.825020    3.395904    1.895733
     66          1           0       -9.674161    4.547622   -0.315496
     67          1           0      -10.654730   -1.861778   -1.394998
     68          1           0       -2.873208   -1.660920    2.012444
     69          1           0       -2.058985    0.977988    1.743749
     70          1           0       -2.114908    0.177940    3.901530
     71          1           0       -3.059923    1.663578    3.812175
     72          1           0       -3.661683    0.008281    3.696459
     73          1           0       -2.402314   -1.931398   -0.162866
     74          1           0       -2.216333   -0.163276   -0.691039
     75          1           0       -0.360906   -0.176009    1.082628
     76          1           0       -0.339697   -1.932114    1.277781
     77          1           0       -4.051468    5.753812    0.989238
     78          1           0       -5.316569    6.726757    1.728697
     79          1           0       -4.808251    5.356487    2.570099
     80          1           0       -7.484131    7.011946    1.356733
     81          1           0       -9.217487    6.188415   -1.340838
     82          1           0       -9.165129    7.733860   -0.357735
     83          1           0      -12.253904    3.817109   -0.275932
     84          1           0      -11.659908    3.926011   -1.964267
     85          1           0      -13.193059    3.062557   -1.622818
     86          1           0      -12.539506   -1.056340   -1.365530
     87          1           0      -13.575092    0.435147   -1.852726
     88          1           0      -12.259925    0.783475   -3.793227
     89          1           0      -11.544999   -0.844359   -3.564526
     90          1           0      -13.121420   -0.701080   -4.005262
     91          1           0      -10.122552   -4.438250   -1.008697
     92          1           0       -9.140925   -4.524817   -2.526535
     93          1           0       -8.799282   -5.399062   -1.174872
     94          1           0       -3.976904   -3.639943   -0.408345
     95          1           0       -2.368605   -6.684573    2.359199
     96          1           0       -2.263616   -5.183581    3.247186
     97          1           0       -3.766933   -6.365013    3.151046
     98          1           0        2.403099   -2.179639   -1.382261
     99          1           0        2.378224   -0.495203   -1.906139
    100          1           0        4.394855   -1.601945    0.300604
    101          1           0        4.916760    1.847280   -2.006076
    102          1           0        5.379429    0.357164   -3.112757
    103          1           0        3.663887    0.883362   -2.510601
    104          1           0        6.527065    1.186044   -0.050537
    105          1           0        6.176791   -0.232137    0.731856
    106          1           0        7.286864   -1.332983   -1.624634
    107          1           0        7.645162    0.480030   -1.802536
    108          1           0        8.707518    0.985575   -0.315069
    109          1           0        8.618432   -0.552540    0.684755
    110          1           0       10.102102   -0.230778   -1.976418
    111          1           0        9.194199   -2.456992   -1.864226
    112          1           0       10.971070   -2.475193   -1.408290
    113          1           0        9.880790   -2.558816   -0.135961
    114          1           0       11.071394    0.928608    0.238021
    115          1           0       11.041215   -0.871028    0.789364
    116          1           0       12.862484   -1.596154   -0.371362
    117          1           0       12.463042   -0.281533   -1.720463
    118          1           0       13.817867    1.215883   -0.001746
    119          1           0       14.013962   -0.128190    1.037594
    120          1           0       15.399704    0.311070   -1.611600
    121          1           0       14.795230   -2.175826   -1.277297
    122          1           0       16.571405   -1.721008   -1.082951
    123          1           0       15.559413   -2.166919    0.426483
    124          1           0       15.813096    1.535070    0.548218
    125          1           0       16.266926    0.059883    1.499839
    126          1           0       18.053701   -0.348277   -0.369270
    127          1           0       17.586476    1.060998   -1.171148
    128          1           0       17.978741    2.421648    0.828719
    129          1           0       18.530955    1.049629    1.675916
    130          1           0       20.424436    0.520569   -0.028900
    131          1           0       19.709046    3.481112   -1.132926
    132          1           0       21.350676    2.570299   -1.173986
    133          1           0       19.727188    1.767207   -2.104254
    134          1           0       20.691744    1.734537    2.349898
    135          1           0       21.995211    1.874954    1.225838
    136          1           0       20.945734    3.368302    1.239458
    137          1           0       -7.047454    1.740714    0.562548
    138          1           0       -7.397808   -0.152024   -0.221399
 ---------------------------------------------------------------------

 SCF Done:  E(RB3LYP) =  -2733.08165686     A.U. after   17 cycles

 Excitation energies and oscillator strengths:

 Excited State   1:      Singlet-A      2.0150 eV  615.31 nm  f=0.1296  <S**2>=0.000
     235 -> 237       -0.37102
     235 -> 238       -0.20161
     236 -> 237        0.52157
     236 -> 238       -0.20873
 This state for optimization and/or second-order correction.
 Total Energy, E(TD-HF/TD-DFT) =  -2733.00760701
 Copying the excited state density for this state as the 1-particle RhoCI density.

 The electronic state is 1-A.
 Alpha  occ. eigenvalues --  -19.17093 -19.16202 -19.12170 -19.11489 -19.10218
 Alpha  occ. eigenvalues --  -14.37189 -14.35766 -14.32462 -14.29792 -10.30383
 Alpha  occ. eigenvalues --  -10.30120 -10.27042 -10.24479 -10.24059 -10.24021
 Alpha  occ. eigenvalues --  -10.23946 -10.23726 -10.22956 -10.22662 -10.22642
 Alpha  occ. eigenvalues --  -10.22437 -10.21789 -10.21551 -10.21498 -10.20953
 Alpha  occ. eigenvalues --  -10.20950 -10.20814 -10.20759 -10.20660 -10.20652
 Alpha  occ. eigenvalues --  -10.20493 -10.20425 -10.20319 -10.20154 -10.19871
 Alpha  occ. eigenvalues --  -10.19865 -10.19727 -10.19726 -10.19568 -10.19563
 Alpha  occ. eigenvalues --  -10.19525 -10.19522 -10.19403 -10.19392 -10.19365
 Alpha  occ. eigenvalues --  -10.19361 -10.19335 -10.19309 -10.19237 -10.19211
 Alpha  occ. eigenvalues --  -10.19076 -10.18963 -10.18945 -10.18858 -10.18752
 Alpha  occ. eigenvalues --  -10.18625 -10.18450 -10.18251 -10.17685 -10.17496
 Alpha  occ. eigenvalues --  -10.17375 -10.17336 -10.17149 -10.16909  -1.09570
 Alpha  occ. eigenvalues --   -1.08823  -1.03054  -1.00769  -0.98973  -0.97171
 Alpha  occ. eigenvalues --   -0.96593  -0.92699  -0.92134  -0.84014  -0.82588
 Alpha  occ. eigenvalues --   -0.82512  -0.81728  -0.81395  -0.81034  -0.80652
 Alpha  occ. eigenvalues --   -0.79965  -0.79246  -0.78779  -0.78180  -0.77825
 Alpha  occ. eigenvalues --   -0.76926  -0.76330  -0.76071  -0.74931  -0.74611
 Alpha  occ. eigenvalues --   -0.74083  -0.73096  -0.72389  -0.71787  -0.71616
 Alpha  occ. eigenvalues --   -0.70689  -0.69679  -0.69220  -0.68163  -0.67919
 Alpha  occ. eigenvalues --   -0.67362  -0.66714  -0.66317  -0.65751  -0.64895
 Alpha  occ. eigenvalues --   -0.64244  -0.62950  -0.62251  -0.61535  -0.61207
 Alpha  occ. eigenvalues --   -0.60506  -0.58554  -0.58188  -0.57892  -0.56750
 Alpha  occ. eigenvalues --   -0.56533  -0.56155  -0.55452  -0.55404  -0.55359
 Alpha  occ. eigenvalues --   -0.54725  -0.54583  -0.53919  -0.53443  -0.52790
 Alpha  occ. eigenvalues --   -0.52505  -0.51890  -0.51635  -0.51308  -0.50538
 Alpha  occ. eigenvalues --   -0.50458  -0.49656  -0.49082  -0.48969  -0.48402
 Alpha  occ. eigenvalues --   -0.48236  -0.47884  -0.47500  -0.47217  -0.46771
 Alpha  occ. eigenvalues --   -0.46457  -0.46287  -0.46180  -0.45999  -0.45673
 Alpha  occ. eigenvalues --   -0.45495  -0.45422  -0.45288  -0.45199  -0.44937
 Alpha  occ. eigenvalues --   -0.44594  -0.44277  -0.44146  -0.43804  -0.43695
 Alpha  occ. eigenvalues --   -0.43447  -0.43423  -0.43158  -0.43121  -0.43037
 Alpha  occ. eigenvalues --   -0.42869  -0.42564  -0.42187  -0.41791  -0.41564
 Alpha  occ. eigenvalues --   -0.41419  -0.41208  -0.40934  -0.40740  -0.40556
 Alpha  occ. eigenvalues --   -0.40499  -0.40105  -0.39936  -0.39817  -0.39648
 Alpha  occ. eigenvalues --   -0.39379  -0.39068  -0.38532  -0.38484  -0.38343
 Alpha  occ. eigenvalues --   -0.38267  -0.38107  -0.38021  -0.37953  -0.37473
 Alpha  occ. eigenvalues --   -0.37428  -0.37196  -0.37033  -0.36707  -0.36376
 Alpha  occ. eigenvalues --   -0.36284  -0.36025  -0.35919  -0.35708  -0.35602
 Alpha  occ. eigenvalues --   -0.35086  -0.35036  -0.34658  -0.34506  -0.34350
 Alpha  occ. eigenvalues --   -0.34296  -0.34102  -0.33896  -0.33685  -0.33418
 Alpha  occ. eigenvalues --   -0.32741  -0.32641  -0.32592  -0.32367  -0.32174
 Alpha  occ. eigenvalues --   -0.31896  -0.31696  -0.31635  -0.31590  -0.31213
 Alpha  occ. eigenvalues --   -0.30821  -0.30711  -0.30360  -0.30077  -0.29969
 Alpha  occ. eigenvalues --   -0.29804  -0.29430  -0.28012  -0.27862  -0.27775
 Alpha  occ. eigenvalues --   -0.27455  -0.26607  -0.26472  -0.26395  -0.25614
 Alpha  occ. eigenvalues --   -0.24433  -0.24325  -0.24239  -0.21809  -0.19656
 Alpha  occ. eigenvalues --   -0.19181
 Alpha virt. eigenvalues --   -0.10894  -0.07717  -0.03942  -0.01580  -0.01142
 Alpha virt. eigenvalues --    0.00303   0.00836   0.01551   0.02178   0.03885
 Alpha virt. eigenvalues --    0.04065   0.04090   0.04457   0.04803   0.04902

 Mulliken charges:
               1
     1  C   -0.073868
     2  C   -0.111255
     3  C   -0.078604
     4  C   -0.107737
     5  N   -0.257088
     6  C   -0.009808
     7  C   -0.078292
     8  C    0.015295
     9  C    0.087890
    10  C    0.160847
    11  C    0.083482
    12  C    0.094128
    13  C    0.128693
    14  O   -0.207396
    15  O   -0.353143
    16  N   -0.032086
    17  C    0.076745
    18  C   -0.147497
    19  C    0.006385
    20  C    0.058672
    21  C    0.149083
    22  C   -0.030503
    23  C   -0.070180
    24  N   -0.217035
    25  C    0.084718
    26  C   -0.132314
    27  C   -0.096085
    28  C    0.059610
    29  C    0.122458
    30  C   -0.046144
    31  C    0.091106
    32  N   -0.082265
    33  C    0.132407
    34  C   -0.091911
    35  C    0.040005
    36  C    0.071657
    37  C    0.114185
    38  C   -0.041135
    39  O   -0.159177
    40  C    0.084687
    41  C    0.169297
    42  O   -0.254170
    43  O   -0.299223
    44  C    0.263816
    45  C    0.294726
    46  C   -0.059703
    47  C   -0.169664
    48  C    0.096336
    49  C    0.097401
    50  C   -0.008583
    51  C    0.019842
    52  C   -0.060421
    53  C    0.046220
    54  C   -0.011380
    55  C    0.024635
    56  C    0.157448
    57  C   -0.153169
    58  C   -0.011515
    59  C    0.036504
    60  C   -0.011811
    61  C    0.091923
    62  C   -0.095719
    63  C   -0.037292
    64  C   -0.019310
    65  H   -0.000498
    66  H   -0.016443
    67  H    0.007183
    68  H    0.007192
    69  H   -0.028378
    70  H   -0.016516
    71  H    0.008589
    72  H   -0.048922
    73  H   -0.009474
    74  H    0.034947
    75  H   -0.023039
    76  H    0.044227
    77  H    0.033302
    78  H   -0.004992
    79  H    0.021633
    80  H    0.030471
    81  H    0.061630
    82  H    0.026640
    83  H    0.021364
    84  H    0.025400
    85  H    0.016522
    86  H    0.021841
    87  H    0.011623
    88  H   -0.036749
    89  H   -0.003543
    90  H    0.007775
    91  H    0.016177
    92  H    0.037664
    93  H   -0.002115
    94  H    0.030219
    95  H    0.015086
    96  H    0.029090
    97  H    0.039480
    98  H   -0.000160
    99  H    0.011541
   100  H    0.000374
   101  H    0.007176
   102  H    0.063901
   103  H   -0.004621
   104  H   -0.040395
   105  H   -0.005920
   106  H    0.019436
   107  H   -0.002379
   108  H   -0.006057
   109  H   -0.009885
   110  H   -0.025427
   111  H    0.022862
   112  H   -0.017085
   113  H   -0.010410
   114  H    0.001369
   115  H   -0.010443
   116  H    0.018225
   117  H    0.006008
   118  H   -0.027880
   119  H   -0.026770
   120  H    0.002957
   121  H    0.023294
   122  H    0.016143
   123  H    0.009862
   124  H   -0.037374
   125  H    0.006754
   126  H   -0.018997
   127  H   -0.023099
   128  H   -0.011326
   129  H   -0.034115
   130  H    0.010636
   131  H    0.034613
   132  H    0.029201
   133  H    0.044005
   134  H    0.027210
   135  H    0.000053
   136  H    0.029713
   137  H    0.061370
   138  H    0.163538
 Sum of Mulliken charges =  -0.00000

 Dipole moment (field-independent basis, Debye):
    X=              3.4172    Y=              3.2940    Z=             -0.3160  Tot=              4.7569
 Quadrupole moment (field-independent basis, Debye-Ang):
   XX=           -350.9125   YY=           -367.9476   ZZ=           -395.5537
   XY=            -21.6253   XZ=             16.5661   YZ=             -2.5034

 Normal termination of Gaussian 16 at Tue Aug 27 15:49:58 2019.
