 Gaussian 16, Revision A.03,
 Gaussian 16:  ES64L-G16RevA.03 25-Dec-2016

 --------------------------
 # td=(NStates=1) B3LYP/SVP
 --------------------------

 --
 TD
 --
 Symbolic Z-matrix:
 Charge =  0 Multiplicity = 1

                         Standard orientation:
 ---------------------------------------------------------------------
 Center     Atomic      Atomic             Coordinates (Angstroms)
 Number     Number       Type             X           Y           Z
 ---------------------------------------------------------------------
      1          6           0       -5.012138   -1.968253    0.443273
      2          6           0       -4.673427    2.720039    1.466714
      3          6           0       -9.244166    3.239162   -0.185005
      4          6           0       -9.848385   -1.534645   -0.896358
      5          7           0       -5.196677    0.371122    0.944479
      6          6           0       -4.444737   -0.779190    0.920330
      7          6           0       -3.104894   -0.614852    1.262117
      8          6           0       -3.147197    0.813215    1.877089
      9          6           0       -4.445941    1.363849    1.375253
     10          6           0       -3.045820    0.821430    3.415254
     11          6           0       -2.017608   -0.749529    0.105920
     12          6           0       -0.587224   -0.550370    0.428671
     13          6           0        0.366702   -0.881447   -0.626415
     14          8           0        0.163316   -1.722462   -1.520348
     15          8           0        1.579110   -0.258135   -0.310051
     16          7           0       -6.944274    2.734957    0.416208
     17          6           0       -5.894354    3.364357    0.953566
     18          6           0       -6.207499    4.737564    1.078564
     19          6           0       -7.486688    4.962760    0.533160
     20          6           0       -7.996263    3.536176    0.159658
     21          6           0       -5.280300    5.781817    1.547608
     22          6           0       -8.171078    6.179911    0.295122
     23          6           0       -9.080541    6.540970   -0.695195
     24          7           0       -9.185532    0.814212   -0.593983
     25          6           0       -9.819226    1.973578   -0.550983
     26          6           0      -11.204623    1.764315   -0.918203
     27          6           0      -11.447545    0.453520   -1.049620
     28          6           0      -10.125278   -0.168854   -0.946006
     29          6           0      -12.317284    2.859498   -1.018725
     30          6           0      -12.614721   -0.239368   -1.533290
     31          6           0      -12.638052   -0.664138   -3.100516
     32          7           0       -7.443881   -1.294102   -0.186920
     33          6           0       -8.601183   -2.149127   -0.673571
     34          6           0       -8.129620   -3.489701   -0.654284
     35          6           0       -6.782217   -3.481316   -0.280326
     36          6           0       -6.388044   -2.104876   -0.055358
     37          6           0       -8.894815   -4.645903   -1.224589
     38          6           0       -5.635131   -4.284427   -0.018730
     39          8           0       -5.531463   -5.495157   -0.145769
     40          6           0       -4.505580   -3.341476    0.423828
     41          6           0       -3.981229   -3.868782    1.783483
     42          8           0       -4.185864   -3.386980    2.798085
     43          8           0       -3.089919   -4.893358    1.514195
     44          6           0       -2.378663   -5.398031    2.663044
     45          6           0        2.668633   -0.734479   -1.255809
     46          6           0        3.934779   -0.277065   -0.619688
     47          6           0        4.837464    0.569021   -1.092974
     48          6           0        4.782727    1.383894   -2.371045
     49          6           0        6.201927    0.729706   -0.246780
     50          6           0        7.408915   -0.107734   -0.948024
     51          6           0        8.737983   -0.006559   -0.225950
     52          6           0       10.021196   -0.597928   -0.738518
     53          6           0        9.821089   -2.136635   -1.001630
     54          6           0       11.257708   -0.198403    0.079787
     55          6           0       12.609968   -0.577822   -0.566316
     56          6           0       13.845952   -0.078542    0.324530
     57          6           0       15.142939   -0.152520   -0.350809
     58          6           0       15.482595   -1.646723   -0.705514
     59          6           0       16.238808    0.506283    0.429357
     60          6           0       17.639711    0.399512   -0.123650
     61          6           0       18.562717    1.392812    0.538297
     62          6           0       20.082007    1.311643    0.233484
     63          6           0       20.391788    1.754747   -1.230725
     64          6           0       21.017076    2.151087    1.067204
     65          1           0       -4.107763    3.281205    2.165574
     66          1           0      -10.077754    4.033066   -0.268110
     67          1           0      -10.557704   -2.278655   -1.168492
     68          1           0       -2.756072   -1.154011    2.106426
     69          1           0       -2.443904    1.648028    1.583540
     70          1           0       -2.091392    0.439756    3.772294
     71          1           0       -3.060997    1.952321    3.877619
     72          1           0       -3.604477    0.087292    3.814825
     73          1           0       -2.206837   -1.738035   -0.425071
     74          1           0       -2.233138   -0.068906   -0.624610
     75          1           0       -0.399071    0.362755    1.024442
     76          1           0       -0.268910   -1.175594    1.258317
     77          1           0       -4.315643    5.744496    0.714445
     78          1           0       -5.631159    6.828057    1.499829
     79          1           0       -5.009475    5.609463    2.643257
     80          1           0       -7.855905    6.879914    1.040630
     81          1           0       -9.362931    6.004033   -1.453935
     82          1           0       -9.465544    7.523561   -0.714679
     83          1           0      -12.326243    3.604197   -0.065869
     84          1           0      -11.911531    3.631025   -1.746383
     85          1           0      -13.385026    2.488237   -1.293517
     86          1           0      -12.847333   -1.192131   -0.990727
     87          1           0      -13.467611    0.281805   -1.093491
     88          1           0      -12.754741    0.298979   -3.754997
     89          1           0      -11.826537   -1.275620   -3.295644
     90          1           0      -13.773433   -1.075521   -3.285814
     91          1           0       -9.861228   -4.966967   -0.499718
     92          1           0       -9.508489   -4.239410   -2.041466
     93          1           0       -8.337076   -5.718069   -1.274082
     94          1           0       -3.617149   -3.547261   -0.302286
     95          1           0       -1.798299   -6.334621    2.235024
     96          1           0       -1.578496   -4.681321    3.340131
     97          1           0       -3.152816   -5.932211    3.247777
     98          1           0        2.707999   -1.868406   -1.185411
     99          1           0        2.428360   -0.329632   -2.230459
    100          1           0        4.053257   -0.777289    0.336228
    101          1           0        5.078440    2.358967   -2.120007
    102          1           0        5.463289    1.064146   -3.177409
    103          1           0        3.798824    1.249828   -2.723537
    104          1           0        6.590401    1.589868    0.123458
    105          1           0        6.188480    0.301905    0.837596
    106          1           0        6.889150   -0.985234   -1.019962
    107          1           0        7.690619    0.374698   -1.865727
    108          1           0        8.818430    1.001954    0.056400
    109          1           0        8.529986   -0.527697    0.845862
    110          1           0        9.990928    0.055650   -1.862936
    111          1           0        8.843171   -2.523654   -1.616833
    112          1           0       10.733596   -2.424730   -1.512502
    113          1           0        9.960616   -2.374443    0.060655
    114          1           0       11.287749    1.003604    0.157260
    115          1           0       11.287565   -0.674482    0.988296
    116          1           0       12.611716   -1.758564   -0.688237
    117          1           0       12.627595   -0.114476   -1.568813
    118          1           0       13.463277    0.980993    0.533963
    119          1           0       13.800650   -0.559285    1.199994
    120          1           0       14.894760    0.478317   -1.242798
    121          1           0       14.544833   -2.043541   -1.087596
    122          1           0       16.334485   -1.801202   -1.589787
    123          1           0       15.654526   -2.261202    0.281529
    124          1           0       16.085896    1.578479    0.570209
    125          1           0       16.232118    0.320632    1.385780
    126          1           0       17.986964   -0.744268   -0.070384
    127          1           0       17.391810    0.461424   -1.270976
    128          1           0       18.177427    2.481821    0.082445
    129          1           0       18.518493    1.250168    1.733660
    130          1           0       20.403853    0.324258    0.190854
    131          1           0       20.174005    2.708421   -1.372363
    132          1           0       21.574285    1.734481   -1.296812
    133          1           0       20.057705    1.051376   -1.997079
    134          1           0       20.688823    1.998723    2.178520
    135          1           0       22.123339    1.757835    0.936794
    136          1           0       20.867659    3.393746    0.911771
    137          1           0       -6.968729    1.631473    0.565438
    138          1           0       -7.487825   -0.332149   -0.253948
 ---------------------------------------------------------------------

 SCF Done:  E(RB3LYP) =  -2733.05292813     A.U. after   16 cycles

 Excitation energies and oscillator strengths:

 Excited State   1:      Singlet-A      2.0539 eV  603.65 nm  f=0.1527  <S**2>=0.000
     235 -> 237       -0.24522
     235 -> 238        0.28520
     236 -> 237        0.57588
     236 -> 238        0.14684
 This state for optimization and/or second-order correction.
 Total Energy, E(TD-HF/TD-DFT) =  -2732.97744880
 Copying the excited state density for this state as the 1-particle RhoCI density.

 The electronic state is 1-A.
 Alpha  occ. eigenvalues --  -19.17676 -19.16914 -19.13336 -19.12967 -19.10553
 Alpha  occ. eigenvalues --  -14.38040 -14.36205 -14.31914 -14.29809 -10.31878
 Alpha  occ. eigenvalues --  -10.31034 -10.26315 -10.26005 -10.25134 -10.24579
 Alpha  occ. eigenvalues --  -10.24172 -10.23575 -10.23425 -10.22676 -10.22115
 Alpha  occ. eigenvalues --  -10.22058 -10.21814 -10.21608 -10.21601 -10.21300
 Alpha  occ. eigenvalues --  -10.21289 -10.21144 -10.21027 -10.20999 -10.20950
 Alpha  occ. eigenvalues --  -10.20865 -10.20786 -10.20666 -10.20526 -10.20391
 Alpha  occ. eigenvalues --  -10.20383 -10.20333 -10.19971 -10.19856 -10.19750
 Alpha  occ. eigenvalues --  -10.19689 -10.19684 -10.19506 -10.19374 -10.19337
 Alpha  occ. eigenvalues --  -10.19309 -10.19296 -10.19192 -10.19180 -10.19154
 Alpha  occ. eigenvalues --  -10.19135 -10.19082 -10.18841 -10.18763 -10.18736
 Alpha  occ. eigenvalues --  -10.18312 -10.18293 -10.18219 -10.18178 -10.17794
 Alpha  occ. eigenvalues --  -10.17761 -10.17484 -10.16812 -10.15911  -1.10458
 Alpha  occ. eigenvalues --   -1.06626  -1.02271  -1.01033  -0.99575  -0.99136
 Alpha  occ. eigenvalues --   -0.96395  -0.95597  -0.93583  -0.84479  -0.82861
 Alpha  occ. eigenvalues --   -0.82341  -0.82242  -0.81805  -0.81488  -0.81006
 Alpha  occ. eigenvalues --   -0.80584  -0.80025  -0.79537  -0.78835  -0.78191
 Alpha  occ. eigenvalues --   -0.77168  -0.76905  -0.75751  -0.75200  -0.74010
 Alpha  occ. eigenvalues --   -0.73416  -0.72590  -0.72368  -0.71696  -0.70379
 Alpha  occ. eigenvalues --   -0.70085  -0.68803  -0.68291  -0.67937  -0.66900
 Alpha  occ. eigenvalues --   -0.66648  -0.66518  -0.66358  -0.66057  -0.65832
 Alpha  occ. eigenvalues --   -0.64671  -0.63973  -0.63427  -0.62518  -0.61791
 Alpha  occ. eigenvalues --   -0.61398  -0.59372  -0.59068  -0.58332  -0.57806
 Alpha  occ. eigenvalues --   -0.57196  -0.56415  -0.55927  -0.55558  -0.54937
 Alpha  occ. eigenvalues --   -0.54930  -0.54569  -0.54222  -0.53663  -0.53567
 Alpha  occ. eigenvalues --   -0.52929  -0.52431  -0.51509  -0.50876  -0.50301
 Alpha  occ. eigenvalues --   -0.49801  -0.49589  -0.49439  -0.48521  -0.48441
 Alpha  occ. eigenvalues --   -0.48063  -0.47827  -0.47516  -0.47418  -0.47170
 Alpha  occ. eigenvalues --   -0.46959  -0.46497  -0.46443  -0.46186  -0.46009
 Alpha  occ. eigenvalues --   -0.45679  -0.45455  -0.45091  -0.44974  -0.44645
 Alpha  occ. eigenvalues --   -0.44477  -0.44254  -0.43971  -0.43820  -0.43606
 Alpha  occ. eigenvalues --   -0.43217  -0.43074  -0.42917  -0.42747  -0.42462
 Alpha  occ. eigenvalues --   -0.42144  -0.42111  -0.42032  -0.41694  -0.41579
 Alpha  occ. eigenvalues --   -0.41456  -0.41234  -0.40909  -0.40892  -0.40537
 Alpha  occ. eigenvalues --   -0.40229  -0.40002  -0.39903  -0.39576  -0.39497
 Alpha  occ. eigenvalues --   -0.39311  -0.39190  -0.38878  -0.38639  -0.38538
 Alpha  occ. eigenvalues --   -0.38183  -0.37946  -0.37903  -0.37627  -0.37378
 Alpha  occ. eigenvalues --   -0.37305  -0.37042  -0.36997  -0.36813  -0.36624
 Alpha  occ. eigenvalues --   -0.36363  -0.36301  -0.36152  -0.36024  -0.35622
 Alpha  occ. eigenvalues --   -0.35486  -0.35290  -0.34889  -0.34673  -0.34602
 Alpha  occ. eigenvalues --   -0.34368  -0.34274  -0.34257  -0.33885  -0.33789
 Alpha  occ. eigenvalues --   -0.33512  -0.33337  -0.33128  -0.32719  -0.32433
 Alpha  occ. eigenvalues --   -0.32180  -0.31979  -0.31841  -0.31387  -0.31313
 Alpha  occ. eigenvalues --   -0.31174  -0.30947  -0.30695  -0.30390  -0.30275
 Alpha  occ. eigenvalues --   -0.30000  -0.29606  -0.28648  -0.28572  -0.28244
 Alpha  occ. eigenvalues --   -0.28010  -0.27007  -0.26116  -0.25818  -0.25607
 Alpha  occ. eigenvalues --   -0.25512  -0.24083  -0.23988  -0.22690  -0.19956
 Alpha  occ. eigenvalues --   -0.19135
 Alpha virt. eigenvalues --   -0.10445  -0.08156  -0.04480  -0.02361  -0.01144
 Alpha virt. eigenvalues --    0.00072   0.00588   0.01507   0.01700   0.03573
 Alpha virt. eigenvalues --    0.03631   0.03813   0.04143   0.04163   0.04684

 Mulliken charges:
               1
     1  C    0.081129
     2  C   -0.086241
     3  C   -0.115758
     4  C   -0.015261
     5  N   -0.174469
     6  C   -0.053626
     7  C    0.059188
     8  C   -0.133484
     9  C    0.058685
    10  C    0.096781
    11  C    0.110488
    12  C    0.076473
    13  C    0.206491
    14  O   -0.258775
    15  O   -0.369351
    16  N   -0.057517
    17  C    0.056671
    18  C   -0.118117
    19  C    0.033170
    20  C    0.146855
    21  C    0.022557
    22  C   -0.069561
    23  C    0.058890
    24  N   -0.217247
    25  C   -0.009579
    26  C   -0.106277
    27  C   -0.075761
    28  C    0.059900
    29  C    0.024418
    30  C    0.047943
    31  C   -0.003286
    32  N   -0.044376
    33  C    0.041660
    34  C   -0.084405
    35  C    0.025189
    36  C    0.029698
    37  C    0.010649
    38  C    0.020398
    39  O   -0.183538
    40  C   -0.093459
    41  C    0.186121
    42  O   -0.136287
    43  O   -0.323483
    44  C    0.110444
    45  C    0.275403
    46  C   -0.074295
    47  C   -0.132051
    48  C    0.155807
    49  C    0.028387
    50  C    0.078163
    51  C    0.022828
    52  C   -0.110939
    53  C    0.022728
    54  C    0.035664
    55  C   -0.049358
    56  C    0.043941
    57  C   -0.006869
    58  C   -0.013331
    59  C    0.132095
    60  C   -0.031808
    61  C   -0.004816
    62  C   -0.046393
    63  C    0.047603
    64  C   -0.045876
    65  H   -0.028714
    66  H   -0.001386
    67  H   -0.039104
    68  H   -0.025745
    69  H   -0.001091
    70  H   -0.008585
    71  H    0.033405
    72  H   -0.011363
    73  H    0.025696
    74  H   -0.026306
    75  H    0.010372
    76  H    0.013060
    77  H    0.058819
    78  H    0.018501
    79  H    0.046274
    80  H   -0.007546
    81  H   -0.024556
    82  H    0.017151
    83  H    0.031468
    84  H    0.015900
    85  H    0.044678
    86  H   -0.008819
    87  H   -0.016806
    88  H    0.029655
    89  H    0.021075
    90  H    0.028414
    91  H    0.026438
    92  H    0.028579
    93  H    0.084818
    94  H    0.080779
    95  H    0.042569
    96  H    0.062941
    97  H    0.033393
    98  H    0.042271
    99  H    0.022477
   100  H   -0.007676
   101  H    0.010687
   102  H    0.026960
   103  H   -0.009581
   104  H   -0.043967
   105  H   -0.013686
   106  H   -0.014344
   107  H   -0.012677
   108  H   -0.030163
   109  H   -0.031747
   110  H   -0.015336
   111  H    0.058500
   112  H    0.014078
   113  H    0.004685
   114  H    0.019136
   115  H   -0.019460
   116  H    0.027107
   117  H   -0.000614
   118  H   -0.005909
   119  H   -0.048399
   120  H   -0.013152
   121  H   -0.004855
   122  H    0.042432
   123  H    0.021788
   124  H   -0.042572
   125  H   -0.081438
   126  H    0.009168
   127  H    0.006692
   128  H    0.022724
   129  H    0.021178
   130  H   -0.026517
   131  H   -0.032847
   132  H   -0.005400
   133  H    0.012187
   134  H    0.007994
   135  H    0.040277
   136  H    0.030745
   137  H    0.206360
   138  H    0.098103
 Sum of Mulliken charges =  -0.00000

 Dipole moment (field-independent basis, Debye):
    X=              1.7364    Y=              5.5432    Z=              1.3243  Tot=              5.9578
 Quadrupole moment (field-independent basis, Debye-Ang):
   XX=           -360.3902   YY=           -386.3443   ZZ=           -393.1605
   XY=            -33.4123   XZ=             10.4376   YZ=             -2.8964

 Normal termination of Gaussian 16 at Fri Aug 30 08:44:41 2019.
