 Gaussian 16, Revision A.03,
 Gaussian 16:  ES64L-G16RevA.03 25-Dec-2016

 --------------------------
 # td=(NStates=1) B3LYP/SVP
 --------------------------

 --
 TD
 --
 Symbolic Z-matrix:
 Charge =  0 Multiplicity = 1

                         Standard orientation:
 ---------------------------------------------------------------------
 Center     Atomic      Atomic             Coordinates (Angstroms)
 Number     Number       Type             X           Y           Z
 ---------------------------------------------------------------------
      1          6           0       -5.054367   -1.998081    0.404665
      2          6           0       -4.649688    2.730722    1.550353
      3          6           0       -9.180396    3.477574   -0.175604
      4          6           0       -9.700953   -1.312803   -1.089541
      5          7           0       -5.024873    0.489505    0.812281
      6          6           0       -4.525124   -0.752506    0.782056
      7          6           0       -2.990242   -0.626726    1.334589
      8          6           0       -3.052280    0.773979    1.917741
      9          6           0       -4.300670    1.384769    1.403060
     10          6           0       -3.047823    0.772024    3.359877
     11          6           0       -2.002844   -0.823977    0.085109
     12          6           0       -0.567133   -0.792858    0.458583
     13          6           0        0.328567   -1.281363   -0.631015
     14          8           0        0.002767   -1.870664   -1.597761
     15          8           0        1.658927   -0.931513   -0.370610
     16          7           0       -6.905871    2.760552    0.472547
     17          6           0       -5.803012    3.373392    1.239839
     18          6           0       -5.997406    4.812014    0.995950
     19          6           0       -7.281961    5.052739    0.602729
     20          6           0       -7.905405    3.665287    0.320014
     21          6           0       -5.011558    5.827898    1.513857
     22          6           0       -7.889396    6.316749    0.387672
     23          6           0       -8.836399    6.711232   -0.466206
     24          7           0       -9.104002    0.968696   -0.552635
     25          6           0       -9.779846    2.223090   -0.518880
     26          6           0      -11.122461    2.047342   -1.036366
     27          6           0      -11.267026    0.674402   -1.128805
     28          6           0       -9.995944    0.084736   -0.988937
     29          6           0      -12.040433    3.182146   -1.222227
     30          6           0      -12.475575   -0.019944   -1.717548
     31          6           0      -12.575836   -0.244004   -3.267196
     32          7           0       -7.461086   -1.190278   -0.247560
     33          6           0       -8.522038   -1.916853   -0.799371
     34          6           0       -8.176199   -3.381387   -0.746287
     35          6           0       -6.810268   -3.405985   -0.260606
     36          6           0       -6.492658   -2.055000    0.042141
     37          6           0       -9.017207   -4.645825   -0.942446
     38          6           0       -5.710924   -4.268471    0.120291
     39          8           0       -5.681525   -5.494069    0.103365
     40          6           0       -4.462955   -3.328401    0.537113
     41          6           0       -3.999718   -3.760391    1.893325
     42          8           0       -4.020236   -3.172959    3.002526
     43          8           0       -3.328986   -5.046923    1.770991
     44          6           0       -2.739722   -5.500648    2.908366
     45          6           0        2.578019   -1.338749   -1.320335
     46          6           0        3.993078   -1.147386   -0.693918
     47          6           0        4.894486   -0.123309   -1.106283
     48          6           0        4.680165    0.634622   -2.442431
     49          6           0        6.220383    0.074450   -0.352345
     50          6           0        7.378022   -0.569932   -1.030909
     51          6           0        8.629018   -0.292954   -0.188679
     52          6           0        9.969392   -0.701294   -0.959995
     53          6           0        9.924144   -2.299094   -1.420705
     54          6           0       11.195948   -0.481143    0.044283
     55          6           0       12.506933   -0.611873   -0.613463
     56          6           0       13.717977   -0.068406    0.291620
     57          6           0       15.095316   -0.096858   -0.417618
     58          6           0       15.563443   -1.518289   -0.678779
     59          6           0       16.098455    0.654934    0.373327
     60          6           0       17.496503    0.914393   -0.117022
     61          6           0       18.363633    1.743471    0.718549
     62          6           0       19.867323    1.809830    0.308604
     63          6           0       20.092509    2.356144   -1.175620
     64          6           0       20.643168    2.598616    1.241284
     65          1           0       -3.785918    3.322036    1.902414
     66          1           0       -9.735237    4.437956   -0.305257
     67          1           0      -10.370711   -2.030230   -1.514898
     68          1           0       -3.031486   -1.504431    2.122103
     69          1           0       -2.065353    1.431466    1.619864
     70          1           0       -2.144238    0.427900    3.738586
     71          1           0       -2.985094    1.813720    3.807139
     72          1           0       -3.854905    0.356883    3.804918
     73          1           0       -2.370734   -1.684907   -0.306386
     74          1           0       -2.263306    0.011401   -0.649306
     75          1           0       -0.252327    0.189047    0.633473
     76          1           0       -0.475316   -1.634695    1.275979
     77          1           0       -4.075461    5.659049    0.922282
     78          1           0       -5.299092    6.940064    1.565957
     79          1           0       -5.026881    5.355194    2.438818
     80          1           0       -7.542306    7.144402    0.896897
     81          1           0       -9.210562    6.279861   -1.264185
     82          1           0       -9.427283    7.737420   -0.568500
     83          1           0      -12.544678    3.659662   -0.210641
     84          1           0      -11.602408    4.069618   -1.726574
     85          1           0      -12.879984    2.775978   -1.930161
     86          1           0      -12.663914   -1.116350   -1.566324
     87          1           0      -13.507325    0.551946   -1.431885
     88          1           0      -12.557301    0.517424   -3.888697
     89          1           0      -11.642310   -0.883980   -3.679839
     90          1           0      -13.457224   -0.793012   -3.564767
     91          1           0       -9.748029   -4.770177   -0.216107
     92          1           0       -9.602777   -4.512767   -1.840645
     93          1           0       -8.222197   -5.467189   -1.234109
     94          1           0       -3.714975   -3.775429   -0.155105
     95          1           0       -2.022132   -6.471064    2.732159
     96          1           0       -2.313888   -4.627170    3.389573
     97          1           0       -3.523656   -5.884903    3.778496
     98          1           0        2.483419   -2.536780   -1.421130
     99          1           0        2.323823   -0.942871   -2.328950
    100          1           0        4.046998   -1.742266    0.186186
    101          1           0        4.562698    1.744583   -2.021095
    102          1           0        5.796579    0.305794   -3.142030
    103          1           0        3.697897    0.134648   -2.965366
    104          1           0        6.368044    1.196619   -0.235641
    105          1           0        6.263382   -0.495670    0.764669
    106          1           0        7.043576   -1.539873   -1.164203
    107          1           0        7.574685   -0.170013   -2.080326
    108          1           0        8.664180    0.769037   -0.009882
    109          1           0        8.623997   -0.783776    0.639290
    110          1           0       10.229846   -0.174104   -1.815354
    111          1           0        9.024075   -2.306859   -2.023971
    112          1           0       10.822876   -2.434598   -1.907468
    113          1           0        9.855855   -2.680047   -0.398806
    114          1           0       11.018477    0.401273    0.373528
    115          1           0       11.182482   -1.353575    0.721761
    116          1           0       12.890031   -1.522277   -0.962026
    117          1           0       12.629707    0.028485   -1.325452
    118          1           0       13.660366    1.039801    0.389769
    119          1           0       13.793698   -0.521417    1.235845
    120          1           0       15.232204    0.398333   -1.307773
    121          1           0       14.883600   -2.181699   -1.297506
    122          1           0       16.504976   -1.773459   -1.143070
    123          1           0       15.532193   -2.131718    0.261060
    124          1           0       15.885814    1.844753    0.601904
    125          1           0       16.297251    0.141435    1.269586
    126          1           0       17.842084   -0.252998   -0.357363
    127          1           0       17.420032    1.478791   -1.097074
    128          1           0       18.043696    2.834175    1.029857
    129          1           0       18.504603    1.065616    1.749424
    130          1           0       20.170780    0.796476    0.225210
    131          1           0       19.802073    3.355281   -1.298729
    132          1           0       21.021189    2.307442   -1.488411
    133          1           0       19.335220    1.838730   -1.744510
    134          1           0       20.667766    2.257534    2.264772
    135          1           0       21.679696    2.656702    0.998082
    136          1           0       20.105689    3.600280    1.235204
    137          1           0       -7.080396    1.723397    0.594026
    138          1           0       -7.568986   -0.162505   -0.194999
 ---------------------------------------------------------------------

 SCF Done:  E(RB3LYP) =  -2732.98484840     A.U. after   17 cycles

 Excitation energies and oscillator strengths:

 Excited State   1:      Singlet-A      2.0257 eV  612.05 nm  f=0.1303  <S**2>=0.000
     235 -> 237       -0.13756
     235 -> 238        0.27006
     236 -> 237        0.59658
     236 -> 238        0.21699
 This state for optimization and/or second-order correction.
 Total Energy, E(TD-HF/TD-DFT) =  -2732.91040447
 Copying the excited state density for this state as the 1-particle RhoCI density.

 The electronic state is 1-A.
 Alpha  occ. eigenvalues --  -19.17454 -19.16765 -19.14694 -19.13095 -19.12992
 Alpha  occ. eigenvalues --  -14.37943 -14.37417 -14.32015 -14.29951 -10.33635
 Alpha  occ. eigenvalues --  -10.31114 -10.29046 -10.24904 -10.24869 -10.24810
 Alpha  occ. eigenvalues --  -10.24748 -10.24252 -10.24056 -10.23596 -10.23527
 Alpha  occ. eigenvalues --  -10.23344 -10.23259 -10.23094 -10.21666 -10.21597
 Alpha  occ. eigenvalues --  -10.21427 -10.21113 -10.21074 -10.21064 -10.20682
 Alpha  occ. eigenvalues --  -10.20621 -10.20545 -10.20513 -10.20498 -10.20486
 Alpha  occ. eigenvalues --  -10.20464 -10.20403 -10.20140 -10.20124 -10.19993
 Alpha  occ. eigenvalues --  -10.19954 -10.19902 -10.19835 -10.19779 -10.19195
 Alpha  occ. eigenvalues --  -10.19108 -10.19092 -10.18594 -10.18511 -10.18353
 Alpha  occ. eigenvalues --  -10.18096 -10.17995 -10.17966 -10.17941 -10.17855
 Alpha  occ. eigenvalues --  -10.17779 -10.17768 -10.17210 -10.17140 -10.16931
 Alpha  occ. eigenvalues --  -10.16798 -10.16457 -10.15982 -10.15507  -1.09723
 Alpha  occ. eigenvalues --   -1.07990  -1.02788  -1.02079  -1.00453  -0.99121
 Alpha  occ. eigenvalues --   -0.96763  -0.95786  -0.93402  -0.86026  -0.82955
 Alpha  occ. eigenvalues --   -0.82942  -0.81961  -0.81613  -0.81511  -0.80799
 Alpha  occ. eigenvalues --   -0.80268  -0.80022  -0.79590  -0.79188  -0.78520
 Alpha  occ. eigenvalues --   -0.77436  -0.76885  -0.76583  -0.75086  -0.74517
 Alpha  occ. eigenvalues --   -0.73730  -0.73477  -0.72877  -0.71566  -0.71313
 Alpha  occ. eigenvalues --   -0.69840  -0.69258  -0.68502  -0.68451  -0.67443
 Alpha  occ. eigenvalues --   -0.67152  -0.67100  -0.66494  -0.66404  -0.64684
 Alpha  occ. eigenvalues --   -0.64545  -0.63637  -0.62704  -0.62314  -0.61418
 Alpha  occ. eigenvalues --   -0.61185  -0.58981  -0.58969  -0.58482  -0.58188
 Alpha  occ. eigenvalues --   -0.56976  -0.56415  -0.56254  -0.55914  -0.55748
 Alpha  occ. eigenvalues --   -0.55432  -0.55197  -0.54349  -0.54295  -0.53284
 Alpha  occ. eigenvalues --   -0.52699  -0.52337  -0.51935  -0.51303  -0.50824
 Alpha  occ. eigenvalues --   -0.50417  -0.50266  -0.49331  -0.49294  -0.48983
 Alpha  occ. eigenvalues --   -0.48330  -0.48214  -0.47995  -0.47913  -0.47760
 Alpha  occ. eigenvalues --   -0.47520  -0.46916  -0.46596  -0.46395  -0.46226
 Alpha  occ. eigenvalues --   -0.46138  -0.45736  -0.45323  -0.45178  -0.45114
 Alpha  occ. eigenvalues --   -0.44953  -0.44770  -0.44434  -0.44014  -0.43797
 Alpha  occ. eigenvalues --   -0.43676  -0.43459  -0.43085  -0.42933  -0.42817
 Alpha  occ. eigenvalues --   -0.42475  -0.42359  -0.42199  -0.41899  -0.41698
 Alpha  occ. eigenvalues --   -0.41623  -0.41453  -0.41336  -0.41120  -0.40893
 Alpha  occ. eigenvalues --   -0.40585  -0.40496  -0.40398  -0.40035  -0.39528
 Alpha  occ. eigenvalues --   -0.39353  -0.39315  -0.39236  -0.38815  -0.38569
 Alpha  occ. eigenvalues --   -0.38447  -0.38405  -0.38238  -0.38186  -0.38115
 Alpha  occ. eigenvalues --   -0.37683  -0.37591  -0.37373  -0.36986  -0.36693
 Alpha  occ. eigenvalues --   -0.36641  -0.36620  -0.36265  -0.36088  -0.35722
 Alpha  occ. eigenvalues --   -0.35592  -0.35533  -0.35262  -0.35164  -0.34589
 Alpha  occ. eigenvalues --   -0.34575  -0.34512  -0.34050  -0.33833  -0.33356
 Alpha  occ. eigenvalues --   -0.33350  -0.33075  -0.33052  -0.32578  -0.32380
 Alpha  occ. eigenvalues --   -0.32038  -0.31981  -0.31796  -0.31747  -0.31574
 Alpha  occ. eigenvalues --   -0.31512  -0.30981  -0.29687  -0.29581  -0.29499
 Alpha  occ. eigenvalues --   -0.29306  -0.29033  -0.28735  -0.28479  -0.28347
 Alpha  occ. eigenvalues --   -0.27653  -0.27107  -0.26768  -0.26534  -0.25823
 Alpha  occ. eigenvalues --   -0.25044  -0.24373  -0.23368  -0.22481  -0.21023
 Alpha  occ. eigenvalues --   -0.18883
 Alpha virt. eigenvalues --   -0.10411  -0.09188  -0.05090  -0.03399  -0.02520
 Alpha virt. eigenvalues --   -0.00985  -0.00307   0.00389   0.01981   0.02735
 Alpha virt. eigenvalues --    0.03390   0.03895   0.04308   0.04492   0.05030

 Mulliken charges:
               1
     1  C    0.006835
     2  C   -0.055922
     3  C   -0.104969
     4  C   -0.033684
     5  N   -0.102972
     6  C   -0.092320
     7  C   -0.139024
     8  C   -0.056775
     9  C   -0.044011
    10  C    0.157769
    11  C    0.102534
    12  C    0.133217
    13  C    0.128312
    14  O   -0.186006
    15  O   -0.320281
    16  N   -0.117203
    17  C    0.130259
    18  C   -0.156854
    19  C    0.088266
    20  C    0.101902
    21  C    0.085662
    22  C   -0.010070
    23  C   -0.054294
    24  N   -0.277432
    25  C    0.091705
    26  C   -0.103792
    27  C   -0.032004
    28  C    0.072244
    29  C    0.024478
    30  C   -0.014076
    31  C    0.020053
    32  N   -0.020336
    33  C    0.036092
    34  C   -0.147924
    35  C   -0.009422
    36  C    0.076336
    37  C    0.134453
    38  C    0.027727
    39  O   -0.167442
    40  C   -0.002979
    41  C    0.244957
    42  O   -0.244716
    43  O   -0.311946
    44  C    0.119923
    45  C    0.183692
    46  C   -0.043842
    47  C   -0.129563
    48  C   -0.056173
    49  C    0.017442
    50  C    0.012609
    51  C    0.167267
    52  C   -0.163525
    53  C    0.047539
    54  C    0.177886
    55  C    0.139172
    56  C    0.017461
    57  C    0.046543
    58  C   -0.011681
    59  C   -0.008112
    60  C   -0.022779
    61  C   -0.047604
    62  C   -0.082775
    63  C    0.104712
    64  C    0.095983
    65  H   -0.014753
    66  H   -0.014449
    67  H   -0.035728
    68  H    0.054905
    69  H    0.006262
    70  H   -0.014899
    71  H   -0.016227
    72  H   -0.007526
    73  H   -0.035702
    74  H    0.010152
    75  H    0.011075
    76  H    0.051705
    77  H    0.040579
    78  H    0.044983
    79  H    0.034383
    80  H   -0.029776
    81  H   -0.025888
    82  H    0.033365
    83  H    0.046256
    84  H    0.024200
    85  H    0.027883
    86  H    0.011969
    87  H    0.021995
    88  H   -0.034032
    89  H    0.005770
    90  H    0.003470
    91  H    0.026382
    92  H    0.001149
    93  H    0.070361
    94  H    0.083844
    95  H    0.056965
    96  H    0.017390
    97  H    0.019890
    98  H    0.012902
    99  H    0.013712
   100  H   -0.014608
   101  H    0.062449
   102  H    0.062660
   103  H    0.055808
   104  H    0.004152
   105  H    0.021334
   106  H   -0.012520
   107  H    0.003333
   108  H   -0.012053
   109  H   -0.059854
   110  H   -0.030836
   111  H    0.019349
   112  H    0.001394
   113  H    0.012016
   114  H   -0.070394
   115  H   -0.010967
   116  H   -0.024092
   117  H   -0.075589
   118  H   -0.007799
   119  H   -0.017721
   120  H   -0.046266
   121  H    0.001895
   122  H    0.006878
   123  H   -0.008730
   124  H    0.000983
   125  H   -0.033975
   126  H    0.014108
   127  H   -0.001189
   128  H    0.019661
   129  H    0.003739
   130  H   -0.024822
   131  H   -0.030316
   132  H   -0.028326
   133  H   -0.008030
   134  H   -0.012487
   135  H   -0.006952
   136  H    0.000553
   137  H    0.176487
   138  H    0.147638
 Sum of Mulliken charges =  -0.00000

 Dipole moment (field-independent basis, Debye):
    X=              0.6827    Y=              5.0612    Z=              0.0574  Tot=              5.1074
 Quadrupole moment (field-independent basis, Debye-Ang):
   XX=           -357.8862   YY=           -382.7007   ZZ=           -398.5300
   XY=            -23.2140   XZ=              8.1280   YZ=              1.5824

 Normal termination of Gaussian 16 at Sun Sep  1 13:54:58 2019.
