 Gaussian 16, Revision A.03,
 Gaussian 16:  ES64L-G16RevA.03 25-Dec-2016

 --------------------------
 # td=(NStates=1) B3LYP/SVP
 --------------------------

 --
 TD
 --
 Symbolic Z-matrix:
 Charge =  0 Multiplicity = 1

                         Standard orientation:
 ---------------------------------------------------------------------
 Center     Atomic      Atomic             Coordinates (Angstroms)
 Number     Number       Type             X           Y           Z
 ---------------------------------------------------------------------
      1          6           0       -5.139515   -1.919851    0.476676
      2          6           0       -4.618960    2.732983    1.485652
      3          6           0       -9.177392    3.439167   -0.281030
      4          6           0       -9.853972   -1.343587   -0.943249
      5          7           0       -5.075604    0.468117    0.767597
      6          6           0       -4.477472   -0.798360    0.912003
      7          6           0       -2.980186   -0.636313    1.368011
      8          6           0       -3.004685    0.907612    1.846314
      9          6           0       -4.284313    1.368765    1.318753
     10          6           0       -2.964852    0.964535    3.357912
     11          6           0       -2.002006   -0.930621    0.200352
     12          6           0       -0.533447   -1.000779    0.666731
     13          6           0        0.367437   -1.366686   -0.537830
     14          8           0        0.104560   -1.746868   -1.625057
     15          8           0        1.606188   -0.962215   -0.148798
     16          7           0       -6.950785    2.718550    0.597902
     17          6           0       -5.815222    3.388499    1.033096
     18          6           0       -6.066503    4.838138    1.015657
     19          6           0       -7.340451    5.017001    0.522184
     20          6           0       -7.842785    3.674952    0.209558
     21          6           0       -5.080613    5.920116    1.434790
     22          6           0       -7.916533    6.310445    0.357735
     23          6           0       -8.790128    6.743336   -0.533825
     24          7           0       -9.139437    0.975942   -0.551244
     25          6           0       -9.811507    2.152915   -0.522542
     26          6           0      -11.164989    1.994930   -1.023431
     27          6           0      -11.349247    0.656860   -1.207345
     28          6           0      -10.099958    0.037156   -0.801407
     29          6           0      -12.112520    3.109592   -1.143438
     30          6           0      -12.614696   -0.020157   -1.700514
     31          6           0      -12.549578   -0.417782   -3.090956
     32          7           0       -7.504596   -1.222510   -0.195997
     33          6           0       -8.614157   -1.977526   -0.585080
     34          6           0       -8.261315   -3.305984   -0.675834
     35          6           0       -6.877448   -3.366971   -0.270497
     36          6           0       -6.409481   -2.051395   -0.058889
     37          6           0       -9.100119   -4.427358   -1.150284
     38          6           0       -5.744783   -4.229093   -0.001523
     39          8           0       -5.838364   -5.463768   -0.018028
     40          6           0       -4.555155   -3.342956    0.427256
     41          6           0       -4.138167   -3.861743    1.731431
     42          8           0       -4.293412   -3.408482    2.894823
     43          8           0       -3.320946   -4.980556    1.574860
     44          6           0       -2.686769   -5.528692    2.691151
     45          6           0        2.603665   -1.244592   -1.245722
     46          6           0        4.019269   -1.030876   -0.613286
     47          6           0        4.855170   -0.076641   -1.032403
     48          6           0        4.638140    0.825305   -2.142771
     49          6           0        6.222081    0.071814   -0.351169
     50          6           0        7.468566   -0.374278   -0.996629
     51          6           0        8.798454   -0.231401   -0.245894
     52          6           0       10.024154   -0.853958   -0.820321
     53          6           0       10.012745   -2.354486   -1.084830
     54          6           0       11.209374   -0.411677   -0.010022
     55          6           0       12.605910   -0.666394   -0.661054
     56          6           0       13.767298   -0.136069    0.115809
     57          6           0       15.176544   -0.133356   -0.564402
     58          6           0       15.618996   -1.605145   -0.640810
     59          6           0       16.086622    0.649765    0.343144
     60          6           0       17.586422    0.817987   -0.229717
     61          6           0       18.575751    1.597936    0.685465
     62          6           0       19.989849    1.722814    0.256800
     63          6           0       20.190075    2.498682   -1.208968
     64          6           0       20.854604    2.477049    1.248870
     65          1           0       -3.941351    3.404381    1.655368
     66          1           0       -9.801483    4.318072   -0.167113
     67          1           0      -10.688796   -1.785750   -1.139193
     68          1           0       -2.856850   -1.385739    2.180276
     69          1           0       -2.191900    1.501887    1.355902
     70          1           0       -1.860861    0.775276    3.702070
     71          1           0       -3.135278    1.945743    3.713591
     72          1           0       -3.681472    0.342414    3.771637
     73          1           0       -2.315920   -1.832900   -0.481987
     74          1           0       -2.203602   -0.267126   -0.594317
     75          1           0       -0.237434    0.077273    0.866093
     76          1           0       -0.499591   -1.572080    1.576282
     77          1           0       -4.039299    5.614160    1.013886
     78          1           0       -5.549323    6.881988    1.281593
     79          1           0       -4.976127    5.750233    2.481809
     80          1           0       -7.559199    7.062876    0.893721
     81          1           0       -9.158013    6.118832   -1.380957
     82          1           0       -9.176076    7.856665   -0.614465
     83          1           0      -12.399162    3.413558   -0.120225
     84          1           0      -11.882813    4.104564   -1.790949
     85          1           0      -13.102025    2.841781   -1.526906
     86          1           0      -12.711690   -1.075845   -0.912741
     87          1           0      -13.577111    0.789649   -1.728057
     88          1           0      -12.314977    0.469771   -3.868007
     89          1           0      -11.772729   -1.028361   -3.535361
     90          1           0      -13.583332   -0.685764   -3.333550
     91          1           0      -10.129595   -4.657436   -0.492217
     92          1           0       -9.657811   -4.071284   -2.126790
     93          1           0       -8.611868   -5.396840   -1.124301
     94          1           0       -3.660178   -3.416975   -0.156865
     95          1           0       -2.172881   -6.450383    2.342239
     96          1           0       -1.877321   -4.849203    3.217298
     97          1           0       -3.592537   -6.020208    3.139664
     98          1           0        2.445652   -2.201073   -1.598624
     99          1           0        2.312282   -0.691193   -2.064448
    100          1           0        4.326715   -1.807983    0.294116
    101          1           0        5.074420    1.791891   -2.136268
    102          1           0        5.311531    0.565373   -2.997837
    103          1           0        3.529735    0.927857   -2.624474
    104          1           0        6.313961    1.064435   -0.129961
    105          1           0        6.136658   -0.392699    0.560993
    106          1           0        7.357159   -1.553216   -1.206380
    107          1           0        7.552614    0.242631   -2.031205
    108          1           0        8.828174    0.765345    0.278454
    109          1           0        8.662045   -0.645587    0.789447
    110          1           0       10.391631   -0.255703   -1.819201
    111          1           0        9.229166   -2.797662   -2.003971
    112          1           0       11.190937   -2.761103   -1.314302
    113          1           0        9.503771   -2.893685   -0.156601
    114          1           0       11.306933    0.663809    0.335074
    115          1           0       11.171301   -1.010659    0.884029
    116          1           0       12.973296   -1.746459   -0.690431
    117          1           0       12.589642   -0.422295   -1.697379
    118          1           0       13.650889    0.925552    0.425806
    119          1           0       13.909217   -0.768551    1.230943
    120          1           0       15.210924    0.598530   -1.388367
    121          1           0       14.923427   -2.147698   -1.223773
    122          1           0       16.574931   -1.821752   -1.254117
    123          1           0       15.543331   -2.183628    0.199473
    124          1           0       15.682868    1.702290    0.488909
    125          1           0       15.980242    0.164546    1.364066
    126          1           0       18.049067   -0.073026   -0.478397
    127          1           0       17.551211    1.360819   -1.105316
    128          1           0       18.050483    2.629778    0.918647
    129          1           0       18.448204    1.219693    1.815282
    130          1           0       20.505792    0.754931    0.007555
    131          1           0       19.704213    3.524229   -1.062551
    132          1           0       21.244417    2.592885   -1.615261
    133          1           0       19.671484    2.188839   -1.988098
    134          1           0       20.786097    2.131687    2.242244
    135          1           0       21.995005    2.778029    1.106881
    136          1           0       20.344544    3.455714    1.542297
    137          1           0       -7.079569    1.790939    0.431317
    138          1           0       -7.560252   -0.166380   -0.154266
 ---------------------------------------------------------------------

 SCF Done:  E(RB3LYP) =  -2733.07325663     A.U. after   17 cycles

 Excitation energies and oscillator strengths:

 Excited State   1:      Singlet-A      2.0804 eV  595.98 nm  f=0.1528  <S**2>=0.000
     235 -> 237       -0.18751
     235 -> 238       -0.29948
     236 -> 237        0.59596
     236 -> 238       -0.12467
 This state for optimization and/or second-order correction.
 Total Energy, E(TD-HF/TD-DFT) =  -2732.99680488
 Copying the excited state density for this state as the 1-particle RhoCI density.

 The electronic state is 1-A.
 Alpha  occ. eigenvalues --  -19.16943 -19.16252 -19.13421 -19.12030 -19.11097
 Alpha  occ. eigenvalues --  -14.37344 -14.36310 -14.32256 -14.30033 -10.31662
 Alpha  occ. eigenvalues --  -10.31459 -10.27256 -10.24829 -10.24620 -10.24424
 Alpha  occ. eigenvalues --  -10.23668 -10.23013 -10.22920 -10.22819 -10.22612
 Alpha  occ. eigenvalues --  -10.22587 -10.22230 -10.21744 -10.21555 -10.21275
 Alpha  occ. eigenvalues --  -10.21135 -10.21097 -10.20874 -10.20853 -10.20795
 Alpha  occ. eigenvalues --  -10.20743 -10.20661 -10.20623 -10.20581 -10.20444
 Alpha  occ. eigenvalues --  -10.20434 -10.20405 -10.20378 -10.20358 -10.20292
 Alpha  occ. eigenvalues --  -10.20220 -10.19877 -10.19780 -10.19751 -10.19684
 Alpha  occ. eigenvalues --  -10.19648 -10.19602 -10.19540 -10.19257 -10.19222
 Alpha  occ. eigenvalues --  -10.18769 -10.18700 -10.18620 -10.18577 -10.18528
 Alpha  occ. eigenvalues --  -10.18473 -10.18410 -10.18354 -10.18288 -10.18098
 Alpha  occ. eigenvalues --  -10.17631 -10.17556 -10.17526 -10.17502  -1.09502
 Alpha  occ. eigenvalues --   -1.07432  -1.00934  -1.00673  -0.98868  -0.98045
 Alpha  occ. eigenvalues --   -0.97096  -0.94209  -0.93837  -0.85621  -0.83685
 Alpha  occ. eigenvalues --   -0.83489  -0.82464  -0.81351  -0.80791  -0.80598
 Alpha  occ. eigenvalues --   -0.79969  -0.79626  -0.79591  -0.79201  -0.78110
 Alpha  occ. eigenvalues --   -0.77279  -0.76551  -0.76203  -0.75277  -0.74708
 Alpha  occ. eigenvalues --   -0.73927  -0.73237  -0.72743  -0.72159  -0.71930
 Alpha  occ. eigenvalues --   -0.69746  -0.69367  -0.68639  -0.68389  -0.68039
 Alpha  occ. eigenvalues --   -0.67576  -0.67533  -0.66170  -0.65957  -0.65698
 Alpha  occ. eigenvalues --   -0.64431  -0.63644  -0.62428  -0.62098  -0.61819
 Alpha  occ. eigenvalues --   -0.60599  -0.59250  -0.58547  -0.58268  -0.57276
 Alpha  occ. eigenvalues --   -0.57106  -0.57050  -0.56250  -0.56019  -0.55577
 Alpha  occ. eigenvalues --   -0.55462  -0.54663  -0.54208  -0.53971  -0.53193
 Alpha  occ. eigenvalues --   -0.52935  -0.52272  -0.51625  -0.50974  -0.50769
 Alpha  occ. eigenvalues --   -0.49779  -0.49545  -0.49174  -0.48712  -0.48386
 Alpha  occ. eigenvalues --   -0.48130  -0.47998  -0.47636  -0.47247  -0.47033
 Alpha  occ. eigenvalues --   -0.46946  -0.46817  -0.46592  -0.46084  -0.45786
 Alpha  occ. eigenvalues --   -0.45687  -0.45500  -0.45286  -0.45018  -0.44598
 Alpha  occ. eigenvalues --   -0.44443  -0.44405  -0.44112  -0.43760  -0.43671
 Alpha  occ. eigenvalues --   -0.43606  -0.43365  -0.43345  -0.42978  -0.42653
 Alpha  occ. eigenvalues --   -0.42364  -0.42064  -0.41515  -0.41469  -0.41177
 Alpha  occ. eigenvalues --   -0.41085  -0.40938  -0.40709  -0.40683  -0.40479
 Alpha  occ. eigenvalues --   -0.40357  -0.40108  -0.39944  -0.39707  -0.39492
 Alpha  occ. eigenvalues --   -0.39393  -0.39050  -0.38921  -0.38408  -0.38327
 Alpha  occ. eigenvalues --   -0.38261  -0.38161  -0.37875  -0.37658  -0.37544
 Alpha  occ. eigenvalues --   -0.37441  -0.37382  -0.37080  -0.36836  -0.36733
 Alpha  occ. eigenvalues --   -0.36557  -0.36493  -0.36296  -0.35858  -0.35728
 Alpha  occ. eigenvalues --   -0.35681  -0.35566  -0.35478  -0.35413  -0.35125
 Alpha  occ. eigenvalues --   -0.34776  -0.34462  -0.34301  -0.34108  -0.33925
 Alpha  occ. eigenvalues --   -0.33844  -0.33292  -0.32932  -0.32599  -0.32492
 Alpha  occ. eigenvalues --   -0.32459  -0.32145  -0.31535  -0.31448  -0.31373
 Alpha  occ. eigenvalues --   -0.30804  -0.30728  -0.30601  -0.29760  -0.29609
 Alpha  occ. eigenvalues --   -0.29105  -0.29063  -0.28926  -0.28783  -0.27893
 Alpha  occ. eigenvalues --   -0.27317  -0.27079  -0.26938  -0.26619  -0.25173
 Alpha  occ. eigenvalues --   -0.24780  -0.24702  -0.24337  -0.22898  -0.19756
 Alpha  occ. eigenvalues --   -0.19312
 Alpha virt. eigenvalues --   -0.10517  -0.07871  -0.04644  -0.02011  -0.00889
 Alpha virt. eigenvalues --    0.00028   0.00239   0.00676   0.01747   0.03075
 Alpha virt. eigenvalues --    0.03145   0.04054   0.04326   0.04705   0.04964

 Mulliken charges:
               1
     1  C    0.050178
     2  C    0.030019
     3  C   -0.080775
     4  C    0.023272
     5  N   -0.182174
     6  C   -0.107069
     7  C    0.004952
     8  C   -0.031330
     9  C   -0.000995
    10  C    0.111211
    11  C    0.006362
    12  C    0.057694
    13  C    0.179240
    14  O   -0.202120
    15  O   -0.345491
    16  N    0.017759
    17  C    0.057580
    18  C   -0.168723
    19  C    0.087861
    20  C    0.058216
    21  C    0.151834
    22  C   -0.013105
    23  C   -0.085134
    24  N   -0.258169
    25  C    0.053613
    26  C   -0.097086
    27  C   -0.051530
    28  C    0.037130
    29  C    0.051174
    30  C   -0.041689
    31  C    0.007723
    32  N   -0.092987
    33  C    0.132286
    34  C   -0.113018
    35  C    0.014918
    36  C    0.077254
    37  C    0.032672
    38  C    0.033848
    39  O   -0.198691
    40  C    0.027813
    41  C    0.212567
    42  O   -0.263074
    43  O   -0.324227
    44  C    0.166275
    45  C    0.320187
    46  C   -0.120483
    47  C   -0.091283
    48  C    0.060632
    49  C    0.159827
    50  C    0.006229
    51  C    0.016781
    52  C   -0.004335
    53  C   -0.093242
    54  C    0.022706
    55  C    0.074368
    56  C   -0.086696
    57  C   -0.046262
    58  C    0.110902
    59  C   -0.022084
    60  C    0.132770
    61  C   -0.055635
    62  C   -0.039963
    63  C    0.014983
    64  C    0.034897
    65  H   -0.114374
    66  H   -0.003180
    67  H   -0.119711
    68  H    0.019030
    69  H    0.005785
    70  H    0.019424
    71  H   -0.012169
    72  H    0.018479
    73  H    0.021610
    74  H   -0.021650
    75  H    0.041044
    76  H    0.033894
    77  H    0.050245
    78  H    0.020950
    79  H    0.016093
    80  H   -0.060246
    81  H    0.033622
    82  H    0.042911
    83  H    0.023709
    84  H    0.039322
    85  H   -0.013378
    86  H    0.042943
    87  H    0.035208
    88  H    0.006974
    89  H    0.014532
    90  H    0.015602
    91  H    0.030471
    92  H    0.039523
    93  H    0.044401
    94  H    0.046650
    95  H    0.016611
    96  H    0.052787
    97  H    0.032746
    98  H   -0.005362
    99  H   -0.023117
   100  H    0.033930
   101  H   -0.013737
   102  H    0.015322
   103  H    0.041336
   104  H   -0.035822
   105  H   -0.045329
   106  H    0.009034
   107  H    0.005210
   108  H   -0.020275
   109  H   -0.032789
   110  H    0.002564
   111  H    0.047181
   112  H    0.056164
   113  H    0.027695
   114  H    0.011137
   115  H   -0.024949
   116  H   -0.002128
   117  H   -0.018856
   118  H   -0.017928
   119  H    0.010074
   120  H   -0.007574
   121  H   -0.025184
   122  H    0.016862
   123  H   -0.020733
   124  H   -0.003536
   125  H   -0.010434
   126  H   -0.025289
   127  H   -0.030528
   128  H   -0.004310
   129  H    0.005163
   130  H    0.011876
   131  H    0.000860
   132  H    0.019190
   133  H   -0.032281
   134  H   -0.023463
   135  H    0.030526
   136  H   -0.014343
   137  H    0.087812
   138  H    0.165810
 Sum of Mulliken charges =  -0.00000

 Dipole moment (field-independent basis, Debye):
    X=              2.6845    Y=              6.4389    Z=             -0.2469  Tot=              6.9804
 Quadrupole moment (field-independent basis, Debye-Ang):
   XX=           -365.5511   YY=           -384.3782   ZZ=           -397.6688
   XY=            -42.4764   XZ=              7.6615   YZ=              1.4368

 Normal termination of Gaussian 16 at Fri Aug 23 06:09:53 2019.
