 Gaussian 16, Revision A.03,
 Gaussian 16:  ES64L-G16RevA.03 25-Dec-2016

 --------------------------
 # td=(NStates=1) B3LYP/SVP
 --------------------------

 --
 TD
 --
 Symbolic Z-matrix:
 Charge =  0 Multiplicity = 1

                         Standard orientation:
 ---------------------------------------------------------------------
 Center     Atomic      Atomic             Coordinates (Angstroms)
 Number     Number       Type             X           Y           Z
 ---------------------------------------------------------------------
      1          6           0       -5.222531   -1.962915    0.440678
      2          6           0       -4.610223    2.728612    1.294417
      3          6           0       -9.243130    3.444124   -0.300622
      4          6           0       -9.880307   -1.318790   -0.756557
      5          7           0       -5.204440    0.379674    0.694470
      6          6           0       -4.529265   -0.768877    0.826075
      7          6           0       -3.095660   -0.604862    1.263851
      8          6           0       -2.980235    0.771798    1.749563
      9          6           0       -4.319999    1.348341    1.233069
     10          6           0       -2.782349    0.971499    3.349068
     11          6           0       -2.075526   -0.909024    0.148149
     12          6           0       -0.583600   -0.967380    0.567062
     13          6           0        0.309798   -1.194398   -0.585547
     14          8           0        0.022430   -1.630308   -1.710395
     15          8           0        1.648822   -1.115302   -0.250091
     16          7           0       -6.872516    2.821781    0.469132
     17          6           0       -5.816006    3.396042    1.091725
     18          6           0       -6.085120    4.884530    1.048549
     19          6           0       -7.327337    5.130089    0.393521
     20          6           0       -7.923952    3.755993    0.052484
     21          6           0       -5.084010    5.904493    1.592891
     22          6           0       -7.995221    6.370306    0.312806
     23          6           0       -8.782001    6.776608   -0.672671
     24          7           0       -9.155339    1.007558   -0.364813
     25          6           0       -9.765206    2.209821   -0.435952
     26          6           0      -11.224144    2.076952   -0.954197
     27          6           0      -11.370540    0.756881   -1.127630
     28          6           0      -10.090221    0.140034   -0.784526
     29          6           0      -12.180918    3.243597   -1.118824
     30          6           0      -12.658930    0.062257   -1.580224
     31          6           0      -12.686905   -0.229870   -3.089786
     32          7           0       -7.617808   -1.193778   -0.025496
     33          6           0       -8.686266   -1.961507   -0.465145
     34          6           0       -8.337339   -3.389259   -0.566890
     35          6           0       -6.951885   -3.444244   -0.211312
     36          6           0       -6.607000   -2.026938    0.096982
     37          6           0       -9.128975   -4.499838   -0.842725
     38          6           0       -5.891049   -4.289602    0.066961
     39          8           0       -5.809453   -5.515152   -0.069567
     40          6           0       -4.660696   -3.371622    0.323946
     41          6           0       -3.946889   -3.866043    1.682278
     42          8           0       -4.269647   -3.405995    2.749651
     43          8           0       -3.156036   -4.871249    1.373150
     44          6           0       -2.502846   -5.429178    2.543004
     45          6           0        2.580040   -1.418955   -1.267047
     46          6           0        4.042708   -1.146722   -0.620270
     47          6           0        4.928228   -0.324550   -1.213412
     48          6           0        4.896190    0.262147   -2.465226
     49          6           0        6.234763   -0.063395   -0.355447
     50          6           0        7.545112   -0.681659   -0.980247
     51          6           0        8.744905   -0.641546   -0.039486
     52          6           0       10.128012   -1.015793   -0.738164
     53          6           0       10.135145   -2.580294   -0.865663
     54          6           0       11.312397   -0.551059    0.100061
     55          6           0       12.705801   -0.651229   -0.530347
     56          6           0       13.831597   -0.184120    0.291636
     57          6           0       15.173843   -0.195457   -0.356599
     58          6           0       15.741007   -1.601847   -0.540303
     59          6           0       16.164171    0.719034    0.510342
     60          6           0       17.542238    0.909781   -0.165342
     61          6           0       18.447472    1.930757    0.584831
     62          6           0       20.028123    2.138022    0.119993
     63          6           0       19.980725    2.707486   -1.308482
     64          6           0       20.695348    2.911502    1.167434
     65          1           0       -4.044893    3.463010    1.705929
     66          1           0       -9.830773    4.364454   -0.461622
     67          1           0      -10.662512   -2.100104   -1.117492
     68          1           0       -2.761373   -1.288816    2.004515
     69          1           0       -1.996240    1.361407    1.474639
     70          1           0       -1.836867    0.533391    3.535615
     71          1           0       -2.761995    1.993073    3.876277
     72          1           0       -3.713456    0.452996    3.827074
     73          1           0       -2.297873   -1.829851   -0.513320
     74          1           0       -2.204533   -0.005392   -0.547186
     75          1           0       -0.047728   -0.179427    1.204422
     76          1           0       -0.393286   -1.815070    1.244655
     77          1           0       -4.150069    5.997839    0.753704
     78          1           0       -5.596543    6.823350    1.840688
     79          1           0       -4.676973    5.495172    2.499985
     80          1           0       -7.929649    7.006284    1.265092
     81          1           0       -9.011085    6.199312   -1.728565
     82          1           0       -9.232476    7.796599   -0.621310
     83          1           0      -12.495821    4.067532   -0.325867
     84          1           0      -11.778594    3.986902   -1.951732
     85          1           0      -13.220793    2.920561   -1.764378
     86          1           0      -12.812815   -0.880157   -1.104982
     87          1           0      -13.425620    0.734784   -1.266502
     88          1           0      -12.820287    0.689578   -3.570952
     89          1           0      -11.860033   -0.716674   -3.371662
     90          1           0      -13.518117   -1.069841   -3.400788
     91          1           0      -10.072093   -4.589623   -0.125413
     92          1           0       -9.451980   -4.303812   -1.903982
     93          1           0       -8.446926   -5.375440   -1.002208
     94          1           0       -3.747656   -3.491644   -0.371359
     95          1           0       -1.943040   -6.137442    2.030840
     96          1           0       -1.809476   -4.577194    3.147509
     97          1           0       -3.153299   -6.073105    3.098245
     98          1           0        2.624464   -2.379755   -1.685379
     99          1           0        2.454931   -0.747189   -2.248569
    100          1           0        4.099134   -1.465200    0.435005
    101          1           0        5.460886    1.224290   -2.518729
    102          1           0        5.574027   -0.294238   -3.170065
    103          1           0        3.794199    0.434164   -2.907254
    104          1           0        6.424124    0.994012   -0.361287
    105          1           0        5.950703   -0.407143    0.604040
    106          1           0        7.133699   -1.813893   -1.379879
    107          1           0        7.839128   -0.180430   -1.906873
    108          1           0        8.940766    0.302514    0.509664
    109          1           0        8.923267   -1.271486    0.901676
    110          1           0       10.183980   -0.591920   -1.779353
    111          1           0        9.282533   -3.050412   -1.348461
    112          1           0       11.250643   -3.063059   -1.163312
    113          1           0       10.094306   -2.733658    0.191314
    114          1           0       11.276084    0.452386    0.433255
    115          1           0       11.294389   -0.956760    1.230511
    116          1           0       12.905087   -1.640280   -0.811208
    117          1           0       12.778257    0.074365   -1.500702
    118          1           0       13.443674    0.884158    0.805443
    119          1           0       13.831168   -0.793318    1.241131
    120          1           0       14.899073    0.282181   -1.433293
    121          1           0       15.220919   -2.318087   -1.243061
    122          1           0       16.747028   -1.411362   -1.294482
    123          1           0       15.855036   -2.199872    0.297475
    124          1           0       15.781944    1.716092    0.632947
    125          1           0       16.300374    0.213709    1.448209
    126          1           0       18.101211    0.012989   -0.392116
    127          1           0       17.374919    1.348514   -1.195254
    128          1           0       18.119338    2.937921    0.659907
    129          1           0       18.353867    1.625123    1.557485
    130          1           0       20.396626    1.021766   -0.201652
    131          1           0       19.255211    3.599343   -1.290882
    132          1           0       21.039928    3.079410   -1.545606
    133          1           0       19.736859    1.839004   -1.940382
    134          1           0       20.844961    2.530386    2.264956
    135          1           0       21.794555    3.318704    0.526882
    136          1           0       20.305567    3.941839    1.156649
    137          1           0       -6.878776    1.832291    0.216882
    138          1           0       -7.489469   -0.160737    0.213088
 ---------------------------------------------------------------------

 SCF Done:  E(RB3LYP) =  -2733.07341186     A.U. after   17 cycles

 Excitation energies and oscillator strengths:

 Excited State   1:      Singlet-A      1.9784 eV  626.69 nm  f=0.1655  <S**2>=0.000
     235 -> 238        0.30776
     236 -> 237        0.63250
 This state for optimization and/or second-order correction.
 Total Energy, E(TD-HF/TD-DFT) =  -2733.00070740
 Copying the excited state density for this state as the 1-particle RhoCI density.

 The electronic state is 1-A.
 Alpha  occ. eigenvalues --  -19.19387 -19.17930 -19.12638 -19.12610 -19.11136
 Alpha  occ. eigenvalues --  -14.37646 -14.36712 -14.33471 -14.30554 -10.32161
 Alpha  occ. eigenvalues --  -10.31449 -10.26751 -10.25630 -10.24887 -10.24215
 Alpha  occ. eigenvalues --  -10.23875 -10.23852 -10.23681 -10.23590 -10.23509
 Alpha  occ. eigenvalues --  -10.22341 -10.22297 -10.22210 -10.22073 -10.21731
 Alpha  occ. eigenvalues --  -10.21501 -10.21132 -10.21104 -10.21029 -10.21000
 Alpha  occ. eigenvalues --  -10.20927 -10.20923 -10.20922 -10.20817 -10.20717
 Alpha  occ. eigenvalues --  -10.20524 -10.20509 -10.20291 -10.20286 -10.20192
 Alpha  occ. eigenvalues --  -10.20163 -10.19980 -10.19783 -10.19707 -10.19624
 Alpha  occ. eigenvalues --  -10.19379 -10.19359 -10.19341 -10.19111 -10.19015
 Alpha  occ. eigenvalues --  -10.18813 -10.18804 -10.18703 -10.18694 -10.18659
 Alpha  occ. eigenvalues --  -10.18530 -10.18401 -10.18320 -10.18261 -10.18203
 Alpha  occ. eigenvalues --  -10.18178 -10.17963 -10.17584 -10.16902  -1.10780
 Alpha  occ. eigenvalues --   -1.08874  -1.01625  -1.00833  -0.99370  -0.99080
 Alpha  occ. eigenvalues --   -0.95777  -0.94581  -0.93945  -0.84131  -0.82616
 Alpha  occ. eigenvalues --   -0.82373  -0.82100  -0.82024  -0.81640  -0.80466
 Alpha  occ. eigenvalues --   -0.80103  -0.79523  -0.79428  -0.78563  -0.77952
 Alpha  occ. eigenvalues --   -0.76466  -0.76063  -0.75766  -0.74523  -0.74327
 Alpha  occ. eigenvalues --   -0.73997  -0.73260  -0.72473  -0.71964  -0.70887
 Alpha  occ. eigenvalues --   -0.69958  -0.68733  -0.68544  -0.67775  -0.67239
 Alpha  occ. eigenvalues --   -0.66885  -0.66802  -0.66299  -0.65705  -0.65372
 Alpha  occ. eigenvalues --   -0.63880  -0.62962  -0.62312  -0.61871  -0.61171
 Alpha  occ. eigenvalues --   -0.60910  -0.58817  -0.58209  -0.57437  -0.57311
 Alpha  occ. eigenvalues --   -0.56990  -0.56315  -0.56030  -0.55895  -0.55649
 Alpha  occ. eigenvalues --   -0.54664  -0.54655  -0.53718  -0.53243  -0.52847
 Alpha  occ. eigenvalues --   -0.52607  -0.51953  -0.51590  -0.51162  -0.50085
 Alpha  occ. eigenvalues --   -0.49731  -0.49293  -0.48989  -0.48507  -0.48214
 Alpha  occ. eigenvalues --   -0.47966  -0.47886  -0.47342  -0.47137  -0.46865
 Alpha  occ. eigenvalues --   -0.46563  -0.46363  -0.46157  -0.46036  -0.45663
 Alpha  occ. eigenvalues --   -0.45619  -0.45416  -0.44762  -0.44642  -0.44375
 Alpha  occ. eigenvalues --   -0.44156  -0.44000  -0.43883  -0.43752  -0.43622
 Alpha  occ. eigenvalues --   -0.43177  -0.43044  -0.42451  -0.42312  -0.42284
 Alpha  occ. eigenvalues --   -0.42110  -0.41953  -0.41727  -0.41570  -0.41390
 Alpha  occ. eigenvalues --   -0.41250  -0.41191  -0.40990  -0.40648  -0.40439
 Alpha  occ. eigenvalues --   -0.40239  -0.40042  -0.39740  -0.39531  -0.39264
 Alpha  occ. eigenvalues --   -0.39008  -0.38866  -0.38807  -0.38648  -0.38438
 Alpha  occ. eigenvalues --   -0.38326  -0.38044  -0.37864  -0.37802  -0.37606
 Alpha  occ. eigenvalues --   -0.37324  -0.37105  -0.36986  -0.36965  -0.36843
 Alpha  occ. eigenvalues --   -0.36411  -0.36265  -0.36082  -0.35967  -0.35811
 Alpha  occ. eigenvalues --   -0.35653  -0.35430  -0.35188  -0.35018  -0.34888
 Alpha  occ. eigenvalues --   -0.34853  -0.34600  -0.34482  -0.34217  -0.33620
 Alpha  occ. eigenvalues --   -0.33295  -0.33262  -0.32965  -0.32317  -0.32139
 Alpha  occ. eigenvalues --   -0.31847  -0.31755  -0.31524  -0.31256  -0.31052
 Alpha  occ. eigenvalues --   -0.30825  -0.30643  -0.30403  -0.30391  -0.30133
 Alpha  occ. eigenvalues --   -0.30012  -0.29367  -0.29307  -0.28023  -0.27903
 Alpha  occ. eigenvalues --   -0.27385  -0.27225  -0.26986  -0.26155  -0.25705
 Alpha  occ. eigenvalues --   -0.24411  -0.24391  -0.23766  -0.23491  -0.19539
 Alpha  occ. eigenvalues --   -0.18459
 Alpha virt. eigenvalues --   -0.10105  -0.07665  -0.04765  -0.02117  -0.01727
 Alpha virt. eigenvalues --   -0.00243   0.00591   0.00665   0.01671   0.03261
 Alpha virt. eigenvalues --    0.03494   0.03678   0.03826   0.03890   0.04315

 Mulliken charges:
               1
     1  C    0.016701
     2  C    0.011916
     3  C   -0.077968
     4  C   -0.120715
     5  N   -0.215712
     6  C   -0.027648
     7  C    0.121226
     8  C   -0.109379
     9  C    0.092186
    10  C    0.002781
    11  C   -0.023593
    12  C    0.039071
    13  C    0.182450
    14  O   -0.256131
    15  O   -0.318270
    16  N   -0.121358
    17  C    0.045319
    18  C   -0.179890
    19  C    0.057516
    20  C    0.079571
    21  C    0.078597
    22  C   -0.089738
    23  C   -0.081402
    24  N   -0.194439
    25  C    0.100515
    26  C   -0.084885
    27  C   -0.116287
    28  C    0.058083
    29  C   -0.047048
    30  C    0.120328
    31  C    0.053776
    32  N   -0.004469
    33  C    0.078582
    34  C   -0.102583
    35  C    0.034010
    36  C    0.013611
    37  C    0.056963
    38  C    0.056090
    39  O   -0.207958
    40  C   -0.102015
    41  C    0.165133
    42  O   -0.219681
    43  O   -0.267606
    44  C    0.175928
    45  C    0.237467
    46  C   -0.108403
    47  C   -0.146971
    48  C    0.062590
    49  C    0.123414
    50  C   -0.003854
    51  C    0.028735
    52  C   -0.067839
    53  C    0.015376
    54  C    0.006069
    55  C    0.071930
    56  C   -0.037299
    57  C   -0.073156
    58  C    0.000390
    59  C    0.081222
    60  C    0.024918
    61  C    0.046068
    62  C   -0.144494
    63  C    0.012110
    64  C    0.011424
    65  H   -0.085876
    66  H   -0.020172
    67  H   -0.001260
    68  H   -0.023990
    69  H    0.028197
    70  H    0.007526
    71  H    0.032688
    72  H    0.041509
    73  H    0.051864
    74  H    0.023279
    75  H    0.037125
    76  H    0.033498
    77  H    0.060416
    78  H    0.013876
    79  H    0.023911
    80  H    0.034071
    81  H    0.062798
    82  H    0.029671
    83  H    0.058497
    84  H    0.026943
    85  H    0.030648
    86  H   -0.018424
    87  H   -0.006485
    88  H    0.002023
    89  H   -0.021814
    90  H    0.010767
    91  H    0.068611
    92  H    0.029771
    93  H    0.046965
    94  H    0.062766
    95  H    0.010164
    96  H    0.069909
    97  H    0.037475
    98  H    0.013149
    99  H    0.019741
   100  H    0.002578
   101  H    0.003398
   102  H    0.029498
   103  H    0.043716
   104  H   -0.009162
   105  H   -0.014522
   106  H    0.030680
   107  H    0.005579
   108  H   -0.013659
   109  H   -0.011386
   110  H   -0.003497
   111  H    0.020090
   112  H    0.027983
   113  H   -0.017206
   114  H   -0.035040
   115  H   -0.011836
   116  H   -0.027582
   117  H    0.002949
   118  H   -0.007443
   119  H   -0.020483
   120  H    0.003271
   121  H    0.014523
   122  H    0.029425
   123  H    0.001830
   124  H   -0.004374
   125  H   -0.007151
   126  H   -0.004674
   127  H   -0.011171
   128  H   -0.030608
   129  H   -0.041754
   130  H    0.005529
   131  H    0.018387
   132  H    0.015381
   133  H    0.027190
   134  H    0.054874
   135  H   -0.003426
   136  H    0.007023
   137  H    0.144084
   138  H    0.185873
 Sum of Mulliken charges =  -0.00000

 Dipole moment (field-independent basis, Debye):
    X=              2.1097    Y=              3.8721    Z=              1.7916  Tot=              4.7596
 Quadrupole moment (field-independent basis, Debye-Ang):
   XX=           -382.3918   YY=           -381.6006   ZZ=           -394.8183
   XY=            -23.4779   XZ=             11.3761   YZ=             -1.0056

 Normal termination of Gaussian 16 at Sat Aug 17 18:02:15 2019.
