 Gaussian 16, Revision A.03,
 Gaussian 16:  ES64L-G16RevA.03 25-Dec-2016

 --------------------------
 # td=(NStates=1) B3LYP/SVP
 --------------------------

 --
 TD
 --
 Symbolic Z-matrix:
 Charge =  0 Multiplicity = 1

                         Standard orientation:
 ---------------------------------------------------------------------
 Center     Atomic      Atomic             Coordinates (Angstroms)
 Number     Number       Type             X           Y           Z
 ---------------------------------------------------------------------
      1          6           0       -5.119379   -2.010881    0.389640
      2          6           0       -4.644963    2.679304    1.402022
      3          6           0       -9.195581    3.525030   -0.205225
      4          6           0       -9.888445   -1.317190   -0.928535
      5          7           0       -5.124762    0.359024    0.896236
      6          6           0       -4.517326   -0.844188    0.819711
      7          6           0       -3.030805   -0.618077    1.327967
      8          6           0       -2.975321    0.775979    1.933358
      9          6           0       -4.299585    1.276694    1.348075
     10          6           0       -2.934533    0.717053    3.455348
     11          6           0       -2.045363   -1.009060    0.232543
     12          6           0       -0.596551   -0.971899    0.555542
     13          6           0        0.357592   -1.206383   -0.558835
     14          8           0        0.111686   -1.591121   -1.665207
     15          8           0        1.679159   -0.944473   -0.215946
     16          7           0       -6.885572    2.680071    0.469664
     17          6           0       -5.758960    3.321223    0.994294
     18          6           0       -6.019495    4.812364    1.102398
     19          6           0       -7.246562    5.022923    0.560266
     20          6           0       -7.844490    3.702110    0.187429
     21          6           0       -4.971347    5.748827    1.533920
     22          6           0       -7.868209    6.261362    0.429743
     23          6           0       -8.782693    6.833469   -0.502457
     24          7           0       -9.113103    1.046845   -0.484815
     25          6           0       -9.742776    2.166581   -0.596688
     26          6           0      -11.232205    2.064041   -0.917567
     27          6           0      -11.408059    0.755863   -1.117799
     28          6           0      -10.107086    0.039676   -0.854966
     29          6           0      -12.095430    3.181440   -1.065247
     30          6           0      -12.653823    0.017268   -1.530439
     31          6           0      -12.740198   -0.239114   -3.067541
     32          7           0       -7.490434   -1.243809   -0.234053
     33          6           0       -8.656325   -1.919083   -0.692134
     34          6           0       -8.240173   -3.433800   -0.676389
     35          6           0       -6.960665   -3.415304   -0.236306
     36          6           0       -6.437994   -2.046980   -0.062829
     37          6           0       -9.121143   -4.643730   -1.058123
     38          6           0       -5.899751   -4.292635    0.115182
     39          8           0       -5.966483   -5.497305   -0.082364
     40          6           0       -4.605288   -3.433565    0.434589
     41          6           0       -3.996488   -3.908018    1.679571
     42          8           0       -4.251165   -3.517693    2.854090
     43          8           0       -3.180509   -4.902104    1.336969
     44          6           0       -2.677457   -5.669577    2.446179
     45          6           0        2.637927   -1.160656   -1.163498
     46          6           0        3.925131   -0.688508   -0.497955
     47          6           0        4.848170   -0.010343   -1.188029
     48          6           0        4.818052    0.567019   -2.666689
     49          6           0        6.144717    0.244336   -0.514996
     50          6           0        7.473298   -0.332302   -1.095631
     51          6           0        8.729082    0.002073   -0.344699
     52          6           0       10.014135   -0.646525   -0.848940
     53          6           0       10.119862   -2.203201   -0.842315
     54          6           0       11.222373   -0.022699   -0.138311
     55          6           0       12.564648   -0.603638   -0.526363
     56          6           0       13.718996    0.138030    0.139043
     57          6           0       15.186951   -0.083199   -0.361161
     58          6           0       15.550433   -1.613321   -0.290690
     59          6           0       16.074964    0.903022    0.411819
     60          6           0       17.514072    0.743601   -0.131792
     61          6           0       18.503497    1.645490    0.613524
     62          6           0       19.964553    1.562039    0.225180
     63          6           0       20.189340    1.983281   -1.285146
     64          6           0       20.899355    2.236574    1.230957
     65          1           0       -3.900157    3.429602    1.709662
     66          1           0      -10.028004    4.173739   -0.081840
     67          1           0      -10.629248   -1.814194   -1.338518
     68          1           0       -2.920458   -1.356279    2.279670
     69          1           0       -2.084566    1.406243    1.640087
     70          1           0       -2.045123    0.248366    3.798669
     71          1           0       -3.082828    1.681443    3.957038
     72          1           0       -3.770343    0.047703    3.982139
     73          1           0       -2.171928   -1.986014   -0.002245
     74          1           0       -2.162493   -0.560404   -0.864228
     75          1           0       -0.185556    0.043015    0.956769
     76          1           0       -0.340824   -1.482035    1.535022
     77          1           0       -4.016471    5.564102    0.999919
     78          1           0       -5.249148    6.884342    1.072428
     79          1           0       -4.641092    5.636155    2.656924
     80          1           0       -7.531679    7.014121    1.169685
     81          1           0       -9.267359    6.268983   -1.249863
     82          1           0       -8.896812    8.011945   -0.301018
     83          1           0      -11.979655    3.774681   -0.148085
     84          1           0      -11.863331    3.754186   -1.933780
     85          1           0      -13.166444    3.189004   -1.339471
     86          1           0      -13.128771   -0.952744   -0.940414
     87          1           0      -13.518030    0.806999   -1.445034
     88          1           0      -12.903994    0.868399   -3.388691
     89          1           0      -11.838187   -0.683391   -3.521095
     90          1           0      -13.519098   -0.650805   -3.349546
     91          1           0       -9.886373   -4.707516   -0.389998
     92          1           0       -9.738052   -4.751065   -1.941838
     93          1           0       -8.372571   -5.548549   -1.020752
     94          1           0       -3.820656   -3.609618   -0.333511
     95          1           0       -1.837464   -6.375070    2.085145
     96          1           0       -2.021006   -4.874300    2.880744
     97          1           0       -3.451851   -6.201999    2.942449
     98          1           0        2.454981   -2.100008   -1.548676
     99          1           0        2.525054   -0.425781   -2.051881
    100          1           0        4.172159   -1.149399    0.618556
    101          1           0        5.331767    1.530255   -2.812407
    102          1           0        5.304521   -0.259498   -3.425489
    103          1           0        3.747893    0.749233   -2.937978
    104          1           0        6.207597    1.214896   -0.185694
    105          1           0        6.028336   -0.175163    0.425408
    106          1           0        7.224155   -1.519941   -1.217379
    107          1           0        7.615351    0.229120   -2.132971
    108          1           0        8.988777    1.039812   -0.146437
    109          1           0        8.634517   -0.365871    0.744331
    110          1           0       10.202646   -0.301239   -1.923815
    111          1           0        9.230628   -2.623686   -1.345862
    112          1           0       10.857265   -2.717264   -1.399079
    113          1           0       10.072759   -2.507867    0.137657
    114          1           0       11.149592    1.190597   -0.310095
    115          1           0       11.143922   -0.279538    0.975898
    116          1           0       12.946958   -1.616499   -0.279437
    117          1           0       13.005008   -0.434905   -1.505354
    118          1           0       13.617229    1.134309   -0.087862
    119          1           0       13.759621    0.028580    1.348851
    120          1           0       15.252850    0.036006   -1.460520
    121          1           0       15.133226   -2.264865   -1.029619
    122          1           0       16.548795   -1.971382   -0.487540
    123          1           0       15.460030   -2.049326    0.697947
    124          1           0       15.733100    1.916153    0.201087
    125          1           0       16.008720    0.676279    1.528004
    126          1           0       17.888289   -0.366015   -0.031129
    127          1           0       17.264428    1.005350   -1.172670
    128          1           0       18.138715    2.736371    0.660254
    129          1           0       18.359011    1.494752    1.918998
    130          1           0       20.276422    0.370118    0.200201
    131          1           0       20.166693    3.199001   -1.404155
    132          1           0       21.290233    1.656437   -1.621850
    133          1           0       19.455612    1.454610   -2.032611
    134          1           0       20.830702    1.655737    2.163982
    135          1           0       22.005367    2.190414    0.913150
    136          1           0       20.686608    3.112093    1.591438
    137          1           0       -6.987915    1.646550    0.498519
    138          1           0       -7.462518   -0.157618   -0.105798
 ---------------------------------------------------------------------

 SCF Done:  E(RB3LYP) =  -2733.07129703     A.U. after   17 cycles

 Excitation energies and oscillator strengths:

 Excited State   1:      Singlet-A      2.0692 eV  599.18 nm  f=0.1784  <S**2>=0.000
     235 -> 238        0.28406
     236 -> 237        0.64293
 This state for optimization and/or second-order correction.
 Total Energy, E(TD-HF/TD-DFT) =  -2732.99525442
 Copying the excited state density for this state as the 1-particle RhoCI density.

 The electronic state is 1-A.
 Alpha  occ. eigenvalues --  -19.18664 -19.16295 -19.12883 -19.12105 -19.11814
 Alpha  occ. eigenvalues --  -14.38063 -14.37302 -14.32630 -14.30718 -10.31719
 Alpha  occ. eigenvalues --  -10.31642 -10.27320 -10.25302 -10.25098 -10.24061
 Alpha  occ. eigenvalues --  -10.24019 -10.23723 -10.23483 -10.23291 -10.23198
 Alpha  occ. eigenvalues --  -10.22397 -10.22229 -10.21985 -10.21497 -10.21378
 Alpha  occ. eigenvalues --  -10.21378 -10.21349 -10.21275 -10.21236 -10.20968
 Alpha  occ. eigenvalues --  -10.20950 -10.20831 -10.20830 -10.20822 -10.20572
 Alpha  occ. eigenvalues --  -10.20520 -10.20516 -10.20421 -10.20181 -10.20061
 Alpha  occ. eigenvalues --  -10.19975 -10.19859 -10.19682 -10.19619 -10.19376
 Alpha  occ. eigenvalues --  -10.19318 -10.19291 -10.19103 -10.19099 -10.19032
 Alpha  occ. eigenvalues --  -10.18828 -10.18827 -10.18766 -10.18733 -10.18461
 Alpha  occ. eigenvalues --  -10.18461 -10.18183 -10.17560 -10.17537 -10.17336
 Alpha  occ. eigenvalues --  -10.17060 -10.17017 -10.16740 -10.16675  -1.09927
 Alpha  occ. eigenvalues --   -1.09825  -1.02113  -1.01433  -0.98591  -0.97296
 Alpha  occ. eigenvalues --   -0.96337  -0.95317  -0.92906  -0.85093  -0.82820
 Alpha  occ. eigenvalues --   -0.82399  -0.82058  -0.81625  -0.80613  -0.80554
 Alpha  occ. eigenvalues --   -0.80149  -0.79421  -0.79268  -0.79104  -0.78388
 Alpha  occ. eigenvalues --   -0.76788  -0.76390  -0.75807  -0.74966  -0.74726
 Alpha  occ. eigenvalues --   -0.73725  -0.72979  -0.72353  -0.71494  -0.70664
 Alpha  occ. eigenvalues --   -0.69879  -0.69810  -0.69143  -0.68374  -0.68057
 Alpha  occ. eigenvalues --   -0.67747  -0.67226  -0.66221  -0.65448  -0.65115
 Alpha  occ. eigenvalues --   -0.64010  -0.63403  -0.62574  -0.62227  -0.61542
 Alpha  occ. eigenvalues --   -0.61409  -0.58932  -0.58482  -0.57991  -0.57095
 Alpha  occ. eigenvalues --   -0.56230  -0.55922  -0.55719  -0.55492  -0.55376
 Alpha  occ. eigenvalues --   -0.55299  -0.54697  -0.53666  -0.53461  -0.53150
 Alpha  occ. eigenvalues --   -0.52679  -0.51912  -0.51450  -0.50936  -0.50591
 Alpha  occ. eigenvalues --   -0.50088  -0.50022  -0.49255  -0.48958  -0.48645
 Alpha  occ. eigenvalues --   -0.48409  -0.47767  -0.47639  -0.47323  -0.47070
 Alpha  occ. eigenvalues --   -0.46793  -0.46731  -0.46089  -0.46039  -0.45652
 Alpha  occ. eigenvalues --   -0.45450  -0.45297  -0.44800  -0.44707  -0.44518
 Alpha  occ. eigenvalues --   -0.44312  -0.44251  -0.44240  -0.44019  -0.43921
 Alpha  occ. eigenvalues --   -0.43541  -0.43347  -0.42948  -0.42672  -0.42594
 Alpha  occ. eigenvalues --   -0.42311  -0.42184  -0.41848  -0.41603  -0.41572
 Alpha  occ. eigenvalues --   -0.41300  -0.40889  -0.40553  -0.40533  -0.40287
 Alpha  occ. eigenvalues --   -0.40187  -0.40107  -0.39699  -0.39533  -0.39416
 Alpha  occ. eigenvalues --   -0.39259  -0.38825  -0.38722  -0.38555  -0.38301
 Alpha  occ. eigenvalues --   -0.38119  -0.38063  -0.37922  -0.37797  -0.37568
 Alpha  occ. eigenvalues --   -0.37494  -0.37270  -0.37095  -0.36805  -0.36564
 Alpha  occ. eigenvalues --   -0.36496  -0.36281  -0.35794  -0.35716  -0.35444
 Alpha  occ. eigenvalues --   -0.35134  -0.35031  -0.34859  -0.34766  -0.34652
 Alpha  occ. eigenvalues --   -0.34445  -0.34312  -0.34161  -0.33618  -0.33371
 Alpha  occ. eigenvalues --   -0.33169  -0.32915  -0.32629  -0.32474  -0.32149
 Alpha  occ. eigenvalues --   -0.31910  -0.31755  -0.31664  -0.31445  -0.31333
 Alpha  occ. eigenvalues --   -0.31022  -0.30884  -0.30348  -0.30323  -0.29920
 Alpha  occ. eigenvalues --   -0.29229  -0.29080  -0.28632  -0.28447  -0.27967
 Alpha  occ. eigenvalues --   -0.27623  -0.27393  -0.26793  -0.26454  -0.26102
 Alpha  occ. eigenvalues --   -0.24891  -0.24578  -0.23879  -0.23559  -0.20171
 Alpha  occ. eigenvalues --   -0.18207
 Alpha virt. eigenvalues --   -0.09438  -0.07978  -0.04918  -0.02912  -0.00857
 Alpha virt. eigenvalues --   -0.00408   0.00033   0.00545   0.01757   0.03477
 Alpha virt. eigenvalues --    0.03695   0.03781   0.03950   0.04296   0.05035

 Mulliken charges:
               1
     1  C    0.028436
     2  C   -0.054093
     3  C   -0.089946
     4  C    0.005117
     5  N   -0.142515
     6  C   -0.069704
     7  C   -0.075587
     8  C   -0.021745
     9  C   -0.000683
    10  C    0.036180
    11  C    0.133378
    12  C   -0.023624
    13  C    0.172412
    14  O   -0.213711
    15  O   -0.323744
    16  N   -0.124427
    17  C    0.083418
    18  C   -0.076092
    19  C    0.106108
    20  C    0.196383
    21  C    0.003826
    22  C   -0.155211
    23  C   -0.031559
    24  N   -0.229722
    25  C   -0.023852
    26  C   -0.102613
    27  C   -0.027155
    28  C    0.046363
    29  C    0.081918
    30  C   -0.064913
    31  C    0.093917
    32  N   -0.084381
    33  C    0.094784
    34  C   -0.134864
    35  C    0.024890
    36  C    0.058272
    37  C    0.096370
    38  C    0.046306
    39  O   -0.186808
    40  C    0.000594
    41  C    0.197345
    42  O   -0.277642
    43  O   -0.297346
    44  C    0.186818
    45  C    0.282785
    46  C   -0.120942
    47  C   -0.141083
    48  C    0.020241
    49  C    0.159859
    50  C   -0.008815
    51  C    0.051531
    52  C   -0.084893
    53  C    0.102732
    54  C   -0.008583
    55  C    0.087806
    56  C   -0.007221
    57  C   -0.100818
    58  C    0.028644
    59  C    0.036400
    60  C    0.019659
    61  C   -0.033717
    62  C   -0.088353
    63  C   -0.066445
    64  C    0.107138
    65  H   -0.042826
    66  H   -0.026522
    67  H   -0.086842
    68  H    0.042778
    69  H    0.010983
    70  H    0.007342
    71  H    0.010131
    72  H    0.037748
    73  H   -0.034143
    74  H    0.031569
    75  H    0.027952
    76  H    0.031839
    77  H    0.036668
    78  H    0.049438
    79  H    0.053364
    80  H    0.009920
    81  H    0.016402
    82  H    0.052677
    83  H    0.035053
    84  H    0.012467
    85  H    0.000835
    86  H    0.035053
    87  H    0.002979
    88  H    0.002416
    89  H    0.025225
    90  H   -0.058029
    91  H   -0.005601
    92  H    0.012820
    93  H    0.064551
    94  H    0.069306
    95  H    0.034149
    96  H    0.031453
    97  H    0.054991
    98  H   -0.005686
    99  H   -0.000743
   100  H    0.034421
   101  H    0.026669
   102  H    0.058796
   103  H    0.021992
   104  H   -0.032710
   105  H   -0.061541
   106  H    0.035754
   107  H    0.009422
   108  H   -0.015858
   109  H   -0.019315
   110  H   -0.014054
   111  H   -0.014504
   112  H    0.004704
   113  H   -0.020451
   114  H    0.021047
   115  H    0.002191
   116  H    0.007033
   117  H   -0.027655
   118  H   -0.044547
   119  H   -0.002070
   120  H   -0.008076
   121  H   -0.002025
   122  H   -0.021294
   123  H   -0.006211
   124  H   -0.002372
   125  H    0.006175
   126  H    0.025320
   127  H    0.004602
   128  H   -0.002988
   129  H   -0.005437
   130  H    0.007750
   131  H    0.025442
   132  H    0.024432
   133  H    0.037682
   134  H   -0.006159
   135  H    0.014067
   136  H   -0.040435
   137  H    0.157232
   138  H    0.186425
 Sum of Mulliken charges =  -0.00000

 Dipole moment (field-independent basis, Debye):
    X=              1.6439    Y=              4.3155    Z=              0.6166  Tot=              4.6590
 Quadrupole moment (field-independent basis, Debye-Ang):
   XX=           -360.1094   YY=           -377.7212   ZZ=           -397.8215
   XY=            -28.4766   XZ=             10.0012   YZ=             -0.4872

 Normal termination of Gaussian 16 at Fri Aug 16 23:29:51 2019.
