 Gaussian 16, Revision A.03,
 Gaussian 16:  ES64L-G16RevA.03 25-Dec-2016

 --------------------------
 # td=(NStates=1) B3LYP/SVP
 --------------------------

 --
 TD
 --
 Symbolic Z-matrix:
 Charge =  0 Multiplicity = 1

                         Standard orientation:
 ---------------------------------------------------------------------
 Center     Atomic      Atomic             Coordinates (Angstroms)
 Number     Number       Type             X           Y           Z
 ---------------------------------------------------------------------
      1          6           0       -5.152657   -1.982443    0.351676
      2          6           0       -4.664090    2.748142    1.443783
      3          6           0       -9.251092    3.315527   -0.093613
      4          6           0       -9.837094   -1.433866   -1.069533
      5          7           0       -5.210169    0.373086    0.787787
      6          6           0       -4.482911   -0.795592    0.770083
      7          6           0       -3.083586   -0.602079    1.274787
      8          6           0       -3.086122    0.778374    1.915784
      9          6           0       -4.438845    1.334015    1.385134
     10          6           0       -2.894203    0.747755    3.403377
     11          6           0       -2.054294   -0.806035    0.081137
     12          6           0       -0.624168   -0.878870    0.553886
     13          6           0        0.400927   -1.065593   -0.485393
     14          8           0        0.146132   -1.656189   -1.564619
     15          8           0        1.600424   -0.665496   -0.079867
     16          7           0       -7.004776    2.724840    0.619241
     17          6           0       -5.889258    3.391252    1.070216
     18          6           0       -6.144504    4.781096    1.101677
     19          6           0       -7.426466    4.963347    0.513967
     20          6           0       -7.862375    3.591521    0.238849
     21          6           0       -4.990656    5.817972    1.512670
     22          6           0       -7.948050    6.278033    0.309078
     23          6           0       -8.786474    6.746343   -0.606983
     24          7           0       -9.297261    0.854465   -0.399850
     25          6           0       -9.825800    2.051815   -0.466534
     26          6           0      -11.187831    1.992634   -0.872247
     27          6           0      -11.429170    0.639408   -1.284651
     28          6           0      -10.139051   -0.016190   -0.944690
     29          6           0      -12.255534    3.055190   -0.991155
     30          6           0      -12.674605   -0.073074   -1.739766
     31          6           0      -12.601575   -0.326856   -3.275724
     32          7           0       -7.523455   -1.246354   -0.272438
     33          6           0       -8.618424   -1.954419   -0.693093
     34          6           0       -8.224542   -3.378608   -0.794187
     35          6           0       -6.861562   -3.348999   -0.469178
     36          6           0       -6.466482   -2.002239   -0.084818
     37          6           0       -9.040155   -4.475414   -1.237973
     38          6           0       -5.802903   -4.324531   -0.106968
     39          8           0       -5.729295   -5.552231   -0.299451
     40          6           0       -4.625928   -3.437528    0.355809
     41          6           0       -4.115912   -3.874107    1.716079
     42          8           0       -4.407671   -3.394252    2.739935
     43          8           0       -3.330646   -4.938721    1.613637
     44          6           0       -3.001624   -5.492958    2.799726
     45          6           0        2.733412   -0.884871   -0.974327
     46          6           0        4.049495   -0.608643   -0.346031
     47          6           0        4.949343    0.174282   -0.890636
     48          6           0        4.943989    1.058662   -2.183859
     49          6           0        6.343684    0.297809   -0.204476
     50          6           0        7.650783   -0.377100   -0.880444
     51          6           0        8.801395   -0.256170   -0.055502
     52          6           0       10.087412   -0.765086   -0.747727
     53          6           0       10.027683   -2.235386   -1.095623
     54          6           0       11.224096   -0.264240    0.089646
     55          6           0       12.683711   -0.696711   -0.445834
     56          6           0       13.842935    0.068225    0.256785
     57          6           0       15.232037   -0.128322   -0.272432
     58          6           0       15.573180   -1.663767   -0.311845
     59          6           0       16.253686    0.556000    0.520152
     60          6           0       17.664119    0.522577   -0.085519
     61          6           0       18.614654    1.666679    0.546353
     62          6           0       20.081937    1.549821   -0.107705
     63          6           0       20.136425    1.965662   -1.632552
     64          6           0       21.021334    2.493052    0.665440
     65          1           0       -3.786008    3.377891    1.586069
     66          1           0       -9.837859    4.226274   -0.180618
     67          1           0      -10.659213   -2.169968   -1.469427
     68          1           0       -2.758742   -1.372615    2.075115
     69          1           0       -2.299562    1.319164    1.344356
     70          1           0       -1.848344    0.195877    3.563407
     71          1           0       -2.999296    1.861382    3.634825
     72          1           0       -3.769607    0.282971    3.862005
     73          1           0       -2.277023   -1.906760   -0.223685
     74          1           0       -2.395754    0.038642   -0.647193
     75          1           0       -0.401536    0.032105    0.904139
     76          1           0       -0.459279   -1.675663    1.162195
     77          1           0       -4.038196    5.642363    1.068832
     78          1           0       -5.562041    6.713655    1.492629
     79          1           0       -4.796254    5.781606    2.634634
     80          1           0       -7.746719    7.066721    1.026852
     81          1           0       -9.555430    6.248030   -1.355957
     82          1           0       -8.875258    7.915318   -0.481432
     83          1           0      -12.353072    3.466431   -0.130216
     84          1           0      -11.744287    3.670364   -1.832176
     85          1           0      -13.286737    2.668516   -1.375348
     86          1           0      -12.815374   -1.052074   -1.331025
     87          1           0      -13.617233    0.601278   -1.632156
     88          1           0      -12.544958    0.748930   -3.615753
     89          1           0      -11.644031   -0.773133   -3.698734
     90          1           0      -13.527774   -0.820384   -3.678535
     91          1           0      -10.085259   -4.328860   -0.613857
     92          1           0       -9.036112   -4.760155   -2.339192
     93          1           0       -8.685430   -5.315921   -0.855911
     94          1           0       -3.734369   -3.703441   -0.381806
     95          1           0       -2.192993   -6.387387    2.531555
     96          1           0       -2.492504   -4.686762    3.399705
     97          1           0       -3.966750   -6.141143    3.120991
     98          1           0        2.505098   -1.756781   -1.270240
     99          1           0        2.401472   -0.274936   -1.908360
    100          1           0        4.293731   -1.203630    0.669503
    101          1           0        5.263744    2.043772   -1.951471
    102          1           0        5.480237    0.538938   -2.851553
    103          1           0        3.951805    1.009203   -2.504824
    104          1           0        6.406454    1.314321    0.051072
    105          1           0        6.286902   -0.003939    0.866446
    106          1           0        7.314168   -1.411674   -0.854010
    107          1           0        7.599945    0.045677   -1.913692
    108          1           0        8.848726    0.776208    0.472330
    109          1           0        8.402644   -1.076751    0.766898
    110          1           0       10.418389   -0.411043   -1.875180
    111          1           0        9.253872   -2.434761   -1.585314
    112          1           0       10.796775   -2.782386   -2.010807
    113          1           0       10.081783   -2.833458   -0.263795
    114          1           0       11.236216    0.876329    0.387913
    115          1           0       11.104342   -0.529300    1.255982
    116          1           0       12.741584   -1.827712   -0.209134
    117          1           0       12.542423   -0.550975   -1.553145
    118          1           0       13.772516    1.153975    0.292680
    119          1           0       13.877067   -0.061529    1.401110
    120          1           0       15.331919    0.179522   -1.456253
    121          1           0       14.768728   -2.424058   -0.667730
    122          1           0       16.465661   -1.772235   -0.804591
    123          1           0       15.636858   -1.918717    0.705801
    124          1           0       15.910644    1.658557    0.660374
    125          1           0       16.240995    0.290191    1.552728
    126          1           0       17.987696   -0.555963    0.186931
    127          1           0       17.588674    0.530402   -1.146233
    128          1           0       18.317421    2.621789    0.448247
    129          1           0       18.671302    1.231720    1.663692
    130          1           0       20.379445    0.525377   -0.117122
    131          1           0       19.666077    2.925906   -1.837868
    132          1           0       21.260547    1.916077   -1.692478
    133          1           0       19.672482    1.347500   -2.223647
    134          1           0       20.953672    2.571225    1.815915
    135          1           0       22.042993    2.309755    0.309222
    136          1           0       20.801438    3.683821    0.590492
    137          1           0       -6.724962    1.759095    0.293842
    138          1           0       -7.710133   -0.142909   -0.228759
 ---------------------------------------------------------------------

 SCF Done:  E(RB3LYP) =  -2733.00745559     A.U. after   17 cycles

 Excitation energies and oscillator strengths:

 Excited State   1:      Singlet-A      2.0212 eV  613.41 nm  f=0.1399  <S**2>=0.000
     235 -> 237       -0.11508
     235 -> 238       -0.31143
     236 -> 237        0.61480
 This state for optimization and/or second-order correction.
 Total Energy, E(TD-HF/TD-DFT) =  -2732.93317678
 Copying the excited state density for this state as the 1-particle RhoCI density.

 The electronic state is 1-A.
 Alpha  occ. eigenvalues --  -19.17992 -19.17539 -19.12419 -19.12181 -19.11464
 Alpha  occ. eigenvalues --  -14.37266 -14.37109 -14.33187 -14.29525 -10.31114
 Alpha  occ. eigenvalues --  -10.31051 -10.27995 -10.25904 -10.24253 -10.23870
 Alpha  occ. eigenvalues --  -10.23672 -10.23540 -10.23329 -10.23206 -10.22978
 Alpha  occ. eigenvalues --  -10.21924 -10.21466 -10.21424 -10.21079 -10.21043
 Alpha  occ. eigenvalues --  -10.21012 -10.20930 -10.20845 -10.20806 -10.20798
 Alpha  occ. eigenvalues --  -10.20707 -10.20532 -10.20515 -10.20479 -10.20444
 Alpha  occ. eigenvalues --  -10.20351 -10.20318 -10.20177 -10.20031 -10.19920
 Alpha  occ. eigenvalues --  -10.19770 -10.19649 -10.19584 -10.19574 -10.19570
 Alpha  occ. eigenvalues --  -10.19252 -10.19193 -10.19085 -10.19076 -10.19052
 Alpha  occ. eigenvalues --  -10.18851 -10.18792 -10.18775 -10.18688 -10.18566
 Alpha  occ. eigenvalues --  -10.18564 -10.18562 -10.18359 -10.18330 -10.18195
 Alpha  occ. eigenvalues --  -10.17990 -10.17593 -10.16929 -10.16503  -1.12774
 Alpha  occ. eigenvalues --   -1.09278  -1.03203  -1.00930  -1.00740  -0.99019
 Alpha  occ. eigenvalues --   -0.98486  -0.94992  -0.94116  -0.84668  -0.83435
 Alpha  occ. eigenvalues --   -0.82467  -0.82051  -0.81955  -0.81485  -0.80985
 Alpha  occ. eigenvalues --   -0.79956  -0.79094  -0.78986  -0.78789  -0.78428
 Alpha  occ. eigenvalues --   -0.77164  -0.76408  -0.76033  -0.75099  -0.74465
 Alpha  occ. eigenvalues --   -0.74057  -0.73631  -0.72458  -0.71580  -0.71100
 Alpha  occ. eigenvalues --   -0.70615  -0.69716  -0.68904  -0.68711  -0.68088
 Alpha  occ. eigenvalues --   -0.67508  -0.67472  -0.66733  -0.66006  -0.65379
 Alpha  occ. eigenvalues --   -0.64112  -0.63177  -0.62766  -0.61941  -0.61699
 Alpha  occ. eigenvalues --   -0.60571  -0.58929  -0.58495  -0.57601  -0.56996
 Alpha  occ. eigenvalues --   -0.56789  -0.56294  -0.56139  -0.55586  -0.55490
 Alpha  occ. eigenvalues --   -0.54955  -0.54710  -0.54381  -0.53813  -0.53119
 Alpha  occ. eigenvalues --   -0.52814  -0.52478  -0.51694  -0.51612  -0.51361
 Alpha  occ. eigenvalues --   -0.50482  -0.49405  -0.49140  -0.49044  -0.48677
 Alpha  occ. eigenvalues --   -0.48234  -0.48046  -0.47759  -0.47397  -0.47182
 Alpha  occ. eigenvalues --   -0.46956  -0.46477  -0.46433  -0.46145  -0.45831
 Alpha  occ. eigenvalues --   -0.45611  -0.45428  -0.45339  -0.45065  -0.44966
 Alpha  occ. eigenvalues --   -0.44873  -0.44384  -0.44356  -0.44183  -0.44074
 Alpha  occ. eigenvalues --   -0.43787  -0.43665  -0.43569  -0.43468  -0.43228
 Alpha  occ. eigenvalues --   -0.43071  -0.42794  -0.42404  -0.42212  -0.41929
 Alpha  occ. eigenvalues --   -0.41613  -0.41556  -0.41274  -0.40981  -0.40649
 Alpha  occ. eigenvalues --   -0.40521  -0.40072  -0.39844  -0.39645  -0.39587
 Alpha  occ. eigenvalues --   -0.39443  -0.39315  -0.39204  -0.39104  -0.38895
 Alpha  occ. eigenvalues --   -0.38683  -0.38306  -0.38240  -0.38055  -0.37523
 Alpha  occ. eigenvalues --   -0.37251  -0.36945  -0.36779  -0.36633  -0.36420
 Alpha  occ. eigenvalues --   -0.36230  -0.36186  -0.35989  -0.35607  -0.35415
 Alpha  occ. eigenvalues --   -0.35256  -0.35142  -0.35059  -0.34922  -0.34559
 Alpha  occ. eigenvalues --   -0.34446  -0.33981  -0.33765  -0.33588  -0.33545
 Alpha  occ. eigenvalues --   -0.33389  -0.33285  -0.32950  -0.32780  -0.32422
 Alpha  occ. eigenvalues --   -0.32118  -0.31714  -0.31680  -0.31304  -0.30954
 Alpha  occ. eigenvalues --   -0.30680  -0.30537  -0.30417  -0.30313  -0.30059
 Alpha  occ. eigenvalues --   -0.28960  -0.28659  -0.28611  -0.28408  -0.28221
 Alpha  occ. eigenvalues --   -0.27983  -0.27387  -0.26518  -0.26156  -0.26068
 Alpha  occ. eigenvalues --   -0.26009  -0.24915  -0.24374  -0.21681  -0.19768
 Alpha  occ. eigenvalues --   -0.18780
 Alpha virt. eigenvalues --   -0.10140  -0.08090  -0.04922  -0.01910  -0.00326
 Alpha virt. eigenvalues --   -0.00016   0.00201   0.01014   0.02045   0.03424
 Alpha virt. eigenvalues --    0.03597   0.03617   0.03986   0.04481   0.04679

 Mulliken charges:
               1
     1  C   -0.025779
     2  C   -0.062177
     3  C   -0.088780
     4  C   -0.112680
     5  N   -0.211518
     6  C   -0.024362
     7  C   -0.104742
     8  C   -0.031489
     9  C   -0.018107
    10  C    0.095591
    11  C   -0.018973
    12  C    0.225839
    13  C    0.130400
    14  O   -0.289876
    15  O   -0.319469
    16  N    0.024801
    17  C    0.036542
    18  C   -0.165293
    19  C    0.052747
    20  C    0.021842
    21  C    0.149424
    22  C   -0.066424
    23  C   -0.109573
    24  N   -0.180025
    25  C    0.075385
    26  C   -0.201824
    27  C   -0.090649
    28  C    0.020632
    29  C    0.143556
    30  C    0.084951
    31  C   -0.054282
    32  N   -0.024716
    33  C    0.071111
    34  C   -0.136401
    35  C   -0.065610
    36  C    0.131548
    37  C    0.131907
    38  C    0.105568
    39  O   -0.203161
    40  C   -0.074108
    41  C    0.146672
    42  O   -0.180907
    43  O   -0.238712
    44  C    0.092381
    45  C    0.331585
    46  C   -0.053851
    47  C   -0.203459
    48  C    0.225823
    49  C    0.018324
    50  C    0.064982
    51  C   -0.022111
    52  C   -0.048193
    53  C    0.095269
    54  C   -0.058426
    55  C    0.059648
    56  C    0.049940
    57  C   -0.111467
    58  C    0.052458
    59  C    0.024384
    60  C    0.009521
    61  C    0.050827
    62  C   -0.083845
    63  C    0.082163
    64  C   -0.015243
    65  H   -0.015623
    66  H   -0.026735
    67  H    0.024798
    68  H    0.009292
    69  H   -0.008605
    70  H    0.044528
    71  H    0.011341
    72  H    0.028483
    73  H    0.026858
    74  H    0.032631
    75  H   -0.031289
    76  H   -0.000460
    77  H    0.038854
    78  H   -0.007328
    79  H    0.013163
    80  H    0.019284
    81  H    0.056705
    82  H    0.030927
    83  H   -0.017103
    84  H    0.041054
    85  H    0.024240
    86  H   -0.000568
    87  H    0.010967
    88  H    0.005511
    89  H    0.029156
    90  H    0.021737
    91  H    0.037829
    92  H    0.055418
    93  H   -0.023794
    94  H    0.089165
    95  H    0.035495
    96  H    0.045032
    97  H    0.055222
    98  H   -0.063792
    99  H    0.022514
   100  H    0.030321
   101  H    0.021132
   102  H   -0.002493
   103  H   -0.026949
   104  H   -0.022693
   105  H   -0.034401
   106  H    0.005494
   107  H    0.003682
   108  H    0.025962
   109  H    0.019223
   110  H    0.015994
   111  H   -0.058268
   112  H    0.013855
   113  H   -0.011516
   114  H    0.000253
   115  H   -0.015042
   116  H    0.029647
   117  H    0.006261
   118  H   -0.026302
   119  H   -0.012460
   120  H    0.002553
   121  H    0.017377
   122  H   -0.009169
   123  H   -0.024055
   124  H   -0.019467
   125  H   -0.024959
   126  H    0.013660
   127  H   -0.013445
   128  H   -0.021761
   129  H    0.017385
   130  H   -0.012215
   131  H    0.003521
   132  H    0.014380
   133  H   -0.033865
   134  H    0.012167
   135  H    0.013826
   136  H    0.008709
   137  H    0.179123
   138  H    0.190040
 Sum of Mulliken charges =  -0.00000

 Dipole moment (field-independent basis, Debye):
    X=              3.2917    Y=              4.2524    Z=              0.7007  Tot=              5.4230
 Quadrupole moment (field-independent basis, Debye-Ang):
   XX=           -369.3814   YY=           -386.8406   ZZ=           -398.9299
   XY=            -20.3653   XZ=              8.5732   YZ=             -0.8840

 Normal termination of Gaussian 16 at Fri Aug  9 23:22:53 2019.
