 Gaussian 16, Revision A.03,
 Gaussian 16:  ES64L-G16RevA.03 25-Dec-2016

 --------------------------
 # td=(NStates=1) B3LYP/SVP
 --------------------------

 --
 TD
 --
 Symbolic Z-matrix:
 Charge =  0 Multiplicity = 1

                         Standard orientation:
 ---------------------------------------------------------------------
 Center     Atomic      Atomic             Coordinates (Angstroms)
 Number     Number       Type             X           Y           Z
 ---------------------------------------------------------------------
      1          6           0       -5.210287   -2.035814    0.513700
      2          6           0       -4.711824    2.736232    1.527973
      3          6           0       -9.133657    3.392625   -0.459852
      4          6           0       -9.735707   -1.351614   -1.165177
      5          7           0       -5.152418    0.393834    0.890554
      6          6           0       -4.536607   -0.867202    0.982454
      7          6           0       -3.085911   -0.633489    1.463433
      8          6           0       -3.149121    0.737486    2.155648
      9          6           0       -4.435074    1.312102    1.525772
     10          6           0       -3.206631    0.735141    3.711161
     11          6           0       -2.102194   -0.782125    0.211372
     12          6           0       -0.757688   -0.726233    0.673163
     13          6           0        0.263687   -0.975645   -0.432441
     14          8           0       -0.020554   -1.359492   -1.543855
     15          8           0        1.618989   -0.658590   -0.098637
     16          7           0       -7.015290    2.760056    0.507400
     17          6           0       -5.849392    3.374155    1.087611
     18          6           0       -6.024311    4.787581    1.042336
     19          6           0       -7.298278    4.956872    0.524453
     20          6           0       -7.849700    3.721585    0.100774
     21          6           0       -5.090801    5.834138    1.720088
     22          6           0       -7.842397    6.393248    0.410968
     23          6           0       -8.828696    6.775051   -0.445993
     24          7           0       -9.112455    1.017243   -0.643606
     25          6           0       -9.722141    2.235274   -0.688178
     26          6           0      -11.180251    2.034230   -1.061960
     27          6           0      -11.283607    0.661603   -1.345976
     28          6           0      -10.031585   -0.014793   -1.008699
     29          6           0      -12.257278    3.222449   -1.088517
     30          6           0      -12.550829   -0.018937   -1.825310
     31          6           0      -12.544338   -0.345805   -3.289629
     32          7           0       -7.457799   -1.229641   -0.219769
     33          6           0       -8.535575   -1.958523   -0.875401
     34          6           0       -8.183595   -3.317184   -0.898793
     35          6           0       -6.846313   -3.453649   -0.341150
     36          6           0       -6.509771   -2.120508   -0.010097
     37          6           0       -9.131510   -4.417409   -1.183574
     38          6           0       -5.751295   -4.359247   -0.040076
     39          8           0       -5.661580   -5.531978   -0.176579
     40          6           0       -4.533477   -3.458738    0.525433
     41          6           0       -4.032255   -3.978955    1.767033
     42          8           0       -4.173567   -3.455994    2.839030
     43          8           0       -3.325012   -5.079717    1.542485
     44          6           0       -2.802166   -5.718844    2.756976
     45          6           0        2.637245   -1.217025   -1.011473
     46          6           0        3.927984   -0.855889   -0.425805
     47          6           0        4.877573   -0.056576   -1.004242
     48          6           0        4.824607    0.339028   -2.435218
     49          6           0        6.248000    0.232342   -0.287632
     50          6           0        7.467529   -0.372631   -1.039602
     51          6           0        8.678065   -0.176520   -0.114180
     52          6           0       10.030343   -0.706940   -0.838322
     53          6           0       10.024005   -2.208330   -1.166160
     54          6           0       11.265471   -0.331763    0.035142
     55          6           0       12.583069   -0.660699   -0.521558
     56          6           0       13.750167    0.065882    0.213943
     57          6           0       15.179120   -0.044918   -0.391981
     58          6           0       15.576487   -1.562505   -0.564493
     59          6           0       16.237280    0.708968    0.424429
     60          6           0       17.603551    0.723339   -0.240327
     61          6           0       18.605927    1.656599    0.569167
     62          6           0       20.145237    1.647133    0.045227
     63          6           0       20.288414    2.204518   -1.362075
     64          6           0       21.038867    2.322133    1.080208
     65          1           0       -3.851754    3.264861    1.820637
     66          1           0       -9.682997    4.227704   -0.558269
     67          1           0      -10.717368   -1.884079   -1.323925
     68          1           0       -3.011295   -1.494902    2.244467
     69          1           0       -2.275708    1.310621    1.968587
     70          1           0       -2.264819    0.627809    4.426820
     71          1           0       -3.675303    1.741348    4.014676
     72          1           0       -3.997810    0.026083    4.096650
     73          1           0       -2.324106   -1.572067   -0.679525
     74          1           0       -2.338818    0.103806   -0.502724
     75          1           0       -0.410472    0.155606    1.095999
     76          1           0       -0.426354   -1.489733    1.341265
     77          1           0       -3.876047    5.837330    1.335598
     78          1           0       -5.307279    6.795534    1.434767
     79          1           0       -5.180467    5.722927    2.749472
     80          1           0       -7.319345    7.085899    0.949038
     81          1           0       -9.349244    6.085884   -1.384690
     82          1           0       -9.102977    7.669065   -0.587261
     83          1           0      -12.787712    3.517195    0.063494
     84          1           0      -11.513233    4.057003   -1.642082
     85          1           0      -13.159821    3.024393   -1.725933
     86          1           0      -12.749574   -0.975264   -1.240006
     87          1           0      -13.508701    0.504095   -1.618028
     88          1           0      -12.573766    0.503097   -3.868021
     89          1           0      -11.624641   -0.961379   -3.505045
     90          1           0      -13.345374   -1.056832   -3.643139
     91          1           0       -9.987399   -4.794066   -0.460425
     92          1           0       -9.430812   -4.057838   -2.275287
     93          1           0       -8.599564   -5.414902   -1.318274
     94          1           0       -3.842141   -3.560894   -0.323624
     95          1           0       -1.970822   -6.378881    2.471950
     96          1           0       -2.425252   -4.943648    3.568044
     97          1           0       -3.453757   -6.379598    3.200291
     98          1           0        2.412166   -2.331647   -1.197520
     99          1           0        2.409070   -0.517289   -1.952336
    100          1           0        4.158711   -1.055640    0.633656
    101          1           0        5.314765    1.316699   -2.480569
    102          1           0        5.449536   -0.274381   -2.969083
    103          1           0        3.735754    0.365336   -2.793062
    104          1           0        6.368860    1.307456   -0.050861
    105          1           0        6.239695   -0.193420    0.628869
    106          1           0        7.078163   -1.348814   -1.148369
    107          1           0        7.588307    0.126742   -1.883948
    108          1           0        8.849352    0.792983    0.368863
    109          1           0        8.497224   -0.884323    0.736104
    110          1           0        9.912967   -0.188341   -1.922716
    111          1           0        9.220979   -2.619992   -1.838104
    112          1           0       11.057264   -2.561982   -1.469327
    113          1           0        9.904540   -2.681188   -0.149235
    114          1           0       11.244264    0.760796    0.218766
    115          1           0       11.108319   -0.718411    1.007711
    116          1           0       12.909268   -1.557329   -0.991257
    117          1           0       12.607694   -0.187127   -1.453399
    118          1           0       13.554685    1.263112    0.319153
    119          1           0       13.792235   -0.291927    1.191662
    120          1           0       14.978261    0.271760   -1.458390
    121          1           0       15.014334   -2.197002   -1.278128
    122          1           0       16.523127   -1.794828   -1.205540
    123          1           0       15.315688   -1.848604    0.427970
    124          1           0       16.037818    1.855928    0.714139
    125          1           0       16.189626    0.240156    1.419110
    126          1           0       18.162471   -0.126055   -0.290095
    127          1           0       17.554820    0.880224   -1.380380
    128          1           0       17.885054    2.528214    0.474632
    129          1           0       18.638849    1.193137    1.564225
    130          1           0       20.335607    0.556083   -0.178477
    131          1           0       19.852968    3.270660   -1.339514
    132          1           0       21.488944    2.127658   -1.731785
    133          1           0       19.798038    1.613649   -2.189424
    134          1           0       20.905856    1.916856    2.066936
    135          1           0       22.101034    2.252451    0.741437
    136          1           0       20.890965    3.445084    1.169137
    137          1           0       -6.948051    1.760954    0.179998
    138          1           0       -7.445160   -0.155314    0.094607
 ---------------------------------------------------------------------

 SCF Done:  E(RB3LYP) =  -2733.08181424     A.U. after   18 cycles

 Excitation energies and oscillator strengths:

 Excited State   1:      Singlet-A      2.0129 eV  615.94 nm  f=0.1756  <S**2>=0.000
     235 -> 237       -0.20482
     235 -> 238       -0.25087
     236 -> 237        0.60687
     236 -> 238       -0.15075
 This state for optimization and/or second-order correction.
 Total Energy, E(TD-HF/TD-DFT) =  -2733.00783998
 Copying the excited state density for this state as the 1-particle RhoCI density.

 The electronic state is 1-A.
 Alpha  occ. eigenvalues --  -19.17943 -19.15924 -19.12678 -19.12067 -19.11651
 Alpha  occ. eigenvalues --  -14.37320 -14.36886 -14.32749 -14.29472 -10.31214
 Alpha  occ. eigenvalues --  -10.30765 -10.27758 -10.25360 -10.24492 -10.23962
 Alpha  occ. eigenvalues --  -10.23753 -10.23416 -10.23390 -10.23338 -10.23089
 Alpha  occ. eigenvalues --  -10.22843 -10.21694 -10.21390 -10.21295 -10.21012
 Alpha  occ. eigenvalues --  -10.20979 -10.20967 -10.20937 -10.20924 -10.20922
 Alpha  occ. eigenvalues --  -10.20827 -10.20804 -10.20688 -10.20620 -10.20262
 Alpha  occ. eigenvalues --  -10.20225 -10.20207 -10.20029 -10.19978 -10.19970
 Alpha  occ. eigenvalues --  -10.19750 -10.19716 -10.19692 -10.19692 -10.19436
 Alpha  occ. eigenvalues --  -10.19429 -10.19159 -10.19020 -10.18984 -10.18917
 Alpha  occ. eigenvalues --  -10.18627 -10.18567 -10.18532 -10.18371 -10.18275
 Alpha  occ. eigenvalues --  -10.18267 -10.18242 -10.18196 -10.18163 -10.18125
 Alpha  occ. eigenvalues --  -10.17608 -10.17460 -10.17415 -10.16924  -1.09783
 Alpha  occ. eigenvalues --   -1.06703  -1.04213  -1.00564  -0.99019  -0.97993
 Alpha  occ. eigenvalues --   -0.97599  -0.93864  -0.91270  -0.83987  -0.82487
 Alpha  occ. eigenvalues --   -0.81907  -0.81816  -0.81621  -0.81061  -0.80320
 Alpha  occ. eigenvalues --   -0.80123  -0.79173  -0.78976  -0.78070  -0.77688
 Alpha  occ. eigenvalues --   -0.77234  -0.76122  -0.75672  -0.74816  -0.73959
 Alpha  occ. eigenvalues --   -0.73397  -0.72863  -0.72621  -0.71849  -0.71299
 Alpha  occ. eigenvalues --   -0.69829  -0.69198  -0.68350  -0.67586  -0.67077
 Alpha  occ. eigenvalues --   -0.66726  -0.66262  -0.66044  -0.65904  -0.64648
 Alpha  occ. eigenvalues --   -0.63613  -0.62752  -0.62303  -0.62046  -0.61207
 Alpha  occ. eigenvalues --   -0.60886  -0.59525  -0.58295  -0.58170  -0.57757
 Alpha  occ. eigenvalues --   -0.57236  -0.56199  -0.55952  -0.55532  -0.55065
 Alpha  occ. eigenvalues --   -0.54475  -0.54185  -0.53966  -0.53730  -0.52946
 Alpha  occ. eigenvalues --   -0.52274  -0.51775  -0.51443  -0.51023  -0.50414
 Alpha  occ. eigenvalues --   -0.49541  -0.49460  -0.49027  -0.48772  -0.48749
 Alpha  occ. eigenvalues --   -0.48457  -0.48025  -0.47501  -0.47332  -0.46932
 Alpha  occ. eigenvalues --   -0.46597  -0.46467  -0.45893  -0.45748  -0.45651
 Alpha  occ. eigenvalues --   -0.45215  -0.45058  -0.44888  -0.44705  -0.44594
 Alpha  occ. eigenvalues --   -0.44514  -0.44437  -0.43911  -0.43667  -0.43425
 Alpha  occ. eigenvalues --   -0.43402  -0.43105  -0.43066  -0.42914  -0.42632
 Alpha  occ. eigenvalues --   -0.42471  -0.42207  -0.41852  -0.41779  -0.41633
 Alpha  occ. eigenvalues --   -0.41463  -0.41209  -0.41065  -0.40792  -0.40403
 Alpha  occ. eigenvalues --   -0.40321  -0.40092  -0.39721  -0.39489  -0.39366
 Alpha  occ. eigenvalues --   -0.38991  -0.38799  -0.38317  -0.38244  -0.38126
 Alpha  occ. eigenvalues --   -0.38059  -0.38045  -0.37818  -0.37321  -0.37245
 Alpha  occ. eigenvalues --   -0.37185  -0.37103  -0.36986  -0.36784  -0.36620
 Alpha  occ. eigenvalues --   -0.36489  -0.36419  -0.35962  -0.35867  -0.35668
 Alpha  occ. eigenvalues --   -0.35242  -0.35097  -0.34835  -0.34755  -0.34491
 Alpha  occ. eigenvalues --   -0.34454  -0.34136  -0.33908  -0.33862  -0.33435
 Alpha  occ. eigenvalues --   -0.33249  -0.33222  -0.32955  -0.32937  -0.32404
 Alpha  occ. eigenvalues --   -0.32213  -0.32079  -0.31901  -0.31754  -0.31060
 Alpha  occ. eigenvalues --   -0.30969  -0.30538  -0.30492  -0.30031  -0.29839
 Alpha  occ. eigenvalues --   -0.29213  -0.28807  -0.28547  -0.28453  -0.27893
 Alpha  occ. eigenvalues --   -0.27883  -0.26970  -0.26621  -0.25736  -0.25098
 Alpha  occ. eigenvalues --   -0.24690  -0.24411  -0.24372  -0.22168  -0.19973
 Alpha  occ. eigenvalues --   -0.18745
 Alpha virt. eigenvalues --   -0.10563  -0.07611  -0.04399  -0.01863  -0.00260
 Alpha virt. eigenvalues --   -0.00026   0.00480   0.00787   0.01887   0.03036
 Alpha virt. eigenvalues --    0.04264   0.04337   0.04501   0.04570   0.04916

 Mulliken charges:
               1
     1  C   -0.016212
     2  C   -0.050679
     3  C   -0.014159
     4  C   -0.112042
     5  N   -0.197583
     6  C   -0.081992
     7  C   -0.017768
     8  C   -0.000210
     9  C   -0.029638
    10  C   -0.003011
    11  C   -0.016582
    12  C    0.185754
    13  C    0.137958
    14  O   -0.227268
    15  O   -0.391104
    16  N   -0.091208
    17  C    0.144064
    18  C   -0.134833
    19  C    0.015213
    20  C    0.038984
    21  C    0.104261
    22  C    0.036396
    23  C    0.005662
    24  N   -0.295711
    25  C    0.107580
    26  C   -0.099303
    27  C   -0.064983
    28  C    0.041209
    29  C   -0.034856
    30  C    0.027864
    31  C    0.031836
    32  N   -0.094675
    33  C    0.191795
    34  C   -0.122417
    35  C    0.009208
    36  C    0.079879
    37  C   -0.003972
    38  C   -0.000813
    39  O   -0.127565
    40  C   -0.033994
    41  C    0.213816
    42  O   -0.227354
    43  O   -0.292719
    44  C    0.183089
    45  C    0.243402
    46  C   -0.053210
    47  C   -0.216205
    48  C    0.122228
    49  C    0.092705
    50  C    0.093381
    51  C    0.012431
    52  C   -0.124670
    53  C    0.008460
    54  C    0.099653
    55  C    0.129861
    56  C   -0.031103
    57  C   -0.082032
    58  C    0.003773
    59  C    0.052926
    60  C    0.023025
    61  C   -0.013441
    62  C   -0.081842
    63  C   -0.053411
    64  C    0.064956
    65  H   -0.039487
    66  H   -0.104186
    67  H    0.008633
    68  H    0.039234
    69  H   -0.017928
    70  H    0.042323
    71  H    0.006982
    72  H    0.030445
    73  H    0.061131
    74  H    0.011806
    75  H    0.002268
    76  H    0.013363
    77  H    0.042310
    78  H   -0.001776
    79  H    0.031817
    80  H   -0.040189
    81  H    0.055750
    82  H   -0.045834
    83  H    0.064062
    84  H    0.058067
    85  H    0.030856
    86  H    0.002659
    87  H   -0.005575
    88  H   -0.003128
    89  H    0.004725
    90  H    0.006359
    91  H    0.066113
    92  H    0.043894
    93  H    0.035793
    94  H    0.059774
    95  H    0.024672
    96  H    0.057133
    97  H    0.016169
    98  H    0.046103
    99  H    0.041888
   100  H   -0.012310
   101  H    0.001958
   102  H    0.010009
   103  H    0.026306
   104  H   -0.000634
   105  H   -0.055103
   106  H    0.006876
   107  H   -0.034146
   108  H    0.000803
   109  H   -0.011253
   110  H    0.001443
   111  H    0.027504
   112  H    0.018384
   113  H   -0.005339
   114  H   -0.013313
   115  H   -0.024084
   116  H   -0.029899
   117  H   -0.049400
   118  H    0.010429
   119  H   -0.028486
   120  H   -0.011674
   121  H    0.002539
   122  H    0.024493
   123  H    0.003376
   124  H    0.006525
   125  H   -0.010462
   126  H   -0.042874
   127  H   -0.000792
   128  H    0.013008
   129  H    0.002340
   130  H    0.001169
   131  H    0.024811
   132  H    0.020398
   133  H    0.022796
   134  H    0.006362
   135  H    0.005482
   136  H    0.011519
   137  H    0.168180
   138  H    0.204030
 Sum of Mulliken charges =  -0.00000

 Dipole moment (field-independent basis, Debye):
    X=              2.8115    Y=              3.5858    Z=              1.3827  Tot=              4.7618
 Quadrupole moment (field-independent basis, Debye-Ang):
   XX=           -361.7181   YY=           -376.7095   ZZ=           -392.9547
   XY=            -28.8813   XZ=              3.2258   YZ=             -0.3673

 Normal termination of Gaussian 16 at Thu Aug 22 20:01:09 2019.
