 Gaussian 16, Revision A.03,
 Gaussian 16:  ES64L-G16RevA.03 25-Dec-2016

 --------------------------
 # td=(NStates=1) B3LYP/SVP
 --------------------------

 --
 TD
 --
 Symbolic Z-matrix:
 Charge =  0 Multiplicity = 1

                         Standard orientation:
 ---------------------------------------------------------------------
 Center     Atomic      Atomic             Coordinates (Angstroms)
 Number     Number       Type             X           Y           Z
 ---------------------------------------------------------------------
      1          6           0       -5.076758   -1.899757    0.423706
      2          6           0       -4.823388    2.879664    1.248225
      3          6           0       -9.369938    3.233368   -0.224359
      4          6           0       -9.928168   -1.621871   -0.867610
      5          7           0       -5.187362    0.442773    0.758893
      6          6           0       -4.550403   -0.673806    0.740581
      7          6           0       -3.063016   -0.563967    1.207675
      8          6           0       -3.043482    0.994370    1.767026
      9          6           0       -4.458094    1.489940    1.254053
     10          6           0       -2.860718    0.937637    3.264426
     11          6           0       -2.072870   -0.798451    0.027204
     12          6           0       -0.571758   -0.792105    0.608102
     13          6           0        0.485266   -1.115256   -0.471213
     14          8           0        0.174417   -1.503953   -1.575721
     15          8           0        1.698221   -0.754593   -0.168522
     16          7           0       -7.044737    2.733542    0.535892
     17          6           0       -6.041183    3.533433    0.914030
     18          6           0       -6.245079    4.836746    0.969349
     19          6           0       -7.599665    5.009789    0.393380
     20          6           0       -8.099757    3.656301    0.119114
     21          6           0       -5.346099    6.000318    1.510538
     22          6           0       -8.317106    6.211408    0.195995
     23          6           0       -9.300766    6.585818   -0.610589
     24          7           0       -9.280913    0.681891   -0.467626
     25          6           0       -9.904936    2.005912   -0.569866
     26          6           0      -11.393762    1.739207   -0.945396
     27          6           0      -11.504372    0.403391   -1.150019
     28          6           0      -10.270689   -0.199864   -0.807011
     29          6           0      -12.242384    2.887859   -1.127659
     30          6           0      -12.637035   -0.299412   -1.757341
     31          6           0      -12.566781   -0.653786   -3.163885
     32          7           0       -7.587604   -1.246384   -0.217355
     33          6           0       -8.624892   -2.073169   -0.591267
     34          6           0       -8.161515   -3.520115   -0.555845
     35          6           0       -6.807570   -3.511288   -0.220659
     36          6           0       -6.462115   -2.125388   -0.043066
     37          6           0       -8.969242   -4.731456   -1.057520
     38          6           0       -5.717678   -4.271659    0.129545
     39          8           0       -5.673881   -5.483923    0.044694
     40          6           0       -4.554091   -3.271337    0.369294
     41          6           0       -3.864972   -3.698267    1.614071
     42          8           0       -4.095659   -3.151178    2.760054
     43          8           0       -3.127076   -4.743939    1.419744
     44          6           0       -2.488699   -5.412385    2.479639
     45          6           0        2.838945   -1.079147   -1.015320
     46          6           0        4.068890   -0.654732   -0.351118
     47          6           0        4.959551    0.245576   -0.735830
     48          6           0        4.922037    1.068740   -2.030886
     49          6           0        6.249526    0.265069    0.057968
     50          6           0        7.531378   -0.155699   -0.703418
     51          6           0        8.755493   -0.085151    0.188277
     52          6           0       10.098126   -0.614526   -0.517491
     53          6           0        9.989897   -2.115850   -1.055841
     54          6           0       11.333736   -0.333693    0.345985
     55          6           0       12.642387   -0.453533   -0.459968
     56          6           0       13.943536   -0.089740    0.389079
     57          6           0       15.307609   -0.233373   -0.404494
     58          6           0       15.611832   -1.687187   -0.743203
     59          6           0       16.299906    0.538438    0.314594
     60          6           0       17.636004    0.670463   -0.448793
     61          6           0       18.705354    1.513381    0.402346
     62          6           0       20.203737    1.548829   -0.153982
     63          6           0       20.170267    2.175649   -1.503135
     64          6           0       21.073781    2.157980    0.923158
     65          1           0       -3.937020    3.546432    1.831599
     66          1           0       -9.968544    4.082666   -0.561942
     67          1           0      -10.778575   -2.328489   -1.228280
     68          1           0       -2.649381   -1.344432    1.966909
     69          1           0       -2.340321    1.555318    1.299142
     70          1           0       -1.791848    0.595596    3.465942
     71          1           0       -2.864377    2.179212    3.680754
     72          1           0       -3.724418    0.374794    3.848357
     73          1           0       -2.215419   -1.903571   -0.410222
     74          1           0       -2.124944   -0.064016   -0.726423
     75          1           0       -0.253966    0.185629    1.110452
     76          1           0       -0.499516   -1.375886    1.537824
     77          1           0       -4.663004    6.540429    0.751745
     78          1           0       -6.118306    6.840158    2.084387
     79          1           0       -4.590734    5.398283    2.473388
     80          1           0       -7.669761    7.225023    0.664385
     81          1           0      -10.018052    6.000241   -1.288382
     82          1           0       -9.642817    7.595622   -0.455930
     83          1           0      -12.609711    3.357131   -0.112384
     84          1           0      -11.859574    3.691773   -1.724358
     85          1           0      -13.231630    2.525863   -1.412887
     86          1           0      -12.844920   -1.252184   -1.122053
     87          1           0      -13.561898    0.333442   -1.578201
     88          1           0      -12.252461    0.172340   -3.713446
     89          1           0      -11.871746   -1.587487   -3.414052
     90          1           0      -13.478301   -1.011141   -3.768239
     91          1           0      -10.103538   -4.640416   -0.759551
     92          1           0       -9.172724   -4.931831   -2.387046
     93          1           0       -8.546640   -5.653590   -0.577417
     94          1           0       -3.824954   -3.516950   -0.467964
     95          1           0       -1.997859   -6.101190    2.004290
     96          1           0       -1.735446   -4.933793    3.178929
     97          1           0       -3.303421   -5.930682    3.134257
     98          1           0        2.778745   -2.071147   -1.388433
     99          1           0        2.396179   -0.479676   -1.969027
    100          1           0        3.923764   -1.345735    0.523996
    101          1           0        5.084323    2.257550   -1.813009
    102          1           0        5.582565    0.885766   -2.914956
    103          1           0        3.946769    1.202949   -2.392401
    104          1           0        6.355047    1.296882    0.400924
    105          1           0        6.068413   -0.325608    0.834001
    106          1           0        7.335659   -1.232708   -0.961632
    107          1           0        7.786377    0.435946   -1.512158
    108          1           0        9.011122    0.986602    0.534750
    109          1           0        8.720098   -0.612223    1.265780
    110          1           0        9.985469   -0.027583   -1.499549
    111          1           0        9.106653   -2.310207   -1.676901
    112          1           0       10.958613   -2.298472   -1.721269
    113          1           0       10.393808   -2.876513   -0.282151
    114          1           0       11.063544    0.630746    0.833556
    115          1           0       11.362805   -1.053345    1.255940
    116          1           0       12.555984   -1.611465   -0.874873
    117          1           0       12.490491    0.134314   -1.545259
    118          1           0       13.642783    0.824216    0.610354
    119          1           0       14.037009   -0.657673    1.502246
    120          1           0       15.160642    0.285120   -1.386579
    121          1           0       14.848287   -2.080123   -1.361920
    122          1           0       16.613002   -1.777015   -1.274716
    123          1           0       15.943167   -2.466120    0.128477
    124          1           0       15.967627    1.459879    0.554595
    125          1           0       16.533896    0.143578    1.248606
    126          1           0       18.059840   -0.236483   -0.838170
    127          1           0       17.464868    1.314416   -1.398716
    128          1           0       18.333053    2.634295    0.705414
    129          1           0       18.772090    1.039192    1.440826
    130          1           0       20.635917    0.532466   -0.403934
    131          1           0       20.011816    3.215090   -1.483458
    132          1           0       21.356394    2.037299   -1.796768
    133          1           0       19.265726    1.783425   -2.151524
    134          1           0       20.894924    1.829685    2.032389
    135          1           0       22.231653    1.985464    0.887938
    136          1           0       20.734045    3.200607    1.101236
    137          1           0       -7.048885    1.692600    0.282930
    138          1           0       -7.551998   -0.272259   -0.354223
 ---------------------------------------------------------------------

 SCF Done:  E(RB3LYP) =  -2732.98890506     A.U. after   18 cycles

 Excitation energies and oscillator strengths:

 Excited State   1:      Singlet-A      1.9194 eV  645.96 nm  f=0.1464  <S**2>=0.000
     235 -> 237       -0.24811
     235 -> 238       -0.28392
     236 -> 237        0.56775
     236 -> 238       -0.17166
 This state for optimization and/or second-order correction.
 Total Energy, E(TD-HF/TD-DFT) =  -2732.91836930
 Copying the excited state density for this state as the 1-particle RhoCI density.

 The electronic state is 1-A.
 Alpha  occ. eigenvalues --  -19.19646 -19.17352 -19.12370 -19.11234 -19.11065
 Alpha  occ. eigenvalues --  -14.37123 -14.36631 -14.32050 -14.30400 -10.31647
 Alpha  occ. eigenvalues --  -10.30905 -10.27602 -10.25128 -10.24815 -10.24724
 Alpha  occ. eigenvalues --  -10.24570 -10.24479 -10.23744 -10.23377 -10.23343
 Alpha  occ. eigenvalues --  -10.22944 -10.22815 -10.22751 -10.21919 -10.21748
 Alpha  occ. eigenvalues --  -10.21690 -10.21632 -10.21382 -10.21373 -10.21282
 Alpha  occ. eigenvalues --  -10.21149 -10.21069 -10.20667 -10.20664 -10.20639
 Alpha  occ. eigenvalues --  -10.20489 -10.20414 -10.20275 -10.20124 -10.20113
 Alpha  occ. eigenvalues --  -10.20075 -10.20014 -10.19798 -10.19780 -10.19733
 Alpha  occ. eigenvalues --  -10.19713 -10.19696 -10.19415 -10.19381 -10.19355
 Alpha  occ. eigenvalues --  -10.19342 -10.19335 -10.19266 -10.19241 -10.19097
 Alpha  occ. eigenvalues --  -10.19061 -10.19028 -10.18884 -10.18738 -10.18695
 Alpha  occ. eigenvalues --  -10.18669 -10.18257 -10.18036 -10.16288  -1.11512
 Alpha  occ. eigenvalues --   -1.10113  -1.03168  -0.99799  -0.97326  -0.97190
 Alpha  occ. eigenvalues --   -0.96909  -0.94571  -0.91355  -0.86177  -0.83310
 Alpha  occ. eigenvalues --   -0.82204  -0.81615  -0.80837  -0.80443  -0.80230
 Alpha  occ. eigenvalues --   -0.80146  -0.79618  -0.79296  -0.78151  -0.77840
 Alpha  occ. eigenvalues --   -0.77517  -0.76454  -0.75589  -0.75316  -0.74455
 Alpha  occ. eigenvalues --   -0.73761  -0.73157  -0.72477  -0.71120  -0.70103
 Alpha  occ. eigenvalues --   -0.69784  -0.69083  -0.68439  -0.68175  -0.67425
 Alpha  occ. eigenvalues --   -0.67257  -0.66971  -0.66221  -0.66179  -0.65047
 Alpha  occ. eigenvalues --   -0.63766  -0.63016  -0.61994  -0.61455  -0.61348
 Alpha  occ. eigenvalues --   -0.60407  -0.59270  -0.58538  -0.57889  -0.57083
 Alpha  occ. eigenvalues --   -0.56674  -0.56207  -0.55986  -0.55770  -0.55728
 Alpha  occ. eigenvalues --   -0.55364  -0.55341  -0.54689  -0.54235  -0.52933
 Alpha  occ. eigenvalues --   -0.52563  -0.51527  -0.51219  -0.51010  -0.50690
 Alpha  occ. eigenvalues --   -0.50067  -0.49785  -0.49372  -0.48852  -0.48403
 Alpha  occ. eigenvalues --   -0.47891  -0.47664  -0.47261  -0.46937  -0.46880
 Alpha  occ. eigenvalues --   -0.46461  -0.46166  -0.45980  -0.45663  -0.45535
 Alpha  occ. eigenvalues --   -0.45370  -0.45072  -0.44986  -0.44596  -0.44497
 Alpha  occ. eigenvalues --   -0.44313  -0.44111  -0.43962  -0.43880  -0.43767
 Alpha  occ. eigenvalues --   -0.43536  -0.43099  -0.42881  -0.42392  -0.42325
 Alpha  occ. eigenvalues --   -0.42032  -0.41787  -0.41663  -0.41411  -0.41156
 Alpha  occ. eigenvalues --   -0.40997  -0.40666  -0.40342  -0.40121  -0.39707
 Alpha  occ. eigenvalues --   -0.39558  -0.39305  -0.39163  -0.39058  -0.38957
 Alpha  occ. eigenvalues --   -0.38819  -0.38614  -0.38454  -0.38178  -0.38060
 Alpha  occ. eigenvalues --   -0.37958  -0.37561  -0.37290  -0.37188  -0.37122
 Alpha  occ. eigenvalues --   -0.36875  -0.36758  -0.36705  -0.36417  -0.36245
 Alpha  occ. eigenvalues --   -0.36160  -0.36135  -0.35941  -0.35853  -0.35760
 Alpha  occ. eigenvalues --   -0.35454  -0.35343  -0.35043  -0.34640  -0.34507
 Alpha  occ. eigenvalues --   -0.34270  -0.34138  -0.34043  -0.33733  -0.33491
 Alpha  occ. eigenvalues --   -0.33404  -0.33011  -0.32968  -0.32730  -0.32572
 Alpha  occ. eigenvalues --   -0.32116  -0.32097  -0.31579  -0.31462  -0.31012
 Alpha  occ. eigenvalues --   -0.30763  -0.30623  -0.30023  -0.29992  -0.29667
 Alpha  occ. eigenvalues --   -0.29329  -0.28773  -0.28394  -0.28125  -0.27260
 Alpha  occ. eigenvalues --   -0.26720  -0.26511  -0.26467  -0.26171  -0.25991
 Alpha  occ. eigenvalues --   -0.25771  -0.25228  -0.23799  -0.22852  -0.19585
 Alpha  occ. eigenvalues --   -0.19234
 Alpha virt. eigenvalues --   -0.11112  -0.08489  -0.05142  -0.02249  -0.01045
 Alpha virt. eigenvalues --   -0.00906   0.00026   0.01039   0.01557   0.02066
 Alpha virt. eigenvalues --    0.03364   0.03817   0.03858   0.04079   0.04349

 Mulliken charges:
               1
     1  C    0.137858
     2  C   -0.120488
     3  C   -0.019322
     4  C   -0.100134
     5  N   -0.119196
     6  C   -0.069560
     7  C   -0.157934
     8  C    0.044919
     9  C   -0.030396
    10  C   -0.016349
    11  C    0.055531
    12  C   -0.035705
    13  C    0.176688
    14  O   -0.251345
    15  O   -0.292551
    16  N   -0.122024
    17  C    0.160064
    18  C   -0.094662
    19  C    0.065435
    20  C    0.067723
    21  C   -0.069923
    22  C   -0.095109
    23  C   -0.066004
    24  N   -0.311870
    25  C    0.047664
    26  C   -0.117677
    27  C   -0.071525
    28  C    0.048051
    29  C    0.110132
    30  C    0.051403
    31  C    0.011177
    32  N   -0.040969
    33  C    0.118177
    34  C   -0.118393
    35  C    0.115091
    36  C    0.009878
    37  C   -0.028287
    38  C   -0.001909
    39  O   -0.171929
    40  C   -0.037422
    41  C    0.182493
    42  O   -0.308001
    43  O   -0.234270
    44  C    0.212094
    45  C    0.194018
    46  C   -0.063543
    47  C   -0.096178
    48  C    0.045386
    49  C    0.178682
    50  C    0.067617
    51  C   -0.051782
    52  C   -0.113583
    53  C   -0.013600
    54  C    0.044812
    55  C   -0.079210
    56  C    0.074354
    57  C   -0.042099
    58  C    0.020082
    59  C    0.159002
    60  C    0.009854
    61  C   -0.077656
    62  C   -0.058538
    63  C    0.016295
    64  C   -0.006455
    65  H    0.017300
    66  H   -0.043918
    67  H    0.016683
    68  H    0.045617
    69  H   -0.030947
    70  H    0.028909
    71  H    0.008446
    72  H    0.068648
    73  H    0.044866
    74  H    0.000156
    75  H    0.024901
    76  H    0.013184
    77  H    0.070801
    78  H    0.067208
    79  H    0.055458
    80  H    0.026077
    81  H    0.044600
    82  H    0.023270
    83  H    0.025088
    84  H    0.032058
    85  H   -0.014532
    86  H    0.007588
    87  H    0.001532
    88  H   -0.004164
    89  H    0.014313
    90  H    0.014909
    91  H    0.037286
    92  H    0.063472
    93  H    0.060093
    94  H    0.073268
    95  H   -0.016551
    96  H    0.043045
    97  H    0.045705
    98  H    0.021763
    99  H    0.022560
   100  H    0.006382
   101  H    0.016039
   102  H    0.048909
   103  H   -0.006785
   104  H   -0.011168
   105  H   -0.051724
   106  H    0.014522
   107  H   -0.015676
   108  H    0.000603
   109  H    0.000215
   110  H   -0.004553
   111  H    0.027349
   112  H    0.007917
   113  H    0.013955
   114  H   -0.009430
   115  H    0.011239
   116  H    0.016218
   117  H    0.022999
   118  H   -0.041580
   119  H    0.016609
   120  H   -0.016043
   121  H    0.009104
   122  H    0.001677
   123  H    0.013538
   124  H   -0.053508
   125  H   -0.040910
   126  H    0.000616
   127  H    0.001398
   128  H    0.012207
   129  H    0.000119
   130  H    0.002136
   131  H   -0.017576
   132  H    0.018867
   133  H    0.034836
   134  H    0.004845
   135  H    0.026926
   136  H   -0.000579
   137  H    0.182146
   138  H    0.130587
 Sum of Mulliken charges =  -0.00000

 Dipole moment (field-independent basis, Debye):
    X=              2.5752    Y=              3.0577    Z=             -0.6635  Tot=              4.0524
 Quadrupole moment (field-independent basis, Debye-Ang):
   XX=           -351.1388   YY=           -379.6252   ZZ=           -401.2576
   XY=            -20.1937   XZ=             24.3064   YZ=             -3.6257

 Normal termination of Gaussian 16 at Fri Aug 23 09:03:26 2019.
