 Gaussian 16, Revision A.03,
 Gaussian 16:  ES64L-G16RevA.03 25-Dec-2016

 --------------------------
 # td=(NStates=1) B3LYP/SVP
 --------------------------

 --
 TD
 --
 Symbolic Z-matrix:
 Charge =  0 Multiplicity = 1

                         Standard orientation:
 ---------------------------------------------------------------------
 Center     Atomic      Atomic             Coordinates (Angstroms)
 Number     Number       Type             X           Y           Z
 ---------------------------------------------------------------------
      1          6           0       -5.086800   -2.097179    0.503787
      2          6           0       -4.653401    2.721456    1.514535
      3          6           0       -9.194908    3.390807   -0.352636
      4          6           0       -9.802397   -1.396134   -0.867659
      5          7           0       -5.182435    0.389856    0.965645
      6          6           0       -4.515821   -0.825590    0.950895
      7          6           0       -3.085416   -0.539346    1.377239
      8          6           0       -3.097825    0.764752    1.943603
      9          6           0       -4.426850    1.293121    1.420947
     10          6           0       -3.031764    0.825369    3.429155
     11          6           0       -2.108268   -0.717759    0.116220
     12          6           0       -0.614516   -0.871617    0.643703
     13          6           0        0.337323   -1.022574   -0.403856
     14          8           0        0.028976   -1.309714   -1.584925
     15          8           0        1.629119   -0.742970   -0.069323
     16          7           0       -6.827200    2.772105    0.517704
     17          6           0       -5.826671    3.392450    1.134350
     18          6           0       -6.067647    4.751393    1.184436
     19          6           0       -7.324081    4.905238    0.481331
     20          6           0       -7.895129    3.618172    0.188783
     21          6           0       -5.298730    5.761863    1.765703
     22          6           0       -8.074216    6.194796    0.373699
     23          6           0       -8.912964    6.586616   -0.643300
     24          7           0       -9.135857    0.982516   -0.490959
     25          6           0       -9.831675    2.194865   -0.644476
     26          6           0      -11.111625    1.999406   -1.101721
     27          6           0      -11.336563    0.614254   -1.288085
     28          6           0      -10.013490    0.011103   -0.847210
     29          6           0      -12.136545    3.043306   -1.333261
     30          6           0      -12.549447   -0.129102   -1.762399
     31          6           0      -12.599689   -0.347887   -3.271348
     32          7           0       -7.426344   -1.281298   -0.220339
     33          6           0       -8.564719   -1.955957   -0.681481
     34          6           0       -8.238275   -3.400275   -0.674838
     35          6           0       -6.812027   -3.442779   -0.246755
     36          6           0       -6.447565   -2.100413   -0.008730
     37          6           0       -9.056127   -4.536714   -1.105508
     38          6           0       -5.785810   -4.357290    0.107920
     39          8           0       -5.665585   -5.519657   -0.113443
     40          6           0       -4.497722   -3.374015    0.505286
     41          6           0       -3.877196   -3.915201    1.720591
     42          8           0       -4.113539   -3.456311    2.859489
     43          8           0       -3.104109   -4.885539    1.523283
     44          6           0       -2.550929   -5.531508    2.707760
     45          6           0        2.585182   -0.926858   -1.045826
     46          6           0        3.839960   -0.574144   -0.520792
     47          6           0        4.926611    0.022223   -1.131422
     48          6           0        4.752179    0.628790   -2.505746
     49          6           0        6.160933    0.310579   -0.359208
     50          6           0        7.455724   -0.392974   -0.999643
     51          6           0        8.639003   -0.191371   -0.200234
     52          6           0       10.097919   -0.772555   -0.851420
     53          6           0       10.016229   -2.288750   -1.011906
     54          6           0       11.287651   -0.318816   -0.011193
     55          6           0       12.634049   -0.711264   -0.739437
     56          6           0       13.729758    0.064105    0.069014
     57          6           0       15.285666   -0.286901   -0.511480
     58          6           0       15.527725   -1.682675   -0.745060
     59          6           0       16.208075    0.478837    0.458039
     60          6           0       17.545312    0.625610   -0.069867
     61          6           0       18.480174    1.604595    0.683202
     62          6           0       19.957369    1.739434    0.210094
     63          6           0       20.173282    2.318517   -1.244038
     64          6           0       20.818859    2.536929    1.271117
     65          1           0       -3.894470    3.312769    1.812206
     66          1           0       -9.792608    4.266181   -0.444119
     67          1           0      -10.552102   -2.009962   -1.168577
     68          1           0       -2.646798   -1.455435    2.035706
     69          1           0       -2.259515    1.361210    1.533066
     70          1           0       -2.114156    0.436572    3.724775
     71          1           0       -3.167275    1.907254    3.862024
     72          1           0       -3.791578    0.311989    3.891486
     73          1           0       -2.311005   -1.479014   -0.849588
     74          1           0       -2.167177    0.298575   -0.425783
     75          1           0       -0.333536    0.240159    1.134602
     76          1           0       -0.518542   -1.589611    1.566823
     77          1           0       -4.176578    5.581392    1.455750
     78          1           0       -5.643240    6.847945    1.616816
     79          1           0       -5.354000    5.578702    2.902072
     80          1           0       -8.164091    6.997631    1.251587
     81          1           0       -9.076657    5.962068   -1.488455
     82          1           0       -9.188101    7.718118   -0.573187
     83          1           0      -11.982404    4.006686   -0.466571
     84          1           0      -11.881044    3.520503   -2.354445
     85          1           0      -13.136774    2.607494   -1.418546
     86          1           0      -12.829608   -1.141827   -1.177886
     87          1           0      -13.405767    0.454051   -1.568004
     88          1           0      -12.643032    0.687260   -3.800190
     89          1           0      -11.707928   -1.046183   -3.541796
     90          1           0      -13.643126   -0.815609   -3.690445
     91          1           0       -9.933294   -4.735310   -0.428608
     92          1           0       -9.564963   -4.364094   -1.891492
     93          1           0       -8.361557   -5.460580   -1.214930
     94          1           0       -3.900222   -3.559935   -0.467112
     95          1           0       -1.825298   -6.240704    2.326849
     96          1           0       -1.962376   -4.766075    3.306441
     97          1           0       -3.277264   -6.166697    3.354607
     98          1           0        2.706910   -2.012958   -1.582540
     99          1           0        2.134210   -0.313209   -1.897974
    100          1           0        4.046209   -1.178650    0.425254
    101          1           0        5.441517    1.751931   -2.846875
    102          1           0        5.056390   -0.147360   -3.268643
    103          1           0        3.746853    0.839623   -2.744667
    104          1           0        6.361035    1.375702   -0.238250
    105          1           0        5.965553    0.075736    0.697476
    106          1           0        7.129170   -1.473733   -1.102091
    107          1           0        7.437921    0.101888   -2.011746
    108          1           0        8.917044    0.937219   -0.084352
    109          1           0        8.534286   -0.597282    0.951303
    110          1           0       10.164942   -0.508335   -1.813386
    111          1           0        8.897278   -2.680256   -1.437364
    112          1           0       10.943179   -2.706301   -1.876306
    113          1           0       10.318893   -2.881330   -0.065570
    114          1           0       11.312086    0.788575   -0.099842
    115          1           0       11.334443   -0.695613    0.892671
    116          1           0       12.905748   -1.743521   -0.948728
    117          1           0       12.682907   -0.410004   -1.927581
    118          1           0       13.730075    1.288609    0.029437
    119          1           0       13.845866   -0.072478    1.123060
    120          1           0       15.156284    0.263388   -1.476219
    121          1           0       14.715693   -1.978678   -1.581406
    122          1           0       16.391117   -1.988087   -1.099060
    123          1           0       15.435016   -2.303151    0.088424
    124          1           0       15.732121    1.521410    0.743209
    125          1           0       16.202959   -0.000173    1.433078
    126          1           0       18.044767   -0.383213   -0.520543
    127          1           0       17.386453    1.056593   -1.157902
    128          1           0       17.938026    2.615665    0.988930
    129          1           0       18.647844    1.236375    1.687572
    130          1           0       20.547089    0.707252    0.029873
    131          1           0       19.614064    3.383132   -1.319801
    132          1           0       21.287326    2.344990   -1.501213
    133          1           0       19.576404    1.801479   -2.174818
    134          1           0       20.781356    1.993890    2.206484
    135          1           0       21.815071    2.571872    1.052650
    136          1           0       20.676003    3.630524    1.296780
    137          1           0       -7.029408    1.758402    0.738137
    138          1           0       -7.713730   -0.109808   -0.222807
 ---------------------------------------------------------------------

 SCF Done:  E(RB3LYP) =  -2732.99800196     A.U. after   17 cycles

 Excitation energies and oscillator strengths:

 Excited State   1:      Singlet-A      1.9933 eV  621.99 nm  f=0.1453  <S**2>=0.000
     235 -> 237       -0.27373
     235 -> 238       -0.23288
     236 -> 237        0.56862
     236 -> 238       -0.20698
 This state for optimization and/or second-order correction.
 Total Energy, E(TD-HF/TD-DFT) =  -2732.92474817
 Copying the excited state density for this state as the 1-particle RhoCI density.

 The electronic state is 1-A.
 Alpha  occ. eigenvalues --  -19.19050 -19.18330 -19.12714 -19.12514 -19.09979
 Alpha  occ. eigenvalues --  -14.37047 -14.36212 -14.31968 -14.30847 -10.32005
 Alpha  occ. eigenvalues --  -10.30560 -10.27900 -10.25953 -10.25046 -10.23855
 Alpha  occ. eigenvalues --  -10.23677 -10.23631 -10.23316 -10.22792 -10.22707
 Alpha  occ. eigenvalues --  -10.22686 -10.22534 -10.21909 -10.21836 -10.21454
 Alpha  occ. eigenvalues --  -10.21186 -10.21126 -10.21089 -10.20935 -10.20796
 Alpha  occ. eigenvalues --  -10.20740 -10.20738 -10.20717 -10.20659 -10.20618
 Alpha  occ. eigenvalues --  -10.20498 -10.20369 -10.20291 -10.20237 -10.20158
 Alpha  occ. eigenvalues --  -10.20042 -10.19903 -10.19853 -10.19611 -10.19605
 Alpha  occ. eigenvalues --  -10.19438 -10.19272 -10.19181 -10.19157 -10.19135
 Alpha  occ. eigenvalues --  -10.19062 -10.19058 -10.19012 -10.18723 -10.18714
 Alpha  occ. eigenvalues --  -10.18645 -10.18546 -10.18507 -10.18473 -10.18030
 Alpha  occ. eigenvalues --  -10.17811 -10.17798 -10.17157 -10.16704  -1.12191
 Alpha  occ. eigenvalues --   -1.10294  -1.04386  -0.99705  -0.98622  -0.98430
 Alpha  occ. eigenvalues --   -0.97730  -0.96446  -0.93209  -0.85358  -0.82499
 Alpha  occ. eigenvalues --   -0.81814  -0.81555  -0.81488  -0.81246  -0.80391
 Alpha  occ. eigenvalues --   -0.80193  -0.79709  -0.79165  -0.78838  -0.78297
 Alpha  occ. eigenvalues --   -0.76953  -0.76494  -0.76045  -0.74739  -0.74670
 Alpha  occ. eigenvalues --   -0.74363  -0.73594  -0.72995  -0.71682  -0.70943
 Alpha  occ. eigenvalues --   -0.70390  -0.69374  -0.68660  -0.67934  -0.67384
 Alpha  occ. eigenvalues --   -0.67188  -0.66417  -0.65943  -0.65394  -0.64955
 Alpha  occ. eigenvalues --   -0.64369  -0.62818  -0.61935  -0.61287  -0.60909
 Alpha  occ. eigenvalues --   -0.60580  -0.59015  -0.58198  -0.57740  -0.57018
 Alpha  occ. eigenvalues --   -0.56829  -0.56164  -0.55971  -0.55869  -0.55322
 Alpha  occ. eigenvalues --   -0.55132  -0.54396  -0.53860  -0.53739  -0.53237
 Alpha  occ. eigenvalues --   -0.52905  -0.52166  -0.51968  -0.51456  -0.50721
 Alpha  occ. eigenvalues --   -0.50063  -0.49692  -0.49167  -0.48878  -0.48163
 Alpha  occ. eigenvalues --   -0.47892  -0.47321  -0.47224  -0.46955  -0.46516
 Alpha  occ. eigenvalues --   -0.46244  -0.46044  -0.45934  -0.45790  -0.45583
 Alpha  occ. eigenvalues --   -0.45450  -0.45403  -0.45220  -0.44884  -0.44428
 Alpha  occ. eigenvalues --   -0.44260  -0.44165  -0.43769  -0.43645  -0.43440
 Alpha  occ. eigenvalues --   -0.43120  -0.43094  -0.42781  -0.42500  -0.42427
 Alpha  occ. eigenvalues --   -0.42256  -0.41996  -0.41885  -0.41746  -0.41379
 Alpha  occ. eigenvalues --   -0.41334  -0.41220  -0.40850  -0.40543  -0.40480
 Alpha  occ. eigenvalues --   -0.40284  -0.40201  -0.40069  -0.39901  -0.39783
 Alpha  occ. eigenvalues --   -0.39648  -0.39475  -0.39085  -0.38966  -0.38711
 Alpha  occ. eigenvalues --   -0.38430  -0.38074  -0.37762  -0.37726  -0.37450
 Alpha  occ. eigenvalues --   -0.37385  -0.37111  -0.37061  -0.36289  -0.36157
 Alpha  occ. eigenvalues --   -0.35990  -0.35910  -0.35838  -0.35675  -0.35566
 Alpha  occ. eigenvalues --   -0.35324  -0.35245  -0.35188  -0.34949  -0.34606
 Alpha  occ. eigenvalues --   -0.34519  -0.34283  -0.34028  -0.33914  -0.33782
 Alpha  occ. eigenvalues --   -0.33527  -0.33160  -0.33049  -0.32896  -0.32812
 Alpha  occ. eigenvalues --   -0.32426  -0.32219  -0.31952  -0.31595  -0.31306
 Alpha  occ. eigenvalues --   -0.30932  -0.30230  -0.29966  -0.29694  -0.29595
 Alpha  occ. eigenvalues --   -0.28977  -0.28484  -0.27880  -0.27727  -0.27653
 Alpha  occ. eigenvalues --   -0.26509  -0.26401  -0.26299  -0.25823  -0.25507
 Alpha  occ. eigenvalues --   -0.24666  -0.23477  -0.23396  -0.22584  -0.19991
 Alpha  occ. eigenvalues --   -0.18726
 Alpha virt. eigenvalues --   -0.10674  -0.08080  -0.04680  -0.02329  -0.01818
 Alpha virt. eigenvalues --   -0.00962  -0.00240   0.00823   0.02563   0.03122
 Alpha virt. eigenvalues --    0.03314   0.03463   0.03670   0.04116   0.04275

 Mulliken charges:
               1
     1  C   -0.018822
     2  C   -0.039526
     3  C   -0.086702
     4  C   -0.016593
     5  N   -0.098666
     6  C    0.001286
     7  C   -0.103881
     8  C    0.008070
     9  C   -0.056010
    10  C    0.142564
    11  C   -0.042344
    12  C   -0.051637
    13  C    0.221017
    14  O   -0.274009
    15  O   -0.285513
    16  N   -0.054132
    17  C    0.087812
    18  C   -0.093272
    19  C    0.013104
    20  C    0.115699
    21  C    0.028401
    22  C   -0.115547
    23  C   -0.051048
    24  N   -0.293529
    25  C    0.110146
    26  C   -0.106416
    27  C   -0.081727
    28  C    0.060600
    29  C    0.028584
    30  C    0.058446
    31  C   -0.066509
    32  N   -0.082445
    33  C    0.080305
    34  C   -0.137357
    35  C   -0.028013
    36  C    0.082255
    37  C    0.179895
    38  C    0.013870
    39  O   -0.144499
    40  C   -0.068953
    41  C    0.172675
    42  O   -0.293948
    43  O   -0.219311
    44  C    0.159645
    45  C    0.201672
    46  C   -0.098612
    47  C   -0.125585
    48  C    0.019795
    49  C    0.083482
    50  C    0.006860
    51  C   -0.015539
    52  C    0.016307
    53  C   -0.121410
    54  C    0.158602
    55  C   -0.044027
    56  C   -0.032921
    57  C   -0.120508
    58  C    0.138867
    59  C    0.041100
    60  C   -0.004985
    61  C    0.070003
    62  C   -0.127273
    63  C   -0.071782
    64  C    0.082938
    65  H   -0.085531
    66  H   -0.047957
    67  H   -0.073755
    68  H    0.035993
    69  H   -0.011249
    70  H   -0.010099
    71  H    0.009675
    72  H   -0.003708
    73  H    0.078698
    74  H    0.016240
    75  H    0.060500
    76  H    0.066747
    77  H    0.044187
    78  H    0.037695
    79  H    0.036876
    80  H    0.037325
    81  H    0.020932
    82  H    0.044951
    83  H    0.050419
    84  H    0.036375
    85  H    0.018893
    86  H    0.026205
    87  H   -0.023960
    88  H    0.028639
    89  H    0.036513
    90  H    0.026107
    91  H    0.018573
    92  H   -0.046391
    93  H    0.062959
    94  H    0.072033
    95  H    0.023920
    96  H    0.046666
    97  H    0.065043
    98  H    0.045948
    99  H    0.018301
   100  H    0.007014
   101  H    0.033447
   102  H    0.032981
   103  H    0.006121
   104  H   -0.003503
   105  H   -0.019760
   106  H    0.018133
   107  H    0.012105
   108  H    0.003180
   109  H    0.015651
   110  H   -0.044273
   111  H    0.042050
   112  H    0.018278
   113  H    0.023631
   114  H    0.006313
   115  H   -0.035663
   116  H    0.012353
   117  H    0.000448
   118  H    0.013464
   119  H   -0.011649
   120  H   -0.003483
   121  H    0.013574
   122  H   -0.041734
   123  H   -0.018083
   124  H   -0.005292
   125  H   -0.018774
   126  H    0.010521
   127  H   -0.009423
   128  H    0.009861
   129  H   -0.021629
   130  H    0.014122
   131  H    0.012838
   132  H    0.029722
   133  H    0.027782
   134  H    0.008264
   135  H   -0.035311
   136  H    0.006217
   137  H    0.173646
   138  H    0.242143
 Sum of Mulliken charges =  -0.00000

 Dipole moment (field-independent basis, Debye):
    X=              0.9106    Y=              2.6529    Z=              1.2051  Tot=              3.0528
 Quadrupole moment (field-independent basis, Debye-Ang):
   XX=           -344.6686   YY=           -381.4907   ZZ=           -396.4321
   XY=            -20.8584   XZ=             17.7409   YZ=              1.1049

 Normal termination of Gaussian 16 at Sun Aug 18 16:12:38 2019.
