 Gaussian 16, Revision A.03,
 Gaussian 16:  ES64L-G16RevA.03 25-Dec-2016

 --------------------------
 # td=(NStates=1) B3LYP/SVP
 --------------------------

 --
 TD
 --
 Symbolic Z-matrix:
 Charge =  0 Multiplicity = 1

                         Standard orientation:
 ---------------------------------------------------------------------
 Center     Atomic      Atomic             Coordinates (Angstroms)
 Number     Number       Type             X           Y           Z
 ---------------------------------------------------------------------
      1          6           0       -5.043337   -1.949779    0.440477
      2          6           0       -4.719928    2.833092    1.189810
      3          6           0       -9.391580    3.203068   -0.239533
      4          6           0       -9.827230   -1.586975   -0.951382
      5          7           0       -5.213925    0.495007    0.827163
      6          6           0       -4.535772   -0.616539    0.827815
      7          6           0       -3.102551   -0.462287    1.203212
      8          6           0       -3.104934    0.970996    1.846664
      9          6           0       -4.450371    1.499798    1.296840
     10          6           0       -3.066581    0.987665    3.358269
     11          6           0       -2.057418   -0.860072    0.072333
     12          6           0       -0.545448   -0.716531    0.601905
     13          6           0        0.452289   -1.120201   -0.443517
     14          8           0        0.169098   -1.942833   -1.392459
     15          8           0        1.666863   -0.603566   -0.121308
     16          7           0       -7.002714    2.804107    0.308394
     17          6           0       -5.923556    3.421761    0.907784
     18          6           0       -6.325964    4.808628    0.890698
     19          6           0       -7.627849    4.867219    0.474317
     20          6           0       -8.090083    3.617628    0.064379
     21          6           0       -5.476667    6.041907    1.486173
     22          6           0       -8.298030    6.164850    0.264812
     23          6           0       -9.297064    6.540217   -0.639627
     24          7           0       -9.270666    0.755359   -0.508662
     25          6           0       -9.884516    1.965087   -0.494267
     26          6           0      -11.314024    1.754435   -0.854910
     27          6           0      -11.473162    0.404349   -1.141628
     28          6           0      -10.137622   -0.270271   -0.918660
     29          6           0      -12.312018    2.831996   -0.808734
     30          6           0      -12.640540   -0.299220   -1.659264
     31          6           0      -12.644949   -0.508888   -3.264785
     32          7           0       -7.576316   -1.283773   -0.247109
     33          6           0       -8.564884   -2.107714   -0.674807
     34          6           0       -8.143304   -3.464723   -0.691583
     35          6           0       -6.753992   -3.390422   -0.198884
     36          6           0       -6.362507   -2.052737    0.098695
     37          6           0       -8.921986   -4.697984   -1.035747
     38          6           0       -5.518142   -4.275231   -0.054939
     39          8           0       -5.487979   -5.559001   -0.091408
     40          6           0       -4.388831   -3.293431    0.499239
     41          6           0       -3.860579   -3.639174    1.844622
     42          8           0       -4.182022   -3.281380    2.950589
     43          8           0       -2.939094   -4.761935    1.737111
     44          6           0       -2.484173   -5.260507    2.931308
     45          6           0        2.759828   -1.034822   -1.042789
     46          6           0        3.993946   -0.462588   -0.449908
     47          6           0        4.947327    0.209375   -1.149639
     48          6           0        4.851340    0.482354   -2.609364
     49          6           0        6.239014    0.521806   -0.488301
     50          6           0        7.455951   -0.389785   -0.956333
     51          6           0        8.809685    0.031762   -0.249114
     52          6           0        9.978925   -0.618672   -0.847538
     53          6           0        9.910442   -2.246714   -0.870606
     54          6           0       11.260852   -0.084983   -0.132433
     55          6           0       12.670382   -0.504530   -0.686487
     56          6           0       13.874775    0.224616   -0.025922
     57          6           0       15.206340   -0.104248   -0.555580
     58          6           0       15.531623   -1.548738   -0.482910
     59          6           0       16.191585    0.837797    0.335718
     60          6           0       17.640408    0.618602    0.028363
     61          6           0       18.599573    1.546313    0.699008
     62          6           0       20.175199    1.467133    0.248454
     63          6           0       20.380440    1.762460   -1.223260
     64          6           0       21.034641    2.306661    1.246966
     65          1           0       -3.975352    3.611010    1.672087
     66          1           0      -10.022314    4.165803   -0.298250
     67          1           0      -10.719453   -2.236853   -1.274779
     68          1           0       -3.020883   -1.235684    2.025284
     69          1           0       -2.199762    1.562657    1.372921
     70          1           0       -2.107957    0.826587    3.912914
     71          1           0       -3.335313    1.935248    3.809319
     72          1           0       -3.802233    0.341676    3.762497
     73          1           0       -2.245439   -1.863695   -0.249543
     74          1           0       -2.000027   -0.111864   -0.796801
     75          1           0       -0.202972    0.226276    0.880854
     76          1           0       -0.375969   -1.232133    1.406829
     77          1           0       -4.628964    6.269848    0.872722
     78          1           0       -5.950085    6.975169    1.637750
     79          1           0       -5.217907    5.686117    2.597061
     80          1           0       -7.877093    6.942842    0.853605
     81          1           0       -9.583227    5.901091   -1.544200
     82          1           0       -9.791092    7.444642   -0.758467
     83          1           0      -12.602488    2.979361    0.540896
     84          1           0      -12.125955    3.759715   -1.395430
     85          1           0      -13.263446    2.280353   -1.346611
     86          1           0      -12.913482   -1.433013   -1.295553
     87          1           0      -13.538380    0.255056   -1.423442
     88          1           0      -12.693977    0.395035   -3.629646
     89          1           0      -11.993527   -1.151186   -3.897541
     90          1           0      -13.683605   -0.735168   -3.498614
     91          1           0       -9.925435   -4.979280   -0.529199
     92          1           0       -9.314083   -4.536811   -1.950286
     93          1           0       -8.414663   -5.570979   -1.001176
     94          1           0       -3.484500   -3.415390    0.103102
     95          1           0       -1.745505   -6.106944    2.391973
     96          1           0       -1.998890   -4.561369    3.546277
     97          1           0       -3.312586   -5.678443    3.690260
     98          1           0        2.927562   -2.286032   -0.868669
     99          1           0        2.614066   -0.793593   -2.093470
    100          1           0        4.192675   -0.725574    0.729468
    101          1           0        4.855126    1.576630   -2.873087
    102          1           0        5.783055    0.196917   -3.368049
    103          1           0        3.880713   -0.034231   -3.219253
    104          1           0        6.389803    1.645984   -0.892772
    105          1           0        6.139359    0.297803    0.520897
    106          1           0        7.325303   -1.489403   -0.672196
    107          1           0        7.532713   -0.481414   -2.164754
    108          1           0        9.017027    1.172069   -0.375455
    109          1           0        8.769779   -0.107806    0.878959
    110          1           0       10.194251   -0.419119   -2.069402
    111          1           0        9.153906   -2.537384   -1.747108
    112          1           0       10.785932   -2.723841   -1.172684
    113          1           0        9.645437   -2.720803    0.180033
    114          1           0       11.417914    1.071410   -0.027755
    115          1           0       11.375894   -0.422518    1.029757
    116          1           0       12.939611   -1.542571   -0.614852
    117          1           0       12.794739   -0.185946   -1.915061
    118          1           0       13.943996    1.278217   -0.165325
    119          1           0       14.011050   -0.007105    0.969498
    120          1           0       15.183608    0.354118   -1.517891
    121          1           0       14.942813   -2.250453   -1.021488
    122          1           0       16.610941   -1.844550   -0.806202
    123          1           0       15.442732   -1.942366    0.615206
    124          1           0       15.851771    1.796461    0.341472
    125          1           0       16.039838    0.688655    1.475951
    126          1           0       17.923276   -0.691685    0.032160
    127          1           0       17.983284    0.525457   -1.144704
    128          1           0       18.359720    2.670720    0.549807
    129          1           0       18.452697    1.610774    2.022223
    130          1           0       20.439689    0.398038    0.386274
    131          1           0       20.130615    2.816508   -1.631005
    132          1           0       21.442358    1.682052   -1.333047
    133          1           0       19.797029    1.158660   -1.987506
    134          1           0       20.751358    2.175659    2.484987
    135          1           0       22.274270    1.944498    0.959157
    136          1           0       20.903351    3.469077    0.776205
    137          1           0       -6.917432    1.840561    0.226837
    138          1           0       -7.654681   -0.201592   -0.095146
 ---------------------------------------------------------------------

 SCF Done:  E(RB3LYP) =  -2732.93607696     A.U. after   17 cycles

 Excitation energies and oscillator strengths:

 Excited State   1:      Singlet-A      2.0045 eV  618.53 nm  f=0.2510  <S**2>=0.000
     235 -> 237       -0.13078
     235 -> 238        0.24898
     236 -> 237        0.64056
 This state for optimization and/or second-order correction.
 Total Energy, E(TD-HF/TD-DFT) =  -2732.86241342
 Copying the excited state density for this state as the 1-particle RhoCI density.

 The electronic state is 1-A.
 Alpha  occ. eigenvalues --  -19.19229 -19.16661 -19.14239 -19.12717 -19.12297
 Alpha  occ. eigenvalues --  -14.36542 -14.36454 -14.33045 -14.30046 -10.32459
 Alpha  occ. eigenvalues --  -10.31950 -10.29408 -10.26695 -10.24570 -10.23832
 Alpha  occ. eigenvalues --  -10.23763 -10.23752 -10.23715 -10.23483 -10.23258
 Alpha  occ. eigenvalues --  -10.22983 -10.22347 -10.22309 -10.22267 -10.22211
 Alpha  occ. eigenvalues --  -10.21704 -10.21537 -10.21511 -10.21488 -10.21385
 Alpha  occ. eigenvalues --  -10.21228 -10.21128 -10.21051 -10.20916 -10.20872
 Alpha  occ. eigenvalues --  -10.20861 -10.20744 -10.20689 -10.20661 -10.20517
 Alpha  occ. eigenvalues --  -10.20427 -10.20411 -10.20324 -10.20317 -10.20294
 Alpha  occ. eigenvalues --  -10.20226 -10.20177 -10.20150 -10.20097 -10.19861
 Alpha  occ. eigenvalues --  -10.19851 -10.19700 -10.19658 -10.19027 -10.19009
 Alpha  occ. eigenvalues --  -10.18941 -10.18812 -10.18641 -10.18526 -10.18448
 Alpha  occ. eigenvalues --  -10.18442 -10.18430 -10.17377 -10.16409  -1.08646
 Alpha  occ. eigenvalues --   -1.07948  -1.01080  -0.99034  -0.98881  -0.97553
 Alpha  occ. eigenvalues --   -0.96742  -0.95882  -0.92178  -0.86251  -0.82974
 Alpha  occ. eigenvalues --   -0.82785  -0.82358  -0.81084  -0.80818  -0.80323
 Alpha  occ. eigenvalues --   -0.79730  -0.79238  -0.79158  -0.79008  -0.78230
 Alpha  occ. eigenvalues --   -0.77356  -0.75959  -0.75537  -0.74770  -0.74282
 Alpha  occ. eigenvalues --   -0.74027  -0.73407  -0.72556  -0.71060  -0.70993
 Alpha  occ. eigenvalues --   -0.70349  -0.69298  -0.68296  -0.68051  -0.67578
 Alpha  occ. eigenvalues --   -0.67207  -0.66543  -0.66451  -0.65685  -0.65035
 Alpha  occ. eigenvalues --   -0.64498  -0.63653  -0.62949  -0.62453  -0.61790
 Alpha  occ. eigenvalues --   -0.60983  -0.58770  -0.58160  -0.57828  -0.57613
 Alpha  occ. eigenvalues --   -0.56389  -0.56241  -0.55797  -0.55598  -0.55421
 Alpha  occ. eigenvalues --   -0.54954  -0.54310  -0.54162  -0.53921  -0.53137
 Alpha  occ. eigenvalues --   -0.52732  -0.52046  -0.51629  -0.51388  -0.50821
 Alpha  occ. eigenvalues --   -0.49666  -0.49548  -0.49042  -0.48939  -0.48693
 Alpha  occ. eigenvalues --   -0.48351  -0.47625  -0.47301  -0.47072  -0.46718
 Alpha  occ. eigenvalues --   -0.46420  -0.46267  -0.45808  -0.45496  -0.45434
 Alpha  occ. eigenvalues --   -0.45171  -0.45026  -0.44564  -0.44399  -0.44312
 Alpha  occ. eigenvalues --   -0.44226  -0.43933  -0.43647  -0.43276  -0.43228
 Alpha  occ. eigenvalues --   -0.42903  -0.42859  -0.42519  -0.42341  -0.42173
 Alpha  occ. eigenvalues --   -0.42049  -0.41764  -0.41751  -0.41414  -0.41191
 Alpha  occ. eigenvalues --   -0.40990  -0.40726  -0.40683  -0.40451  -0.40188
 Alpha  occ. eigenvalues --   -0.40133  -0.39796  -0.39768  -0.39648  -0.39540
 Alpha  occ. eigenvalues --   -0.38991  -0.38822  -0.38649  -0.38272  -0.38205
 Alpha  occ. eigenvalues --   -0.38094  -0.37876  -0.37774  -0.37631  -0.37518
 Alpha  occ. eigenvalues --   -0.37321  -0.37159  -0.37077  -0.36844  -0.36688
 Alpha  occ. eigenvalues --   -0.36653  -0.36526  -0.36389  -0.36272  -0.36027
 Alpha  occ. eigenvalues --   -0.35679  -0.35376  -0.35312  -0.35081  -0.35024
 Alpha  occ. eigenvalues --   -0.34922  -0.34591  -0.34549  -0.34109  -0.33850
 Alpha  occ. eigenvalues --   -0.33723  -0.33463  -0.33231  -0.33031  -0.32917
 Alpha  occ. eigenvalues --   -0.32747  -0.32595  -0.32429  -0.32124  -0.30986
 Alpha  occ. eigenvalues --   -0.30894  -0.30671  -0.30606  -0.30422  -0.29985
 Alpha  occ. eigenvalues --   -0.29196  -0.28981  -0.28795  -0.28249  -0.28084
 Alpha  occ. eigenvalues --   -0.27366  -0.27001  -0.26548  -0.25547  -0.24940
 Alpha  occ. eigenvalues --   -0.24629  -0.24520  -0.23722  -0.22368  -0.20584
 Alpha  occ. eigenvalues --   -0.19016
 Alpha virt. eigenvalues --   -0.10982  -0.07865  -0.05602  -0.02974  -0.01929
 Alpha virt. eigenvalues --   -0.01378  -0.00970  -0.00742   0.01792   0.02803
 Alpha virt. eigenvalues --    0.02821   0.02894   0.03666   0.03831   0.03978

 Mulliken charges:
               1
     1  C   -0.087433
     2  C   -0.054990
     3  C   -0.111182
     4  C   -0.108111
     5  N   -0.116827
     6  C   -0.059551
     7  C   -0.063855
     8  C   -0.049363
     9  C   -0.000853
    10  C    0.099273
    11  C    0.077585
    12  C    0.140572
    13  C    0.191745
    14  O   -0.304742
    15  O   -0.318210
    16  N   -0.043758
    17  C    0.033309
    18  C   -0.113207
    19  C    0.041339
    20  C    0.039802
    21  C    0.072838
    22  C   -0.014642
    23  C   -0.047479
    24  N   -0.264930
    25  C    0.153581
    26  C   -0.131117
    27  C   -0.005196
    28  C    0.063040
    29  C   -0.016282
    30  C   -0.036827
    31  C    0.076945
    32  N   -0.166235
    33  C    0.144096
    34  C   -0.125254
    35  C   -0.080450
    36  C    0.189016
    37  C    0.189012
    38  C    0.160624
    39  O   -0.223095
    40  C    0.109265
    41  C    0.159605
    42  O   -0.195958
    43  O   -0.332025
    44  C    0.142128
    45  C    0.231217
    46  C   -0.132241
    47  C   -0.079444
    48  C   -0.066525
    49  C    0.129320
    50  C   -0.064763
    51  C    0.053401
    52  C   -0.091448
    53  C   -0.018722
    54  C   -0.014835
    55  C    0.016253
    56  C    0.051293
    57  C   -0.037283
    58  C    0.020580
    59  C    0.060280
    60  C   -0.032247
    61  C   -0.044142
    62  C   -0.053157
    63  C    0.007570
    64  C   -0.114992
    65  H    0.012851
    66  H    0.006733
    67  H    0.002811
    68  H    0.018919
    69  H    0.017394
    70  H    0.015567
    71  H   -0.010017
    72  H    0.010013
    73  H    0.020526
    74  H    0.026387
    75  H   -0.005728
    76  H   -0.027667
    77  H    0.028410
    78  H    0.003305
    79  H    0.046508
    80  H   -0.017668
    81  H    0.037715
    82  H    0.009331
    83  H    0.057865
    84  H    0.046965
    85  H    0.025329
    86  H    0.026401
    87  H   -0.004679
    88  H   -0.049599
    89  H    0.036514
    90  H   -0.016855
    91  H    0.022378
    92  H   -0.017737
    93  H    0.001860
    94  H   -0.014916
    95  H    0.058831
    96  H    0.003130
    97  H    0.033829
    98  H    0.059178
    99  H    0.031373
   100  H    0.030389
   101  H    0.030549
   102  H    0.044261
   103  H    0.041419
   104  H    0.022127
   105  H   -0.021472
   106  H    0.017620
   107  H    0.021025
   108  H    0.007352
   109  H    0.012117
   110  H    0.020067
   111  H    0.029226
   112  H   -0.000991
   113  H    0.026070
   114  H    0.014605
   115  H    0.005931
   116  H   -0.002168
   117  H   -0.005666
   118  H   -0.024115
   119  H   -0.042117
   120  H   -0.025102
   121  H    0.004695
   122  H    0.015327
   123  H    0.007838
   124  H   -0.044626
   125  H   -0.006107
   126  H    0.008797
   127  H    0.005574
   128  H    0.006161
   129  H   -0.001744
   130  H    0.006831
   131  H    0.008317
   132  H    0.003421
   133  H    0.029394
   134  H    0.067643
   135  H    0.033629
   136  H    0.039290
   137  H    0.093257
   138  H    0.193600
 Sum of Mulliken charges =  -0.00000

 Dipole moment (field-independent basis, Debye):
    X=              2.5260    Y=              5.8074    Z=             -0.1795  Tot=              6.3355
 Quadrupole moment (field-independent basis, Debye-Ang):
   XX=           -359.1032   YY=           -396.4980   ZZ=           -392.0485
   XY=            -27.3797   XZ=              4.6992   YZ=              0.5495

 Normal termination of Gaussian 16 at Mon Aug 19 07:44:56 2019.
