 Gaussian 16, Revision A.03,
 Gaussian 16:  ES64L-G16RevA.03 25-Dec-2016

 --------------------------
 # td=(NStates=1) B3LYP/SVP
 --------------------------

 --
 TD
 --
 Symbolic Z-matrix:
 Charge =  0 Multiplicity = 1

                         Standard orientation:
 ---------------------------------------------------------------------
 Center     Atomic      Atomic             Coordinates (Angstroms)
 Number     Number       Type             X           Y           Z
 ---------------------------------------------------------------------
      1          6           0       -5.070956   -2.015256    0.480089
      2          6           0       -4.607456    2.671703    1.526137
      3          6           0       -9.069531    3.482414   -0.310463
      4          6           0       -9.782286   -1.264356   -0.957779
      5          7           0       -5.140620    0.371547    0.965144
      6          6           0       -4.427100   -0.868267    0.999214
      7          6           0       -3.045840   -0.754478    1.526905
      8          6           0       -3.024796    0.739365    2.159835
      9          6           0       -4.365580    1.305450    1.523712
     10          6           0       -3.139805    0.803868    3.692826
     11          6           0       -2.019006   -0.762233    0.278916
     12          6           0       -0.560097   -1.072946    0.713734
     13          6           0        0.241912   -1.044560   -0.547785
     14          8           0        0.009761   -1.174228   -1.722569
     15          8           0        1.589922   -0.970833   -0.068998
     16          7           0       -6.932665    2.754691    0.550974
     17          6           0       -5.737517    3.404311    1.088960
     18          6           0       -6.027074    4.819368    1.114423
     19          6           0       -7.241877    5.098819    0.498374
     20          6           0       -7.846875    3.740298    0.257828
     21          6           0       -4.924785    5.730715    1.553765
     22          6           0       -7.739914    6.398325    0.397377
     23          6           0       -8.639266    6.881744   -0.508703
     24          7           0       -9.040506    1.061480   -0.539683
     25          6           0       -9.702506    2.230027   -0.624246
     26          6           0      -11.122056    2.127362   -1.034113
     27          6           0      -11.310779    0.792952   -1.255339
     28          6           0      -10.047714    0.123512   -0.917021
     29          6           0      -12.045425    3.302176   -1.275807
     30          6           0      -12.559999    0.103991   -1.696707
     31          6           0      -12.323397   -0.419270   -3.177283
     32          7           0       -7.470518   -1.222906   -0.361110
     33          6           0       -8.681156   -1.943454   -0.660178
     34          6           0       -8.368175   -3.366000   -0.730049
     35          6           0       -6.927180   -3.379516   -0.383994
     36          6           0       -6.465599   -2.024615   -0.024892
     37          6           0       -9.302303   -4.418504   -1.017754
     38          6           0       -5.815528   -4.291069   -0.217590
     39          8           0       -5.897315   -5.551306   -0.311252
     40          6           0       -4.636271   -3.470338    0.353460
     41          6           0       -4.122398   -4.114858    1.659700
     42          8           0       -4.365124   -3.701178    2.810569
     43          8           0       -3.433141   -5.173579    1.409257
     44          6           0       -2.945565   -5.849541    2.663637
     45          6           0        2.595936   -1.225548   -1.092735
     46          6           0        3.887350   -0.870716   -0.534763
     47          6           0        4.884672   -0.091822   -0.969526
     48          6           0        4.681178    0.832678   -2.272595
     49          6           0        6.172478    0.164473   -0.229493
     50          6           0        7.474273   -0.237041   -1.069700
     51          6           0        8.700434   -0.181628   -0.261821
     52          6           0       10.036175   -0.619183   -1.009774
     53          6           0        9.935373   -2.156401   -1.366149
     54          6           0       11.237681   -0.279624   -0.043194
     55          6           0       12.563675   -0.535666   -0.688346
     56          6           0       13.766329   -0.044768    0.055254
     57          6           0       15.258906   -0.108928   -0.610302
     58          6           0       15.492966   -1.652176   -0.593510
     59          6           0       16.195149    0.604943    0.328483
     60          6           0       17.673066    0.540388   -0.063904
     61          6           0       18.496127    1.544632    0.616767
     62          6           0       20.098137    1.626245    0.269892
     63          6           0       20.291983    2.248599   -1.092081
     64          6           0       20.855021    2.369655    1.212617
     65          1           0       -3.890571    3.273036    1.946632
     66          1           0       -9.695516    4.315109   -0.237010
     67          1           0      -10.562571   -1.633972   -1.438609
     68          1           0       -2.738048   -1.555114    2.359886
     69          1           0       -2.164846    1.311074    1.875049
     70          1           0       -2.311661    0.217584    4.285570
     71          1           0       -3.014800    1.883539    4.018390
     72          1           0       -3.926598    0.384312    4.113058
     73          1           0       -2.550766   -1.711730   -0.204979
     74          1           0       -2.196027    0.059730   -0.504312
     75          1           0       -0.146635   -0.227111    1.225853
     76          1           0       -0.490957   -2.094851    1.258722
     77          1           0       -3.905711    5.568486    1.125503
     78          1           0       -5.341865    6.766459    1.712246
     79          1           0       -4.433921    5.572405    2.665387
     80          1           0       -7.283020    7.022173    1.226950
     81          1           0       -8.991476    6.272230   -1.527983
     82          1           0       -9.253878    7.812460   -0.452724
     83          1           0      -12.085820    4.085203   -0.425563
     84          1           0      -11.710401    3.939138   -2.174317
     85          1           0      -13.107528    3.045776   -1.586781
     86          1           0      -12.862467   -0.723302   -0.842699
     87          1           0      -13.431789    0.890224   -1.731739
     88          1           0      -12.022120    0.454660   -3.896060
     89          1           0      -11.420661   -1.059448   -3.556154
     90          1           0      -13.197878   -0.722098   -3.654013
     91          1           0       -9.935415   -4.702020   -0.082683
     92          1           0      -10.188029   -4.287111   -1.827946
     93          1           0       -8.837393   -5.462859   -1.263361
     94          1           0       -3.800095   -3.798029   -0.344583
     95          1           0       -2.298015   -6.812903    2.102466
     96          1           0       -2.196302   -5.359082    3.249330
     97          1           0       -3.924553   -5.937512    3.259629
     98          1           0        2.584686   -2.321361   -1.411930
     99          1           0        2.444834   -0.598813   -2.225804
    100          1           0        4.250824   -1.235350    0.596942
    101          1           0        5.149146    1.775618   -1.977604
    102          1           0        5.185126    0.505701   -3.157115
    103          1           0        3.684717    0.929455   -2.384713
    104          1           0        6.305271    1.229488   -0.027088
    105          1           0        6.193908   -0.459774    0.769765
    106          1           0        7.087224   -1.258065   -1.528696
    107          1           0        7.602714    0.714738   -1.916371
    108          1           0        8.878378    0.874563    0.093804
    109          1           0        8.713505   -0.929150    0.697238
    110          1           0        9.935105    0.092945   -1.794646
    111          1           0        9.126035   -2.418567   -1.959512
    112          1           0       10.863102   -2.360129   -1.917784
    113          1           0        9.885146   -2.829902   -0.508260
    114          1           0       11.387002    0.889194    0.118582
    115          1           0       11.243612   -1.007120    0.878527
    116          1           0       12.740966   -1.687219   -0.742443
    117          1           0       12.607591   -0.122751   -1.644152
    118          1           0       13.535442    1.027776    0.144006
    119          1           0       13.751429   -0.461685    1.065731
    120          1           0       15.422298    0.350528   -1.564365
    121          1           0       14.652620   -2.465845   -1.033989
    122          1           0       16.264567   -2.149008   -1.187530
    123          1           0       15.513938   -2.065420    0.456524
    124          1           0       15.704925    1.730314    0.501708
    125          1           0       16.176314    0.389370    1.554894
    126          1           0       18.084963   -0.478251    0.040923
    127          1           0       17.700813    0.609943   -1.309856
    128          1           0       18.224099    2.594615    0.510299
    129          1           0       18.589363    1.402985    1.757182
    130          1           0       20.472866    0.467942    0.240883
    131          1           0       19.672491    3.271176   -0.964902
    132          1           0       21.564864    2.562346   -1.197276
    133          1           0       19.731202    1.613452   -1.818451
    134          1           0       20.794515    1.809657    2.249280
    135          1           0       21.877440    2.502484    0.915404
    136          1           0       20.453077    3.350566    1.194958
    137          1           0       -7.031813    1.694103    0.415626
    138          1           0       -7.607680   -0.263206   -0.252144
 ---------------------------------------------------------------------

 SCF Done:  E(RB3LYP) =  -2733.04150587     A.U. after   17 cycles

 Excitation energies and oscillator strengths:

 Excited State   1:      Singlet-A      2.0071 eV  617.72 nm  f=0.1490  <S**2>=0.000
     235 -> 238       -0.29550
     236 -> 237        0.62416
 This state for optimization and/or second-order correction.
 Total Energy, E(TD-HF/TD-DFT) =  -2732.96774527
 Copying the excited state density for this state as the 1-particle RhoCI density.

 The electronic state is 1-A.
 Alpha  occ. eigenvalues --  -19.18940 -19.16841 -19.14220 -19.11539 -19.10765
 Alpha  occ. eigenvalues --  -14.36897 -14.36882 -14.32658 -14.30546 -10.32175
 Alpha  occ. eigenvalues --  -10.31382 -10.26992 -10.26988 -10.26178 -10.24654
 Alpha  occ. eigenvalues --  -10.24501 -10.24174 -10.23897 -10.23213 -10.23091
 Alpha  occ. eigenvalues --  -10.22628 -10.22187 -10.22059 -10.22009 -10.21919
 Alpha  occ. eigenvalues --  -10.21826 -10.21718 -10.21718 -10.21687 -10.21666
 Alpha  occ. eigenvalues --  -10.21602 -10.21464 -10.21444 -10.21332 -10.21161
 Alpha  occ. eigenvalues --  -10.21028 -10.20793 -10.20765 -10.20623 -10.20417
 Alpha  occ. eigenvalues --  -10.20158 -10.19966 -10.19924 -10.19755 -10.19716
 Alpha  occ. eigenvalues --  -10.19657 -10.19460 -10.19401 -10.19193 -10.19192
 Alpha  occ. eigenvalues --  -10.19126 -10.19106 -10.19036 -10.19002 -10.18910
 Alpha  occ. eigenvalues --  -10.18857 -10.18845 -10.18819 -10.18650 -10.18118
 Alpha  occ. eigenvalues --  -10.17740 -10.17537 -10.17224 -10.17040  -1.10649
 Alpha  occ. eigenvalues --   -1.08024  -1.00318  -0.98906  -0.98536  -0.97611
 Alpha  occ. eigenvalues --   -0.95823  -0.93143  -0.92625  -0.84026  -0.82693
 Alpha  occ. eigenvalues --   -0.82124  -0.81696  -0.81192  -0.81114  -0.80654
 Alpha  occ. eigenvalues --   -0.80095  -0.79620  -0.79361  -0.78824  -0.77543
 Alpha  occ. eigenvalues --   -0.77041  -0.76446  -0.75444  -0.74648  -0.74077
 Alpha  occ. eigenvalues --   -0.73523  -0.73172  -0.72613  -0.71343  -0.70304
 Alpha  occ. eigenvalues --   -0.70005  -0.69314  -0.68578  -0.67889  -0.67273
 Alpha  occ. eigenvalues --   -0.66829  -0.66360  -0.65833  -0.65652  -0.64588
 Alpha  occ. eigenvalues --   -0.64009  -0.63150  -0.62573  -0.62207  -0.61775
 Alpha  occ. eigenvalues --   -0.60612  -0.58540  -0.58149  -0.57999  -0.57120
 Alpha  occ. eigenvalues --   -0.55891  -0.55760  -0.55142  -0.54923  -0.54768
 Alpha  occ. eigenvalues --   -0.54655  -0.54197  -0.53579  -0.53499  -0.52597
 Alpha  occ. eigenvalues --   -0.51983  -0.51714  -0.51315  -0.50037  -0.49779
 Alpha  occ. eigenvalues --   -0.49585  -0.49312  -0.48846  -0.48772  -0.48631
 Alpha  occ. eigenvalues --   -0.47904  -0.47418  -0.47144  -0.46996  -0.46610
 Alpha  occ. eigenvalues --   -0.46586  -0.46501  -0.46198  -0.45669  -0.45394
 Alpha  occ. eigenvalues --   -0.45212  -0.44913  -0.44846  -0.44695  -0.44514
 Alpha  occ. eigenvalues --   -0.44303  -0.44038  -0.43780  -0.43558  -0.43500
 Alpha  occ. eigenvalues --   -0.43314  -0.43141  -0.42846  -0.42615  -0.42166
 Alpha  occ. eigenvalues --   -0.41960  -0.41779  -0.41586  -0.41268  -0.40837
 Alpha  occ. eigenvalues --   -0.40658  -0.40615  -0.40338  -0.40313  -0.40133
 Alpha  occ. eigenvalues --   -0.39849  -0.39829  -0.39661  -0.39394  -0.39183
 Alpha  occ. eigenvalues --   -0.39059  -0.38713  -0.38524  -0.38468  -0.38327
 Alpha  occ. eigenvalues --   -0.38040  -0.37786  -0.37640  -0.37541  -0.37515
 Alpha  occ. eigenvalues --   -0.37205  -0.37036  -0.36773  -0.36606  -0.36551
 Alpha  occ. eigenvalues --   -0.36506  -0.36324  -0.36199  -0.35872  -0.35646
 Alpha  occ. eigenvalues --   -0.35606  -0.35419  -0.35223  -0.34990  -0.34899
 Alpha  occ. eigenvalues --   -0.34785  -0.34458  -0.34434  -0.34090  -0.33895
 Alpha  occ. eigenvalues --   -0.33607  -0.33201  -0.32989  -0.32500  -0.32192
 Alpha  occ. eigenvalues --   -0.31808  -0.31372  -0.31232  -0.31211  -0.31162
 Alpha  occ. eigenvalues --   -0.30779  -0.30393  -0.30278  -0.30065  -0.29861
 Alpha  occ. eigenvalues --   -0.29390  -0.28598  -0.28486  -0.28024  -0.27982
 Alpha  occ. eigenvalues --   -0.27891  -0.27438  -0.27133  -0.26145  -0.25045
 Alpha  occ. eigenvalues --   -0.24671  -0.23933  -0.23819  -0.23157  -0.19865
 Alpha  occ. eigenvalues --   -0.19040
 Alpha virt. eigenvalues --   -0.10445  -0.08286  -0.05041  -0.02667  -0.01556
 Alpha virt. eigenvalues --   -0.00166   0.00497   0.00627   0.01507   0.03406
 Alpha virt. eigenvalues --    0.03444   0.03656   0.03734   0.04136   0.04272

 Mulliken charges:
               1
     1  C    0.059580
     2  C    0.001264
     3  C   -0.052766
     4  C   -0.003467
     5  N   -0.197904
     6  C   -0.007193
     7  C   -0.080042
     8  C   -0.011010
     9  C    0.011692
    10  C    0.088822
    11  C   -0.055575
    12  C    0.101360
    13  C    0.180154
    14  O   -0.196466
    15  O   -0.368159
    16  N   -0.156557
    17  C    0.106331
    18  C   -0.074204
    19  C    0.053890
    20  C    0.110819
    21  C    0.025705
    22  C   -0.067621
    23  C   -0.094743
    24  N   -0.265984
    25  C    0.048968
    26  C   -0.091649
    27  C   -0.059869
    28  C   -0.011954
    29  C    0.035797
    30  C    0.009601
    31  C   -0.027792
    32  N   -0.006917
    33  C    0.138980
    34  C   -0.008365
    35  C   -0.047426
    36  C    0.085658
    37  C   -0.035612
    38  C    0.052584
    39  O   -0.234133
    40  C   -0.040874
    41  C    0.173139
    42  O   -0.282670
    43  O   -0.256438
    44  C    0.122526
    45  C    0.205843
    46  C   -0.088454
    47  C   -0.186857
    48  C    0.121087
    49  C    0.062747
    50  C   -0.067819
    51  C   -0.010198
    52  C   -0.046540
    53  C    0.075176
    54  C   -0.007950
    55  C    0.060080
    56  C    0.004178
    57  C    0.029214
    58  C   -0.033429
    59  C   -0.078756
    60  C    0.060421
    61  C    0.011569
    62  C   -0.156947
    63  C   -0.035716
    64  C    0.095706
    65  H   -0.084290
    66  H   -0.046551
    67  H   -0.094817
    68  H    0.046243
    69  H   -0.012250
    70  H    0.010878
    71  H    0.014635
    72  H   -0.016390
    73  H    0.030483
    74  H    0.048086
    75  H    0.028187
    76  H    0.074481
    77  H    0.042714
    78  H    0.022225
    79  H    0.019462
    80  H    0.027122
    81  H    0.061706
    82  H    0.040838
    83  H    0.036498
    84  H    0.027231
    85  H    0.016867
    86  H    0.047688
    87  H    0.021969
    88  H    0.009680
    89  H    0.041645
    90  H   -0.001235
    91  H    0.047343
    92  H    0.046611
    93  H    0.057335
    94  H    0.059358
    95  H    0.066165
    96  H    0.042174
    97  H    0.079361
    98  H    0.036312
    99  H    0.052664
   100  H    0.009665
   101  H   -0.000774
   102  H    0.021105
   103  H   -0.012489
   104  H    0.004160
   105  H    0.009931
   106  H    0.037653
   107  H    0.017116
   108  H   -0.000146
   109  H    0.002032
   110  H   -0.028598
   111  H   -0.008336
   112  H    0.012816
   113  H    0.003692
   114  H    0.008406
   115  H    0.014129
   116  H    0.000830
   117  H   -0.030788
   118  H   -0.026375
   119  H   -0.008738
   120  H   -0.002007
   121  H    0.006867
   122  H    0.005154
   123  H    0.012538
   124  H    0.011230
   125  H    0.009495
   126  H    0.010815
   127  H    0.000426
   128  H   -0.013039
   129  H   -0.000060
   130  H   -0.004012
   131  H    0.011283
   132  H    0.037426
   133  H    0.024588
   134  H    0.019932
   135  H   -0.005338
   136  H   -0.020442
   137  H    0.186854
   138  H    0.097732
 Sum of Mulliken charges =  -0.00000

 Dipole moment (field-independent basis, Debye):
    X=              1.0796    Y=              4.4317    Z=              1.0480  Tot=              4.6801
 Quadrupole moment (field-independent basis, Debye-Ang):
   XX=           -354.3662   YY=           -382.2727   ZZ=           -397.0688
   XY=            -32.9471   XZ=             13.6477   YZ=             -2.4019

 Normal termination of Gaussian 16 at Thu Aug 22 01:19:07 2019.
