 Gaussian 16, Revision A.03,
 Gaussian 16:  ES64L-G16RevA.03 25-Dec-2016

 --------------------------
 # td=(NStates=1) B3LYP/SVP
 --------------------------

 --
 TD
 --
 Symbolic Z-matrix:
 Charge =  0 Multiplicity = 1

                         Standard orientation:
 ---------------------------------------------------------------------
 Center     Atomic      Atomic             Coordinates (Angstroms)
 Number     Number       Type             X           Y           Z
 ---------------------------------------------------------------------
      1          6           0       -5.122390   -1.998062    0.519747
      2          6           0       -4.611465    2.697492    1.686202
      3          6           0       -9.045831    3.524961   -0.226514
      4          6           0       -9.802732   -1.250038   -1.018154
      5          7           0       -5.180561    0.314761    1.008469
      6          6           0       -4.490322   -0.826302    0.903928
      7          6           0       -3.041447   -0.762185    1.371335
      8          6           0       -2.954049    0.700217    2.028112
      9          6           0       -4.353128    1.348663    1.544163
     10          6           0       -2.754469    0.635017    3.611035
     11          6           0       -2.027967   -0.945814    0.122719
     12          6           0       -0.616524   -1.144002    0.660051
     13          6           0        0.374743   -1.445564   -0.475724
     14          8           0       -0.071013   -2.070778   -1.497199
     15          8           0        1.616123   -1.067312   -0.184845
     16          7           0       -6.908572    2.816464    0.620920
     17          6           0       -5.765016    3.438197    1.160554
     18          6           0       -5.943765    4.761895    1.182630
     19          6           0       -7.135508    5.123489    0.611829
     20          6           0       -7.823271    3.816554    0.212061
     21          6           0       -4.926052    5.767714    1.699737
     22          6           0       -7.756048    6.413747    0.587079
     23          6           0       -8.594915    6.904233   -0.469760
     24          7           0       -9.146773    1.032192   -0.625570
     25          6           0       -9.758539    2.326381   -0.641419
     26          6           0      -11.138699    2.198459   -1.087739
     27          6           0      -11.352114    0.817397   -1.344267
     28          6           0      -10.064739    0.206907   -0.993854
     29          6           0      -11.965208    3.398425   -1.364474
     30          6           0      -12.549018    0.198396   -1.895198
     31          6           0      -12.371608    0.143120   -3.450965
     32          7           0       -7.578045   -1.182098   -0.225938
     33          6           0       -8.603714   -1.923307   -0.774421
     34          6           0       -8.339232   -3.253943   -0.829538
     35          6           0       -6.947182   -3.333152   -0.298567
     36          6           0       -6.519162   -2.026872    0.047482
     37          6           0       -9.172444   -4.337616   -1.090069
     38          6           0       -5.893516   -4.277175    0.059266
     39          8           0       -5.899472   -5.374087   -0.289417
     40          6           0       -4.764732   -3.450076    0.498429
     41          6           0       -4.213465   -4.068652    1.824848
     42          8           0       -4.444561   -3.473107    2.910733
     43          8           0       -3.494269   -5.120882    1.626595
     44          6           0       -2.932358   -5.836495    2.788007
     45          6           0        2.553986   -1.260822   -1.282245
     46          6           0        3.875130   -0.973297   -0.668965
     47          6           0        4.859683   -0.194508   -1.187349
     48          6           0        4.799180    0.396632   -2.496435
     49          6           0        6.231624    0.008380   -0.386169
     50          6           0        7.439984   -0.665230   -1.010915
     51          6           0        8.811962   -0.333341   -0.251137
     52          6           0       10.144882   -0.844837   -0.874180
     53          6           0       10.077373   -2.402807   -1.179784
     54          6           0       11.241761   -0.481987    0.056393
     55          6           0       12.605557   -0.667835   -0.633522
     56          6           0       13.707015   -0.012295    0.181880
     57          6           0       15.144888   -0.049988   -0.389075
     58          6           0       15.579233   -1.535340   -0.371653
     59          6           0       16.178900    0.905648    0.433981
     60          6           0       17.546420    0.836402   -0.150041
     61          6           0       18.567520    1.844242    0.579512
     62          6           0       19.995140    1.829448    0.076694
     63          6           0       20.198784    2.356288   -1.353783
     64          6           0       20.815605    2.705753    1.097146
     65          1           0       -3.714845    3.370804    2.004784
     66          1           0       -9.745612    4.358053   -0.343907
     67          1           0      -10.697969   -1.801476   -1.435221
     68          1           0       -2.931026   -1.604618    2.083082
     69          1           0       -2.176155    1.381394    1.421563
     70          1           0       -1.558530    0.279346    3.804647
     71          1           0       -2.891017    1.610055    3.953555
     72          1           0       -3.497234    0.038148    4.102581
     73          1           0       -2.206679   -1.554086   -0.649895
     74          1           0       -2.141133   -0.079769   -0.488218
     75          1           0       -0.254413   -0.137035    1.277992
     76          1           0       -0.528308   -1.887600    1.456745
     77          1           0       -4.040680    5.953994    1.021969
     78          1           0       -5.387393    6.840718    2.010099
     79          1           0       -4.482998    5.508371    2.877728
     80          1           0       -7.791599    7.237242    1.446040
     81          1           0       -8.771952    6.261749   -1.261839
     82          1           0       -9.047163    7.655433   -0.130514
     83          1           0      -12.069845    3.956728   -0.325571
     84          1           0      -11.455096    4.097220   -2.187241
     85          1           0      -12.745119    3.079385   -1.939496
     86          1           0      -12.826068   -0.847893   -1.586642
     87          1           0      -13.472922    0.906581   -1.598525
     88          1           0      -12.334521    1.109277   -3.921317
     89          1           0      -11.226019   -0.304804   -3.585728
     90          1           0      -13.014574   -0.513561   -4.108916
     91          1           0      -10.174867   -4.323000   -0.464283
     92          1           0       -9.823566   -4.234965   -2.069690
     93          1           0       -8.581094   -5.240939   -0.919821
     94          1           0       -4.143806   -3.837046   -0.236716
     95          1           0       -2.508014   -6.911096    2.528635
     96          1           0       -2.120862   -5.063008    3.085860
     97          1           0       -3.891184   -5.975267    3.460176
     98          1           0        2.518255   -2.304948   -1.686371
     99          1           0        2.390201   -0.776810   -2.122980
    100          1           0        3.987556   -1.571350    0.302459
    101          1           0        5.053163    1.608360   -2.344409
    102          1           0        5.281766   -0.108640   -3.303123
    103          1           0        3.761117    0.392425   -3.028857
    104          1           0        6.405970    1.122042   -0.517270
    105          1           0        6.185130   -0.372710    0.678119
    106          1           0        7.295248   -1.923466   -1.021253
    107          1           0        7.489733   -0.283272   -2.106624
    108          1           0        8.893628    0.707739    0.046512
    109          1           0        8.544679   -0.667304    0.738593
    110          1           0       10.232742   -0.562110   -1.791160
    111          1           0        9.179271   -2.553939   -1.925570
    112          1           0       10.977779   -2.842701   -1.546163
    113          1           0        9.886916   -3.120260   -0.373363
    114          1           0       11.054374    0.592239    0.278141
    115          1           0       11.131731   -0.869601    1.051968
    116          1           0       12.976217   -1.687561   -0.925553
    117          1           0       12.486725   -0.135366   -1.597214
    118          1           0       13.431447    1.041505    0.286208
    119          1           0       13.523603   -0.290193    1.205784
    120          1           0       15.135897    0.219707   -1.471019
    121          1           0       14.940394   -2.149879   -1.061459
    122          1           0       16.467250   -1.772482   -0.789663
    123          1           0       15.433207   -1.974524    0.597512
    124          1           0       15.921366    2.002820    0.444104
    125          1           0       16.046831    0.543664    1.375247
    126          1           0       17.848816   -0.341808   -0.089290
    127          1           0       17.553727    1.151749   -1.183949
    128          1           0       18.051838    2.917836    0.571782
    129          1           0       18.709483    1.796721    1.716421
    130          1           0       20.428197    0.930891    0.409142
    131          1           0       19.553707    3.290862   -1.490843
    132          1           0       21.168786    2.659406   -1.368198
    133          1           0       19.933742    1.583896   -2.058828
    134          1           0       20.778964    2.346995    2.148822
    135          1           0       21.814648    2.666348    0.743145
    136          1           0       20.226382    3.757301    1.242347
    137          1           0       -7.096263    1.863527    0.629924
    138          1           0       -7.701204   -0.250473   -0.010510
 ---------------------------------------------------------------------

 SCF Done:  E(RB3LYP) =  -2733.03834279     A.U. after   17 cycles

 Excitation energies and oscillator strengths:

 Excited State   1:      Singlet-A      1.9449 eV  637.49 nm  f=0.0863  <S**2>=0.000
     235 -> 237        0.54346
     235 -> 238       -0.14902
     236 -> 237        0.23628
     236 -> 238        0.34895
 This state for optimization and/or second-order correction.
 Total Energy, E(TD-HF/TD-DFT) =  -2732.96686963
 Copying the excited state density for this state as the 1-particle RhoCI density.

 The electronic state is 1-A.
 Alpha  occ. eigenvalues --  -19.19821 -19.19341 -19.12330 -19.11415 -19.11316
 Alpha  occ. eigenvalues --  -14.36511 -14.35483 -14.31682 -14.29292 -10.32168
 Alpha  occ. eigenvalues --  -10.31913 -10.28091 -10.26197 -10.24302 -10.23967
 Alpha  occ. eigenvalues --  -10.23781 -10.23238 -10.23171 -10.22460 -10.22386
 Alpha  occ. eigenvalues --  -10.22371 -10.21749 -10.21668 -10.21439 -10.21319
 Alpha  occ. eigenvalues --  -10.21063 -10.20940 -10.20859 -10.20829 -10.20762
 Alpha  occ. eigenvalues --  -10.20734 -10.20715 -10.20644 -10.20357 -10.20175
 Alpha  occ. eigenvalues --  -10.20137 -10.20111 -10.20109 -10.20099 -10.20025
 Alpha  occ. eigenvalues --  -10.19776 -10.19712 -10.19615 -10.19430 -10.19410
 Alpha  occ. eigenvalues --  -10.19351 -10.18970 -10.18956 -10.18794 -10.18621
 Alpha  occ. eigenvalues --  -10.18371 -10.18307 -10.18262 -10.18123 -10.18089
 Alpha  occ. eigenvalues --  -10.18035 -10.17948 -10.17914 -10.17833 -10.17763
 Alpha  occ. eigenvalues --  -10.17544 -10.17465 -10.17144 -10.16695  -1.10656
 Alpha  occ. eigenvalues --   -1.09836  -1.06177  -0.98499  -0.98460  -0.97664
 Alpha  occ. eigenvalues --   -0.96943  -0.93111  -0.91939  -0.84997  -0.82589
 Alpha  occ. eigenvalues --   -0.82160  -0.81993  -0.81199  -0.80769  -0.80455
 Alpha  occ. eigenvalues --   -0.79597  -0.79535  -0.79313  -0.77847  -0.77240
 Alpha  occ. eigenvalues --   -0.76716  -0.75813  -0.75664  -0.74689  -0.74191
 Alpha  occ. eigenvalues --   -0.73490  -0.73223  -0.71945  -0.71712  -0.70267
 Alpha  occ. eigenvalues --   -0.69435  -0.68766  -0.68056  -0.68029  -0.67664
 Alpha  occ. eigenvalues --   -0.67552  -0.67195  -0.66352  -0.66094  -0.65312
 Alpha  occ. eigenvalues --   -0.64286  -0.62954  -0.62275  -0.61352  -0.61274
 Alpha  occ. eigenvalues --   -0.60869  -0.58781  -0.58408  -0.57914  -0.57585
 Alpha  occ. eigenvalues --   -0.57144  -0.56634  -0.56384  -0.55871  -0.55715
 Alpha  occ. eigenvalues --   -0.55536  -0.54775  -0.54703  -0.53694  -0.53128
 Alpha  occ. eigenvalues --   -0.52652  -0.51742  -0.51271  -0.51029  -0.50526
 Alpha  occ. eigenvalues --   -0.49817  -0.49551  -0.49419  -0.48645  -0.47927
 Alpha  occ. eigenvalues --   -0.47886  -0.47515  -0.47436  -0.46644  -0.46572
 Alpha  occ. eigenvalues --   -0.46265  -0.46074  -0.45921  -0.45709  -0.45598
 Alpha  occ. eigenvalues --   -0.45396  -0.45049  -0.44915  -0.44594  -0.44494
 Alpha  occ. eigenvalues --   -0.44313  -0.44085  -0.43937  -0.43735  -0.43699
 Alpha  occ. eigenvalues --   -0.43380  -0.43336  -0.42999  -0.42613  -0.42391
 Alpha  occ. eigenvalues --   -0.41951  -0.41915  -0.41878  -0.41420  -0.41382
 Alpha  occ. eigenvalues --   -0.41113  -0.40993  -0.40785  -0.40339  -0.40229
 Alpha  occ. eigenvalues --   -0.40113  -0.39667  -0.39383  -0.39140  -0.39037
 Alpha  occ. eigenvalues --   -0.38859  -0.38691  -0.38559  -0.38552  -0.38338
 Alpha  occ. eigenvalues --   -0.38324  -0.37959  -0.37580  -0.37552  -0.37342
 Alpha  occ. eigenvalues --   -0.37328  -0.37150  -0.37024  -0.36816  -0.36488
 Alpha  occ. eigenvalues --   -0.36212  -0.36128  -0.35843  -0.35682  -0.35631
 Alpha  occ. eigenvalues --   -0.35419  -0.35186  -0.34989  -0.34706  -0.34624
 Alpha  occ. eigenvalues --   -0.34516  -0.34236  -0.34153  -0.34124  -0.33959
 Alpha  occ. eigenvalues --   -0.33195  -0.33102  -0.32714  -0.32481  -0.32430
 Alpha  occ. eigenvalues --   -0.32312  -0.31902  -0.31531  -0.31314  -0.30987
 Alpha  occ. eigenvalues --   -0.30885  -0.30650  -0.30593  -0.30458  -0.30387
 Alpha  occ. eigenvalues --   -0.29890  -0.29422  -0.28041  -0.27794  -0.27580
 Alpha  occ. eigenvalues --   -0.26748  -0.26409  -0.26126  -0.25539  -0.24789
 Alpha  occ. eigenvalues --   -0.24672  -0.23975  -0.23940  -0.22101  -0.19240
 Alpha  occ. eigenvalues --   -0.18908
 Alpha virt. eigenvalues --   -0.10513  -0.08412  -0.03505  -0.02011  -0.01143
 Alpha virt. eigenvalues --   -0.00335   0.00114   0.00912   0.02800   0.03296
 Alpha virt. eigenvalues --    0.03527   0.04022   0.04131   0.04580   0.04880

 Mulliken charges:
               1
     1  C    0.092671
     2  C   -0.081847
     3  C   -0.048081
     4  C   -0.082626
     5  N   -0.197144
     6  C   -0.105059
     7  C   -0.031557
     8  C   -0.096676
     9  C    0.025927
    10  C    0.075616
    11  C    0.120672
    12  C    0.010258
    13  C    0.203818
    14  O   -0.303514
    15  O   -0.275974
    16  N   -0.089022
    17  C    0.105726
    18  C   -0.074163
    19  C    0.124243
    20  C    0.126228
    21  C   -0.036870
    22  C   -0.212967
    23  C    0.098988
    24  N   -0.215340
    25  C    0.002256
    26  C   -0.131865
    27  C   -0.078277
    28  C   -0.008451
    29  C    0.093988
    30  C    0.015640
    31  C   -0.036659
    32  N   -0.008498
    33  C    0.134641
    34  C   -0.079509
    35  C   -0.078793
    36  C    0.087368
    37  C    0.047306
    38  C   -0.003910
    39  O   -0.119004
    40  C    0.063790
    41  C    0.162781
    42  O   -0.287001
    43  O   -0.258622
    44  C    0.108988
    45  C    0.354294
    46  C   -0.122884
    47  C   -0.093895
    48  C    0.007937
    49  C    0.069247
    50  C   -0.079058
    51  C    0.048346
    52  C    0.065489
    53  C   -0.021985
    54  C    0.053838
    55  C    0.039965
    56  C    0.050280
    57  C   -0.067759
    58  C    0.069449
    59  C    0.085918
    60  C    0.028093
    61  C   -0.040074
    62  C   -0.083830
    63  C    0.121176
    64  C   -0.025738
    65  H    0.014400
    66  H   -0.035911
    67  H   -0.017383
    68  H    0.021103
    69  H    0.027819
    70  H    0.036180
    71  H   -0.007413
    72  H    0.034089
    73  H   -0.018711
    74  H   -0.026129
    75  H    0.032799
    76  H    0.028706
    77  H    0.055373
    78  H    0.038275
    79  H    0.039450
    80  H    0.041778
    81  H    0.010298
    82  H   -0.042098
    83  H    0.059754
    84  H    0.032083
    85  H   -0.023230
    86  H    0.017161
    87  H    0.027386
    88  H    0.007417
    89  H    0.023598
    90  H    0.022725
    91  H    0.028814
    92  H    0.025296
    93  H    0.054868
    94  H    0.017467
    95  H    0.077226
    96  H    0.068369
    97  H    0.075140
    98  H    0.026439
    99  H   -0.054931
   100  H    0.007401
   101  H    0.040533
   102  H    0.037149
   103  H    0.012467
   104  H    0.006088
   105  H    0.012567
   106  H    0.031048
   107  H    0.009993
   108  H   -0.028040
   109  H   -0.028852
   110  H   -0.062607
   111  H    0.020728
   112  H   -0.003997
   113  H   -0.006800
   114  H   -0.019541
   115  H   -0.019388
   116  H    0.006989
   117  H   -0.017183
   118  H   -0.032513
   119  H   -0.025530
   120  H   -0.014715
   121  H   -0.007149
   122  H   -0.024169
   123  H   -0.002243
   124  H   -0.006197
   125  H   -0.030296
   126  H    0.016718
   127  H   -0.007532
   128  H   -0.006106
   129  H   -0.012157
   130  H   -0.017321
   131  H    0.010489
   132  H   -0.023808
   133  H    0.018293
   134  H    0.009569
   135  H    0.005586
   136  H    0.010774
   137  H    0.112525
   138  H    0.090729
 Sum of Mulliken charges =  -0.00000

 Dipole moment (field-independent basis, Debye):
    X=              3.5623    Y=              2.2551    Z=              0.8312  Tot=              4.2972
 Quadrupole moment (field-independent basis, Debye-Ang):
   XX=           -352.2683   YY=           -376.2996   ZZ=           -392.0560
   XY=            -22.3186   XZ=              3.4732   YZ=             -6.4989

 Normal termination of Gaussian 16 at Sun Aug 25 19:23:24 2019.
