 Gaussian 16, Revision A.03,
 Gaussian 16:  ES64L-G16RevA.03 25-Dec-2016

 --------------------------
 # td=(NStates=1) B3LYP/SVP
 --------------------------

 --
 TD
 --
 Symbolic Z-matrix:
 Charge =  0 Multiplicity = 1

                         Standard orientation:
 ---------------------------------------------------------------------
 Center     Atomic      Atomic             Coordinates (Angstroms)
 Number     Number       Type             X           Y           Z
 ---------------------------------------------------------------------
      1          6           0       -5.157969   -1.940174    0.542757
      2          6           0       -4.791170    2.781159    1.345523
      3          6           0       -9.385464    3.253438   -0.241735
      4          6           0       -9.781570   -1.426454   -0.905354
      5          7           0       -5.306116    0.353200    0.895800
      6          6           0       -4.550685   -0.781587    0.946901
      7          6           0       -3.090107   -0.519763    1.325793
      8          6           0       -3.194679    0.937685    1.943636
      9          6           0       -4.552463    1.390454    1.336678
     10          6           0       -3.166114    1.032541    3.481412
     11          6           0       -2.167657   -0.858378    0.151832
     12          6           0       -0.655742   -0.713326    0.545216
     13          6           0        0.346514   -0.874210   -0.553263
     14          8           0       -0.019693   -1.210795   -1.684828
     15          8           0        1.606023   -0.588929   -0.246454
     16          7           0       -7.057800    2.751249    0.423041
     17          6           0       -6.038351    3.386319    1.046735
     18          6           0       -6.209188    4.810761    0.994096
     19          6           0       -7.537890    4.947287    0.462732
     20          6           0       -8.180058    3.700504    0.173266
     21          6           0       -5.232649    5.885430    1.514591
     22          6           0       -8.095501    6.327118    0.358878
     23          6           0       -9.195868    6.734011   -0.399260
     24          7           0       -9.217775    0.832194   -0.461873
     25          6           0       -9.864563    2.048055   -0.542944
     26          6           0      -11.221189    1.858558   -1.139453
     27          6           0      -11.452718    0.417343   -1.169254
     28          6           0      -10.124947   -0.081032   -0.751374
     29          6           0      -12.153406    2.893501   -1.443475
     30          6           0      -12.618403   -0.313142   -1.667191
     31          6           0      -12.726193   -0.528381   -3.145442
     32          7           0       -7.551525   -1.257080   -0.195989
     33          6           0       -8.539654   -2.099319   -0.603155
     34          6           0       -8.206174   -3.427546   -0.621558
     35          6           0       -6.812257   -3.364272   -0.235950
     36          6           0       -6.430389   -1.980822    0.108634
     37          6           0       -8.953559   -4.704733   -1.029357
     38          6           0       -5.811629   -4.295317   -0.116332
     39          8           0       -5.701000   -5.489401   -0.132512
     40          6           0       -4.483401   -3.314280    0.489358
     41          6           0       -3.985696   -3.875789    1.735415
     42          8           0       -4.296927   -3.490409    2.868562
     43          8           0       -3.169187   -4.902448    1.553921
     44          6           0       -2.547912   -5.592019    2.638720
     45          6           0        2.614959   -0.674696   -1.212186
     46          6           0        3.917969   -0.489997   -0.436218
     47          6           0        5.045669    0.115137   -0.980717
     48          6           0        5.116268    0.829615   -2.314372
     49          6           0        6.263579    0.186117   -0.230295
     50          6           0        7.607142   -0.404518   -0.945306
     51          6           0        8.972407   -0.341738   -0.087891
     52          6           0       10.146538   -0.619160   -0.959924
     53          6           0       10.155926   -2.100485   -1.560306
     54          6           0       11.385494   -0.610290    0.138910
     55          6           0       12.781596   -0.720673   -0.617682
     56          6           0       13.923819   -0.231821    0.338726
     57          6           0       15.351791   -0.362174   -0.282337
     58          6           0       15.714281   -1.868228   -0.657712
     59          6           0       16.377329    0.492665    0.413831
     60          6           0       17.721139    0.716806   -0.210617
     61          6           0       18.732818    1.541329    0.731052
     62          6           0       20.120163    1.788669    0.163286
     63          6           0       20.116358    2.476384   -1.267046
     64          6           0       20.986910    2.456225    1.210795
     65          1           0       -3.857516    3.348041    1.750893
     66          1           0      -10.086616    4.159252   -0.168992
     67          1           0      -10.516098   -2.069278   -1.182606
     68          1           0       -2.807327   -1.288636    2.158321
     69          1           0       -2.293413    1.649521    1.739678
     70          1           0       -2.191846    0.785910    3.741290
     71          1           0       -3.242890    1.980558    3.918328
     72          1           0       -3.947861    0.396781    3.842145
     73          1           0       -2.317453   -1.794530   -0.426353
     74          1           0       -2.248422   -0.100704   -0.680620
     75          1           0       -0.492683    0.164869    1.122536
     76          1           0       -0.559619   -1.596057    1.351943
     77          1           0       -4.524964    6.293367    0.476738
     78          1           0       -5.754773    6.825075    1.796090
     79          1           0       -4.529315    5.588679    2.386682
     80          1           0       -7.851353    7.072595    1.146951
     81          1           0       -9.562155    6.185104   -1.310490
     82          1           0       -9.562616    7.830240   -0.547400
     83          1           0      -12.312701    3.799255   -0.664187
     84          1           0      -11.901220    3.500086   -2.447610
     85          1           0      -13.188097    2.578621   -1.690093
     86          1           0      -12.476935   -1.385945   -1.099026
     87          1           0      -13.551600    0.039791   -1.418516
     88          1           0      -12.920639    0.347334   -3.671949
     89          1           0      -11.537317   -0.774614   -3.444214
     90          1           0      -13.414159   -1.420157   -3.376820
     91          1           0       -9.847458   -4.910904   -0.319204
     92          1           0       -9.571838   -4.759497   -2.043955
     93          1           0       -8.217131   -5.505920   -1.041210
     94          1           0       -3.874034   -3.440368   -0.339060
     95          1           0       -1.979031   -6.401190    2.266121
     96          1           0       -1.981992   -4.990827    3.276083
     97          1           0       -3.360278   -6.036660    3.515586
     98          1           0        2.665758   -1.790385   -1.677302
     99          1           0        2.526745    0.100022   -2.038478
    100          1           0        3.959115   -1.031712    0.532710
    101          1           0        5.825887    1.880716   -2.422964
    102          1           0        5.464802    0.379650   -3.167780
    103          1           0        4.166114    1.193583   -2.800235
    104          1           0        6.524044    1.177964    0.016615
    105          1           0        6.271656   -0.362471    0.837743
    106          1           0        7.428961   -1.394716   -1.296356
    107          1           0        7.949402    0.057404   -1.919319
    108          1           0        8.963607    0.746791    0.291315
    109          1           0        8.938596   -1.096960    0.945355
    110          1           0       10.350449    0.519526   -1.705351
    111          1           0        9.491086   -2.292000   -2.513662
    112          1           0       11.326219   -2.365947   -1.980207
    113          1           0        9.871577   -3.121154   -0.884261
    114          1           0       11.394184    0.375809    0.698798
    115          1           0       11.163304   -1.520854    0.966118
    116          1           0       12.920152   -1.903990   -0.922346
    117          1           0       12.473708   -0.114886   -1.416037
    118          1           0       13.883725    0.852873    0.615182
    119          1           0       13.899275   -0.960470    1.284010
    120          1           0       15.077529    0.145018   -1.289431
    121          1           0       14.907522   -2.151407   -1.435606
    122          1           0       16.835708   -1.876017   -0.966978
    123          1           0       15.737639   -2.532632    0.278205
    124          1           0       15.794089    1.500475    0.514356
    125          1           0       16.515734    0.126562    1.422261
    126          1           0       17.987094   -0.226716   -0.423669
    127          1           0       17.405243    1.228301   -1.252340
    128          1           0       18.305513    2.497670    1.149201
    129          1           0       18.672538    0.885951    1.680103
    130          1           0       20.657943    0.786638    0.115997
    131          1           0       19.530471    3.419238   -1.151071
    132          1           0       21.213181    2.675019   -1.568127
    133          1           0       19.704517    1.873831   -2.126937
    134          1           0       21.027401    1.918650    2.040327
    135          1           0       21.994089    2.688357    0.848175
    136          1           0       20.729973    3.481139    1.383557
    137          1           0       -7.591609    1.674837    0.624027
    138          1           0       -7.803517   -0.171307   -0.265460
 ---------------------------------------------------------------------

 SCF Done:  E(RB3LYP) =  -2733.02202828     A.U. after   16 cycles

 Excitation energies and oscillator strengths:

 Excited State   1:      Singlet-A      2.0501 eV  604.77 nm  f=0.1767  <S**2>=0.000
     235 -> 237       -0.24644
     235 -> 238        0.28996
     236 -> 237        0.57854
     236 -> 238        0.11890
 This state for optimization and/or second-order correction.
 Total Energy, E(TD-HF/TD-DFT) =  -2732.94668892
 Copying the excited state density for this state as the 1-particle RhoCI density.

 The electronic state is 1-A.
 Alpha  occ. eigenvalues --  -19.18546 -19.17070 -19.12690 -19.11638 -19.09979
 Alpha  occ. eigenvalues --  -14.36701 -14.36546 -14.32109 -14.31611 -10.31609
 Alpha  occ. eigenvalues --  -10.30089 -10.27408 -10.26282 -10.24571 -10.24092
 Alpha  occ. eigenvalues --  -10.23812 -10.23691 -10.23427 -10.23081 -10.23045
 Alpha  occ. eigenvalues --  -10.22785 -10.22657 -10.22397 -10.22209 -10.22166
 Alpha  occ. eigenvalues --  -10.21920 -10.21798 -10.21778 -10.21646 -10.21325
 Alpha  occ. eigenvalues --  -10.21142 -10.21080 -10.20934 -10.20877 -10.20864
 Alpha  occ. eigenvalues --  -10.20783 -10.20633 -10.20323 -10.20322 -10.20113
 Alpha  occ. eigenvalues --  -10.20083 -10.20063 -10.19971 -10.19931 -10.19889
 Alpha  occ. eigenvalues --  -10.19722 -10.19699 -10.19698 -10.19645 -10.19518
 Alpha  occ. eigenvalues --  -10.19468 -10.19429 -10.19356 -10.19342 -10.19341
 Alpha  occ. eigenvalues --  -10.19326 -10.19165 -10.19038 -10.18940 -10.18869
 Alpha  occ. eigenvalues --  -10.18113 -10.17761 -10.17521 -10.16196  -1.10531
 Alpha  occ. eigenvalues --   -1.08546  -1.03465  -0.99747  -0.98379  -0.97747
 Alpha  occ. eigenvalues --   -0.95930  -0.94881  -0.93838  -0.84707  -0.82063
 Alpha  occ. eigenvalues --   -0.81744  -0.81206  -0.80743  -0.80429  -0.80322
 Alpha  occ. eigenvalues --   -0.80080  -0.79895  -0.79051  -0.78954  -0.77524
 Alpha  occ. eigenvalues --   -0.76342  -0.76020  -0.75424  -0.74816  -0.74428
 Alpha  occ. eigenvalues --   -0.73823  -0.72726  -0.72292  -0.70601  -0.70070
 Alpha  occ. eigenvalues --   -0.69827  -0.69390  -0.68406  -0.68064  -0.67862
 Alpha  occ. eigenvalues --   -0.67579  -0.66633  -0.66255  -0.65335  -0.65016
 Alpha  occ. eigenvalues --   -0.64685  -0.63093  -0.62673  -0.61717  -0.61292
 Alpha  occ. eigenvalues --   -0.60594  -0.59072  -0.58372  -0.57775  -0.56801
 Alpha  occ. eigenvalues --   -0.56048  -0.55893  -0.55549  -0.55174  -0.55121
 Alpha  occ. eigenvalues --   -0.54371  -0.54025  -0.53499  -0.53479  -0.52537
 Alpha  occ. eigenvalues --   -0.52207  -0.51816  -0.51472  -0.51208  -0.50697
 Alpha  occ. eigenvalues --   -0.49929  -0.49679  -0.48511  -0.47925  -0.47635
 Alpha  occ. eigenvalues --   -0.47372  -0.47238  -0.47166  -0.46941  -0.46781
 Alpha  occ. eigenvalues --   -0.46575  -0.46155  -0.45897  -0.45528  -0.45393
 Alpha  occ. eigenvalues --   -0.45206  -0.45068  -0.44730  -0.44683  -0.44481
 Alpha  occ. eigenvalues --   -0.44277  -0.43873  -0.43581  -0.43428  -0.43129
 Alpha  occ. eigenvalues --   -0.42873  -0.42670  -0.42377  -0.42282  -0.42159
 Alpha  occ. eigenvalues --   -0.41881  -0.41471  -0.41446  -0.41051  -0.40930
 Alpha  occ. eigenvalues --   -0.40864  -0.40767  -0.40490  -0.40358  -0.40012
 Alpha  occ. eigenvalues --   -0.39793  -0.39706  -0.39472  -0.39224  -0.39128
 Alpha  occ. eigenvalues --   -0.39013  -0.38633  -0.38440  -0.38393  -0.38204
 Alpha  occ. eigenvalues --   -0.38111  -0.37993  -0.37780  -0.37630  -0.37374
 Alpha  occ. eigenvalues --   -0.37217  -0.37095  -0.36662  -0.36561  -0.36455
 Alpha  occ. eigenvalues --   -0.36274  -0.35970  -0.35808  -0.35677  -0.35487
 Alpha  occ. eigenvalues --   -0.35263  -0.34977  -0.34743  -0.34610  -0.34476
 Alpha  occ. eigenvalues --   -0.34189  -0.34101  -0.33870  -0.33744  -0.33691
 Alpha  occ. eigenvalues --   -0.33475  -0.33435  -0.32902  -0.32643  -0.32592
 Alpha  occ. eigenvalues --   -0.32321  -0.31818  -0.31567  -0.31261  -0.31230
 Alpha  occ. eigenvalues --   -0.30799  -0.30580  -0.30537  -0.30483  -0.30112
 Alpha  occ. eigenvalues --   -0.29396  -0.28789  -0.28657  -0.28267  -0.27877
 Alpha  occ. eigenvalues --   -0.27307  -0.26881  -0.26271  -0.26146  -0.25943
 Alpha  occ. eigenvalues --   -0.23964  -0.23878  -0.23602  -0.22856  -0.20000
 Alpha  occ. eigenvalues --   -0.19606
 Alpha virt. eigenvalues --   -0.11083  -0.08183  -0.05016  -0.02543  -0.01163
 Alpha virt. eigenvalues --   -0.00567  -0.00221   0.00490   0.01300   0.02416
 Alpha virt. eigenvalues --    0.03314   0.03450   0.03753   0.04132   0.04403

 Mulliken charges:
               1
     1  C   -0.089211
     2  C   -0.092125
     3  C   -0.122364
     4  C   -0.038718
     5  N   -0.155116
     6  C   -0.075085
     7  C    0.003656
     8  C   -0.130637
     9  C    0.031551
    10  C    0.141258
    11  C    0.048505
    12  C   -0.003815
    13  C    0.198941
    14  O   -0.264390
    15  O   -0.270579
    16  N   -0.214851
    17  C    0.121881
    18  C   -0.102703
    19  C    0.060527
    20  C    0.046966
    21  C    0.009801
    22  C   -0.059936
    23  C   -0.106088
    24  N   -0.259743
    25  C    0.165741
    26  C   -0.082920
    27  C   -0.076870
    28  C    0.105413
    29  C   -0.010485
    30  C    0.050775
    31  C   -0.010721
    32  N   -0.077914
    33  C    0.040794
    34  C   -0.058150
    35  C   -0.033806
    36  C    0.256251
    37  C    0.040062
    38  C   -0.011777
    39  O   -0.147034
    40  C   -0.060984
    41  C    0.224167
    42  O   -0.268641
    43  O   -0.279105
    44  C    0.188699
    45  C    0.221201
    46  C   -0.123038
    47  C   -0.027872
    48  C    0.013332
    49  C    0.076761
    50  C   -0.014577
    51  C   -0.020502
    52  C   -0.128125
    53  C   -0.091887
    54  C   -0.070514
    55  C    0.023265
    56  C    0.011406
    57  C   -0.105105
    58  C   -0.019931
    59  C    0.006524
    60  C    0.089262
    61  C   -0.007182
    62  C   -0.079010
    63  C   -0.003125
    64  C    0.113443
    65  H    0.009503
    66  H    0.007374
    67  H   -0.082365
    68  H    0.025632
    69  H    0.005598
    70  H   -0.012423
    71  H   -0.013927
    72  H    0.023867
    73  H    0.032879
    74  H    0.007773
    75  H    0.010166
    76  H    0.040705
    77  H    0.053974
    78  H    0.027216
    79  H    0.057013
    80  H    0.028251
    81  H    0.035256
    82  H    0.041800
    83  H    0.042999
    84  H    0.030891
    85  H    0.010290
    86  H    0.019309
    87  H   -0.016337
    88  H    0.005960
    89  H    0.020043
    90  H    0.037922
    91  H    0.039699
    92  H    0.040507
    93  H    0.047239
    94  H    0.023922
    95  H    0.029157
    96  H    0.008885
    97  H    0.036691
    98  H    0.053347
    99  H    0.034638
   100  H    0.006919
   101  H    0.024096
   102  H    0.004448
   103  H    0.006310
   104  H   -0.005008
   105  H    0.012326
   106  H   -0.007417
   107  H   -0.004779
   108  H    0.008169
   109  H    0.024895
   110  H    0.045442
   111  H    0.036211
   112  H    0.033985
   113  H    0.054519
   114  H    0.009430
   115  H    0.023038
   116  H    0.046614
   117  H   -0.012956
   118  H    0.001738
   119  H    0.008353
   120  H   -0.013117
   121  H    0.043316
   122  H    0.022230
   123  H    0.013995
   124  H   -0.008513
   125  H   -0.023010
   126  H   -0.043365
   127  H    0.004463
   128  H   -0.002761
   129  H   -0.002874
   130  H   -0.006738
   131  H    0.017229
   132  H    0.017679
   133  H    0.030068
   134  H   -0.021802
   135  H   -0.014878
   136  H   -0.021355
   137  H    0.237080
   138  H    0.197019
 Sum of Mulliken charges =  -0.00000

 Dipole moment (field-independent basis, Debye):
    X=              1.1640    Y=              4.9788    Z=              0.1886  Tot=              5.1165
 Quadrupole moment (field-independent basis, Debye-Ang):
   XX=           -329.2192   YY=           -382.3861   ZZ=           -397.7855
   XY=            -25.6709   XZ=             16.1149   YZ=              3.8397

 Normal termination of Gaussian 16 at Thu Aug 22 11:22:01 2019.
