 Gaussian 16, Revision A.03,
 Gaussian 16:  ES64L-G16RevA.03 25-Dec-2016

 --------------------------
 # td=(NStates=1) B3LYP/SVP
 --------------------------

 --
 TD
 --
 Symbolic Z-matrix:
 Charge =  0 Multiplicity = 1

                         Standard orientation:
 ---------------------------------------------------------------------
 Center     Atomic      Atomic             Coordinates (Angstroms)
 Number     Number       Type             X           Y           Z
 ---------------------------------------------------------------------
      1          6           0       -5.217872   -2.041019    0.379428
      2          6           0       -4.720474    2.673279    1.643826
      3          6           0       -9.258375    3.259893   -0.409466
      4          6           0       -9.831489   -1.472607   -0.915978
      5          7           0       -5.353646    0.367328    0.881197
      6          6           0       -4.532533   -0.781749    0.838419
      7          6           0       -3.193932   -0.660644    1.479268
      8          6           0       -3.218557    0.719752    2.108895
      9          6           0       -4.505535    1.386308    1.378563
     10          6           0       -3.158166    0.746789    3.597777
     11          6           0       -2.144973   -0.739488    0.399882
     12          6           0       -0.618791   -0.434659    0.671700
     13          6           0        0.346108   -0.767700   -0.447363
     14          8           0        0.001392   -1.076087   -1.545332
     15          8           0        1.551185   -0.455652    0.001987
     16          7           0       -6.952290    2.839458    0.519978
     17          6           0       -5.972077    3.410314    1.096256
     18          6           0       -6.193532    4.774967    1.214130
     19          6           0       -7.463230    4.957591    0.513104
     20          6           0       -7.933970    3.631374    0.068413
     21          6           0       -5.291894    5.793698    1.820668
     22          6           0       -8.056185    6.275267    0.402898
     23          6           0       -8.926972    6.806428   -0.553748
     24          7           0       -9.120456    0.741585   -0.607546
     25          6           0       -9.854528    2.016262   -0.698528
     26          6           0      -11.256299    1.837962   -1.264099
     27          6           0      -11.385279    0.515523   -1.277891
     28          6           0      -10.053908   -0.135837   -0.916722
     29          6           0      -12.085927    3.034472   -1.456442
     30          6           0      -12.547403   -0.265869   -1.761092
     31          6           0      -12.592245   -0.496763   -3.175935
     32          7           0       -7.491911   -1.260323   -0.242498
     33          6           0       -8.547180   -2.069550   -0.719698
     34          6           0       -8.228453   -3.499208   -0.692591
     35          6           0       -6.819631   -3.456199   -0.291957
     36          6           0       -6.512528   -2.182974    0.082041
     37          6           0       -9.038883   -4.677416   -1.005353
     38          6           0       -5.754863   -4.376906   -0.203723
     39          8           0       -5.542466   -5.533085   -0.160481
     40          6           0       -4.507515   -3.371069    0.321979
     41          6           0       -3.929297   -4.002461    1.625386
     42          8           0       -4.198332   -3.611464    2.729267
     43          8           0       -3.050560   -4.993637    1.316744
     44          6           0       -2.591262   -5.724357    2.416057
     45          6           0        2.561736   -0.569287   -1.038069
     46          6           0        3.952971   -0.432806   -0.490037
     47          6           0        4.933253    0.386209   -0.831056
     48          6           0        4.956910    1.204308   -2.082332
     49          6           0        6.419867    0.322832   -0.137910
     50          6           0        7.490690   -0.239126   -0.920457
     51          6           0        8.734668   -0.146771   -0.078048
     52          6           0        9.987367   -0.608131   -0.773623
     53          6           0       10.194312   -2.080321   -1.133535
     54          6           0       11.299835   -0.160559    0.023193
     55          6           0       12.620807   -0.523800   -0.550215
     56          6           0       13.814881    0.096522    0.251787
     57          6           0       15.196842   -0.148809   -0.417858
     58          6           0       15.352180   -1.758715   -0.790559
     59          6           0       16.331410    0.367826    0.342394
     60          6           0       17.716830    0.458109   -0.214584
     61          6           0       18.712732    1.304731    0.650638
     62          6           0       20.202612    1.371261   -0.000554
     63          6           0       20.158830    2.084011   -1.325153
     64          6           0       21.070544    2.196551    0.990584
     65          1           0       -4.179679    3.204191    2.279211
     66          1           0       -9.933447    4.241110   -0.640315
     67          1           0      -10.563716   -2.142294   -1.134647
     68          1           0       -3.091810   -1.694206    2.136485
     69          1           0       -2.335275    1.334578    1.807317
     70          1           0       -2.338157   -0.174472    3.572186
     71          1           0       -3.047496    1.787233    3.961652
     72          1           0       -4.084069    0.255586    4.016848
     73          1           0       -2.214315   -1.607593   -0.153658
     74          1           0       -2.661897   -0.167052   -0.476320
     75          1           0       -0.628408    0.600510    0.982775
     76          1           0       -0.111749   -0.987643    1.685916
     77          1           0       -4.194017    5.394311    1.504572
     78          1           0       -5.388664    6.739653    1.550920
     79          1           0       -5.278998    5.740052    2.758626
     80          1           0       -7.620598    6.878356    1.238942
     81          1           0       -9.554911    6.185381   -1.387267
     82          1           0       -9.132138    7.986226   -0.488187
     83          1           0      -12.138077    3.602377   -0.394554
     84          1           0      -11.842392    3.972746   -2.155838
     85          1           0      -13.206256    2.687913   -1.727511
     86          1           0      -12.882829   -1.149762   -0.919665
     87          1           0      -13.501607    0.292705   -1.585349
     88          1           0      -12.445889    0.593871   -3.633566
     89          1           0      -11.698665   -1.205442   -3.580526
     90          1           0      -13.517700   -0.905262   -3.618015
     91          1           0       -9.932348   -4.661522   -0.396676
     92          1           0       -9.579469   -4.734131   -1.894275
     93          1           0       -8.671773   -5.732607   -0.741523
     94          1           0       -3.784625   -3.449977   -0.503648
     95          1           0       -1.716531   -6.402931    2.012023
     96          1           0       -2.230255   -5.090149    3.161496
     97          1           0       -3.427951   -6.365230    2.822626
     98          1           0        2.355363   -1.557787   -1.718192
     99          1           0        2.504506    0.328737   -1.734380
    100          1           0        4.172196   -0.990592    0.511839
    101          1           0        5.627724    2.055467   -1.926891
    102          1           0        5.712414    0.749685   -2.892574
    103          1           0        4.048983    1.539985   -2.642392
    104          1           0        6.465409    1.280188    0.274300
    105          1           0        6.333701   -0.226571    0.841694
    106          1           0        7.241220   -1.297786   -1.055547
    107          1           0        7.451650    0.201412   -2.055224
    108          1           0        8.939342    0.933270    0.132030
    109          1           0        8.837444   -0.706710    0.909160
    110          1           0       10.233231    0.112530   -1.742412
    111          1           0        9.020256   -2.534476   -1.441496
    112          1           0       10.797710   -2.162701   -2.288940
    113          1           0       10.598923   -2.813596   -0.337787
    114          1           0       11.181967    0.908209    0.218776
    115          1           0       11.016938   -0.649307    0.862541
    116          1           0       12.708097   -1.623572   -0.489866
    117          1           0       12.647651   -0.135007   -1.636249
    118          1           0       13.766725    1.149888    0.347043
    119          1           0       13.986020   -0.347764    1.228285
    120          1           0       15.069419    0.240448   -1.504659
    121          1           0       14.498131   -1.994179   -1.435470
    122          1           0       16.345146   -1.973371   -1.013048
    123          1           0       14.921398   -2.343451    0.217952
    124          1           0       15.926179    1.348572    0.729385
    125          1           0       16.573245   -0.194180    1.383802
    126          1           0       18.053541   -0.453465   -0.191158
    127          1           0       17.865303    0.696406   -1.372584
    128          1           0       18.335852    2.507857    0.646524
    129          1           0       18.944417    1.016621    1.747896
    130          1           0       20.672943    0.393582   -0.076245
    131          1           0       19.705737    2.931155   -1.569170
    132          1           0       21.109068    2.197007   -1.745157
    133          1           0       19.755570    1.278878   -1.981045
    134          1           0       20.826251    1.697680    2.022072
    135          1           0       22.262630    2.440622    0.565178
    136          1           0       20.475037    3.154669    0.844886
    137          1           0       -6.838885    1.790268    0.307047
    138          1           0       -7.544140   -0.276717   -0.051626
 ---------------------------------------------------------------------

 SCF Done:  E(RB3LYP) =  -2732.91458659     A.U. after   17 cycles

 Excitation energies and oscillator strengths:

 Excited State   1:      Singlet-A      1.8824 eV  658.64 nm  f=0.3060  <S**2>=0.000
     235 -> 237       -0.13880
     235 -> 238        0.19599
     236 -> 237        0.66345
 This state for optimization and/or second-order correction.
 Total Energy, E(TD-HF/TD-DFT) =  -2732.84540903
 Copying the excited state density for this state as the 1-particle RhoCI density.

 The electronic state is 1-A.
 Alpha  occ. eigenvalues --  -19.18827 -19.17457 -19.12944 -19.12765 -19.12493
 Alpha  occ. eigenvalues --  -14.37218 -14.36312 -14.33474 -14.31097 -10.31554
 Alpha  occ. eigenvalues --  -10.31435 -10.27839 -10.26297 -10.24462 -10.24402
 Alpha  occ. eigenvalues --  -10.24182 -10.23495 -10.23440 -10.22700 -10.22494
 Alpha  occ. eigenvalues --  -10.22376 -10.22340 -10.22115 -10.22049 -10.21996
 Alpha  occ. eigenvalues --  -10.21451 -10.21373 -10.21264 -10.20817 -10.20682
 Alpha  occ. eigenvalues --  -10.20664 -10.20627 -10.20349 -10.20245 -10.20222
 Alpha  occ. eigenvalues --  -10.20103 -10.20075 -10.20007 -10.19991 -10.19928
 Alpha  occ. eigenvalues --  -10.19898 -10.19896 -10.19878 -10.19876 -10.19793
 Alpha  occ. eigenvalues --  -10.19663 -10.19609 -10.19337 -10.19255 -10.19243
 Alpha  occ. eigenvalues --  -10.19232 -10.19130 -10.19100 -10.19087 -10.19032
 Alpha  occ. eigenvalues --  -10.18912 -10.18893 -10.18805 -10.18544 -10.18204
 Alpha  occ. eigenvalues --  -10.18123 -10.17898 -10.16974 -10.15984  -1.10868
 Alpha  occ. eigenvalues --   -1.09512  -1.05228  -1.02227  -1.01300  -1.00691
 Alpha  occ. eigenvalues --   -0.97681  -0.92911  -0.92099  -0.85315  -0.83352
 Alpha  occ. eigenvalues --   -0.81903  -0.81251  -0.81170  -0.81077  -0.80955
 Alpha  occ. eigenvalues --   -0.80642  -0.79720  -0.79673  -0.78864  -0.78278
 Alpha  occ. eigenvalues --   -0.76879  -0.75978  -0.75403  -0.75014  -0.74309
 Alpha  occ. eigenvalues --   -0.73857  -0.73247  -0.72308  -0.71705  -0.70832
 Alpha  occ. eigenvalues --   -0.70661  -0.69419  -0.68493  -0.68059  -0.67688
 Alpha  occ. eigenvalues --   -0.67407  -0.66808  -0.66420  -0.65905  -0.65470
 Alpha  occ. eigenvalues --   -0.63195  -0.62426  -0.62261  -0.61695  -0.61146
 Alpha  occ. eigenvalues --   -0.60361  -0.59465  -0.58064  -0.57700  -0.57471
 Alpha  occ. eigenvalues --   -0.56841  -0.56329  -0.56262  -0.55449  -0.55205
 Alpha  occ. eigenvalues --   -0.54799  -0.54146  -0.53505  -0.53091  -0.52671
 Alpha  occ. eigenvalues --   -0.52147  -0.51480  -0.50947  -0.50725  -0.50383
 Alpha  occ. eigenvalues --   -0.49789  -0.49703  -0.49060  -0.48924  -0.48577
 Alpha  occ. eigenvalues --   -0.48154  -0.47813  -0.47422  -0.47127  -0.46996
 Alpha  occ. eigenvalues --   -0.46713  -0.46626  -0.46263  -0.46091  -0.45963
 Alpha  occ. eigenvalues --   -0.45831  -0.45336  -0.45169  -0.44876  -0.44664
 Alpha  occ. eigenvalues --   -0.44589  -0.44501  -0.44396  -0.44007  -0.43719
 Alpha  occ. eigenvalues --   -0.43411  -0.43067  -0.42906  -0.42690  -0.42605
 Alpha  occ. eigenvalues --   -0.42285  -0.42157  -0.42005  -0.41837  -0.41606
 Alpha  occ. eigenvalues --   -0.41254  -0.41113  -0.40830  -0.40609  -0.40518
 Alpha  occ. eigenvalues --   -0.40335  -0.40013  -0.39889  -0.39732  -0.39629
 Alpha  occ. eigenvalues --   -0.39511  -0.39456  -0.39363  -0.39181  -0.38781
 Alpha  occ. eigenvalues --   -0.38728  -0.38461  -0.38192  -0.38184  -0.37921
 Alpha  occ. eigenvalues --   -0.37734  -0.37686  -0.37331  -0.36808  -0.36707
 Alpha  occ. eigenvalues --   -0.36680  -0.36416  -0.35985  -0.35765  -0.35515
 Alpha  occ. eigenvalues --   -0.35088  -0.35056  -0.34796  -0.34511  -0.34410
 Alpha  occ. eigenvalues --   -0.34349  -0.34161  -0.33881  -0.33655  -0.33427
 Alpha  occ. eigenvalues --   -0.33140  -0.32919  -0.32509  -0.32409  -0.32385
 Alpha  occ. eigenvalues --   -0.31809  -0.31712  -0.31563  -0.31009  -0.30769
 Alpha  occ. eigenvalues --   -0.30710  -0.30339  -0.30000  -0.29891  -0.29807
 Alpha  occ. eigenvalues --   -0.29723  -0.28483  -0.28361  -0.28344  -0.27587
 Alpha  occ. eigenvalues --   -0.27491  -0.27489  -0.26774  -0.26249  -0.26089
 Alpha  occ. eigenvalues --   -0.25226  -0.24253  -0.23996  -0.22355  -0.19950
 Alpha  occ. eigenvalues --   -0.18619
 Alpha virt. eigenvalues --   -0.11212  -0.06958  -0.04889  -0.01911  -0.00309
 Alpha virt. eigenvalues --    0.00103   0.00386   0.00737   0.01520   0.02639
 Alpha virt. eigenvalues --    0.03040   0.03852   0.03901   0.04090   0.04253

 Mulliken charges:
               1
     1  C   -0.011247
     2  C   -0.013065
     3  C   -0.092689
     4  C   -0.063682
     5  N   -0.267065
     6  C   -0.020323
     7  C   -0.057153
     8  C   -0.050230
     9  C    0.113611
    10  C    0.045140
    11  C    0.038175
    12  C    0.001972
    13  C    0.190280
    14  O   -0.210653
    15  O   -0.288632
    16  N    0.044319
    17  C   -0.043111
    18  C   -0.189313
    19  C   -0.023295
    20  C    0.045404
    21  C    0.244571
    22  C   -0.044138
    23  C   -0.111998
    24  N   -0.258289
    25  C    0.051934
    26  C   -0.023109
    27  C   -0.097362
    28  C    0.129587
    29  C   -0.043203
    30  C    0.014084
    31  C   -0.015057
    32  N   -0.059424
    33  C    0.083645
    34  C   -0.082695
    35  C   -0.036287
    36  C    0.135474
    37  C    0.130415
    38  C    0.030971
    39  O   -0.114487
    40  C   -0.125318
    41  C    0.211537
    42  O   -0.219581
    43  O   -0.287114
    44  C    0.177550
    45  C    0.221557
    46  C   -0.091986
    47  C   -0.134467
    48  C    0.020632
    49  C    0.044926
    50  C    0.084118
    51  C    0.028873
    52  C   -0.130420
    53  C   -0.091276
    54  C    0.053610
    55  C    0.054950
    56  C    0.058097
    57  C   -0.122743
    58  C   -0.007810
    59  C    0.035700
    60  C    0.121878
    61  C   -0.081374
    62  C   -0.101265
    63  C    0.113198
    64  C   -0.037234
    65  H   -0.080916
    66  H    0.018267
    67  H   -0.076129
    68  H    0.066406
    69  H   -0.002188
    70  H    0.040057
    71  H    0.030995
    72  H    0.027612
    73  H   -0.028386
    74  H    0.009240
    75  H    0.029813
    76  H    0.045513
    77  H    0.024617
    78  H   -0.020166
    79  H   -0.045584
    80  H    0.008584
    81  H    0.061278
    82  H    0.045911
    83  H    0.053816
    84  H    0.058363
    85  H    0.033092
    86  H    0.016854
    87  H   -0.008166
    88  H    0.027755
    89  H    0.023215
    90  H    0.021264
    91  H    0.002796
    92  H    0.001461
    93  H    0.051782
    94  H    0.055005
    95  H    0.041711
    96  H    0.011180
    97  H    0.035142
    98  H    0.070006
    99  H    0.020124
   100  H    0.002370
   101  H   -0.003448
   102  H    0.031883
   103  H    0.038192
   104  H   -0.013632
   105  H   -0.015135
   106  H   -0.001120
   107  H    0.023847
   108  H   -0.000657
   109  H    0.014361
   110  H   -0.001528
   111  H    0.018569
   112  H    0.049979
   113  H    0.046683
   114  H   -0.017353
   115  H   -0.055359
   116  H    0.009018
   117  H    0.005534
   118  H   -0.015226
   119  H   -0.008163
   120  H    0.000693
   121  H    0.021001
   122  H    0.011475
   123  H    0.000890
   124  H   -0.011773
   125  H    0.001435
   126  H   -0.054976
   127  H    0.009125
   128  H    0.017767
   129  H    0.015648
   130  H   -0.004617
   131  H   -0.022708
   132  H   -0.028787
   133  H   -0.008359
   134  H    0.025993
   135  H    0.040354
   136  H    0.011353
   137  H    0.180618
   138  H    0.136617
 Sum of Mulliken charges =  -0.00000

 Dipole moment (field-independent basis, Debye):
    X=              1.2604    Y=              2.3143    Z=              0.0307  Tot=              2.6354
 Quadrupole moment (field-independent basis, Debye-Ang):
   XX=           -338.7119   YY=           -386.4340   ZZ=           -398.7967
   XY=             -8.2419   XZ=              5.5307   YZ=             -0.2288

 Normal termination of Gaussian 16 at Thu Aug 29 03:49:39 2019.
