 Gaussian 16, Revision A.03,
 Gaussian 16:  ES64L-G16RevA.03 25-Dec-2016

 --------------------------
 # td=(NStates=1) B3LYP/SVP
 --------------------------

 --
 TD
 --
 Symbolic Z-matrix:
 Charge =  0 Multiplicity = 1

                         Standard orientation:
 ---------------------------------------------------------------------
 Center     Atomic      Atomic             Coordinates (Angstroms)
 Number     Number       Type             X           Y           Z
 ---------------------------------------------------------------------
      1          6           0       -5.061081   -1.922511    0.380795
      2          6           0       -4.815563    2.863906    1.214929
      3          6           0       -9.609140    3.142949   -0.227187
      4          6           0       -9.831883   -1.686373   -0.788681
      5          7           0       -5.255161    0.461988    0.771287
      6          6           0       -4.415737   -0.660978    0.700113
      7          6           0       -2.985510   -0.355571    1.241734
      8          6           0       -3.101863    1.020871    1.755978
      9          6           0       -4.444550    1.497600    1.272332
     10          6           0       -3.002954    1.073696    3.249049
     11          6           0       -1.980246   -0.717184    0.130319
     12          6           0       -0.509395   -0.597443    0.553085
     13          6           0        0.501475   -0.805958   -0.512867
     14          8           0        0.172806   -1.216000   -1.594384
     15          8           0        1.729759   -0.537774   -0.092906
     16          7           0       -7.177941    2.732218    0.432156
     17          6           0       -6.135257    3.406973    0.895978
     18          6           0       -6.526038    4.869689    0.962285
     19          6           0       -7.894964    4.862000    0.523668
     20          6           0       -8.341733    3.586322    0.222298
     21          6           0       -5.563310    5.889464    1.330188
     22          6           0       -8.617512    6.171712    0.226384
     23          6           0       -9.641168    6.452513   -0.631835
     24          7           0       -9.406903    0.671307   -0.277872
     25          6           0      -10.025108    1.779675   -0.461097
     26          6           0      -11.451349    1.575248   -1.000959
     27          6           0      -11.409916    0.242202   -1.234666
     28          6           0      -10.106091   -0.347886   -0.808759
     29          6           0      -12.417973    2.688435   -1.217495
     30          6           0      -12.644847   -0.617685   -1.614324
     31          6           0      -12.747204   -0.945886   -3.111894
     32          7           0       -7.518792   -1.318079   -0.151208
     33          6           0       -8.563609   -2.136308   -0.562986
     34          6           0       -8.047531   -3.511863   -0.536105
     35          6           0       -6.734056   -3.417636   -0.065877
     36          6           0       -6.415315   -2.112823    0.082469
     37          6           0       -8.851562   -4.654873   -0.906420
     38          6           0       -5.523181   -4.255536    0.080884
     39          8           0       -5.368104   -5.496404    0.001760
     40          6           0       -4.375848   -3.180890    0.401380
     41          6           0       -3.756184   -3.716630    1.694907
     42          8           0       -4.091776   -3.230022    2.811879
     43          8           0       -2.866481   -4.717852    1.499862
     44          6           0       -2.078522   -5.211382    2.605055
     45          6           0        2.700850   -0.818043   -1.134309
     46          6           0        4.043597   -0.433191   -0.550762
     47          6           0        5.030277    0.329519   -0.997008
     48          6           0        4.862951    1.051460   -2.342213
     49          6           0        6.306747    0.414694   -0.270450
     50          6           0        7.522900   -0.265069   -0.789011
     51          6           0        8.922723   -0.104392   -0.130184
     52          6           0       10.249531   -0.670602   -0.883792
     53          6           0       10.096048   -2.255248   -1.142915
     54          6           0       11.327697   -0.197676    0.072459
     55          6           0       12.708045   -0.544004   -0.576717
     56          6           0       13.921399   -0.137279    0.250407
     57          6           0       15.304429   -0.274113   -0.477169
     58          6           0       15.655683   -1.784664   -0.546664
     59          6           0       16.331867    0.460700    0.408990
     60          6           0       17.606455    0.584976   -0.244558
     61          6           0       18.601366    1.450767    0.582510
     62          6           0       20.105706    1.629282    0.167485
     63          6           0       20.314663    2.157388   -1.245995
     64          6           0       20.991791    2.400313    1.190864
     65          1           0       -4.395090    3.586624    1.802967
     66          1           0      -10.207486    3.986455   -0.053520
     67          1           0      -10.486226   -2.543334   -1.030766
     68          1           0       -2.736571   -0.985285    2.004993
     69          1           0       -2.383083    1.643357    1.270309
     70          1           0       -2.133645    0.501168    3.454292
     71          1           0       -2.812402    2.184191    3.613485
     72          1           0       -3.869312    0.653772    3.763369
     73          1           0       -2.067910   -1.624447   -0.212161
     74          1           0       -2.067223   -0.036687   -0.557812
     75          1           0       -0.372740    0.482544    1.045521
     76          1           0       -0.374508   -1.324786    1.378165
     77          1           0       -4.540280    5.836262    0.886923
     78          1           0       -5.957947    7.042161    0.984688
     79          1           0       -5.377323    6.110774    2.275701
     80          1           0       -8.325070    7.163219    0.710437
     81          1           0      -10.007739    5.677256   -1.270954
     82          1           0       -9.817808    7.529712   -0.802150
     83          1           0      -12.402954    2.994775   -0.143552
     84          1           0      -12.045263    3.460764   -1.805644
     85          1           0      -13.444989    2.317738   -1.727421
     86          1           0      -12.863816   -1.449318   -1.175807
     87          1           0      -13.538154   -0.002717   -1.274398
     88          1           0      -12.833450   -0.106872   -3.863915
     89          1           0      -11.764276   -1.442944   -3.438055
     90          1           0      -13.709576   -1.461846   -3.299471
     91          1           0       -9.548554   -4.793077    0.134226
     92          1           0       -9.378375   -4.457225   -1.766130
     93          1           0       -8.267980   -5.598371   -0.942592
     94          1           0       -3.470535   -3.344729   -0.186394
     95          1           0       -1.040801   -5.660268    2.317805
     96          1           0       -1.830456   -4.295871    3.435767
     97          1           0       -2.844032   -5.917208    3.269507
     98          1           0        2.601846   -1.893629   -1.250291
     99          1           0        2.476670   -0.381455   -2.134103
    100          1           0        4.109776   -0.895830    0.380338
    101          1           0        5.413953    1.981058   -2.182353
    102          1           0        5.384619    0.478105   -3.075893
    103          1           0        3.795075    1.137827   -2.821368
    104          1           0        6.689591    1.542925   -0.091317
    105          1           0        5.862355   -0.025594    0.714257
    106          1           0        7.218706   -1.401006   -0.698262
    107          1           0        7.648973    0.221073   -1.903242
    108          1           0        8.993511    1.052402    0.182200
    109          1           0        8.884673   -0.641934    0.753959
    110          1           0       10.124531   -0.188098   -1.762192
    111          1           0        9.101819   -2.333431   -1.709475
    112          1           0       10.730022   -2.800421   -1.965595
    113          1           0       10.126536   -2.803505   -0.168328
    114          1           0       11.269663    0.843892    0.278336
    115          1           0       11.355715   -0.683190    1.065482
    116          1           0       12.836807   -1.533315   -0.842274
    117          1           0       12.686447    0.078239   -1.562436
    118          1           0       13.866334    0.905539    0.633399
    119          1           0       13.959718   -0.648426    1.174775
    120          1           0       15.283913    0.155688   -1.534336
    121          1           0       14.783165   -2.305026   -1.003706
    122          1           0       16.548033   -1.867290   -1.217654
    123          1           0       15.970264   -2.317540    0.278656
    124          1           0       15.972527    1.487071    0.469973
    125          1           0       16.477753    0.121496    1.439675
    126          1           0       18.090797   -0.557090   -0.137915
    127          1           0       17.440939    1.090766   -1.370891
    128          1           0       18.109688    2.539914    0.652126
    129          1           0       18.756086    1.083898    1.487119
    130          1           0       20.469450    0.748285    0.067824
    131          1           0       20.040103    3.116392   -1.259861
    132          1           0       21.409088    2.159691   -1.544317
    133          1           0       19.647561    1.488701   -2.005929
    134          1           0       20.884515    1.998682    2.155023
    135          1           0       21.998877    2.250089    0.992642
    136          1           0       20.723235    3.421881    1.136106
    137          1           0       -7.212599    1.722837    0.029639
    138          1           0       -7.593250   -0.299016    0.020683
 ---------------------------------------------------------------------

 SCF Done:  E(RB3LYP) =  -2733.06095959     A.U. after   17 cycles

 Excitation energies and oscillator strengths:

 Excited State   1:      Singlet-A      1.9588 eV  632.97 nm  f=0.1997  <S**2>=0.000
     235 -> 238        0.28456
     236 -> 237        0.64066
 This state for optimization and/or second-order correction.
 Total Energy, E(TD-HF/TD-DFT) =  -2732.98897603
 Copying the excited state density for this state as the 1-particle RhoCI density.

 The electronic state is 1-A.
 Alpha  occ. eigenvalues --  -19.19213 -19.18724 -19.12557 -19.12541 -19.12041
 Alpha  occ. eigenvalues --  -14.37159 -14.36664 -14.32742 -14.30185 -10.32281
 Alpha  occ. eigenvalues --  -10.31409 -10.28547 -10.28174 -10.25119 -10.24416
 Alpha  occ. eigenvalues --  -10.23786 -10.23491 -10.23202 -10.23045 -10.22965
 Alpha  occ. eigenvalues --  -10.21953 -10.21520 -10.21480 -10.21360 -10.21320
 Alpha  occ. eigenvalues --  -10.21294 -10.21172 -10.20687 -10.20657 -10.20472
 Alpha  occ. eigenvalues --  -10.20379 -10.20352 -10.20301 -10.20293 -10.20264
 Alpha  occ. eigenvalues --  -10.20157 -10.20104 -10.19999 -10.19745 -10.19688
 Alpha  occ. eigenvalues --  -10.19441 -10.19413 -10.19405 -10.19343 -10.19284
 Alpha  occ. eigenvalues --  -10.19153 -10.19085 -10.18974 -10.18708 -10.18364
 Alpha  occ. eigenvalues --  -10.18304 -10.18215 -10.18208 -10.17884 -10.17777
 Alpha  occ. eigenvalues --  -10.17711 -10.17667 -10.17182 -10.17174 -10.17158
 Alpha  occ. eigenvalues --  -10.17153 -10.17125 -10.16867 -10.16383  -1.10985
 Alpha  occ. eigenvalues --   -1.08687  -1.01804  -1.00679  -0.98544  -0.98025
 Alpha  occ. eigenvalues --   -0.96906  -0.95226  -0.92714  -0.86086  -0.83296
 Alpha  occ. eigenvalues --   -0.82454  -0.82186  -0.81399  -0.81020  -0.80865
 Alpha  occ. eigenvalues --   -0.80062  -0.79610  -0.79513  -0.78955  -0.78638
 Alpha  occ. eigenvalues --   -0.77198  -0.76083  -0.75947  -0.75321  -0.74596
 Alpha  occ. eigenvalues --   -0.74253  -0.73561  -0.72474  -0.71709  -0.71279
 Alpha  occ. eigenvalues --   -0.70434  -0.69124  -0.68519  -0.68176  -0.67940
 Alpha  occ. eigenvalues --   -0.67688  -0.67344  -0.67046  -0.65899  -0.65384
 Alpha  occ. eigenvalues --   -0.64670  -0.63439  -0.62011  -0.61481  -0.61092
 Alpha  occ. eigenvalues --   -0.60539  -0.59379  -0.58507  -0.58378  -0.57327
 Alpha  occ. eigenvalues --   -0.57304  -0.56939  -0.56422  -0.56220  -0.55584
 Alpha  occ. eigenvalues --   -0.55367  -0.55074  -0.54847  -0.53630  -0.52903
 Alpha  occ. eigenvalues --   -0.52863  -0.52334  -0.52179  -0.51485  -0.50826
 Alpha  occ. eigenvalues --   -0.49908  -0.49227  -0.49068  -0.49009  -0.48591
 Alpha  occ. eigenvalues --   -0.48549  -0.48141  -0.47792  -0.47645  -0.47185
 Alpha  occ. eigenvalues --   -0.46825  -0.46472  -0.46234  -0.46147  -0.46069
 Alpha  occ. eigenvalues --   -0.45641  -0.45503  -0.45381  -0.45014  -0.44902
 Alpha  occ. eigenvalues --   -0.44647  -0.44392  -0.44128  -0.44009  -0.43691
 Alpha  occ. eigenvalues --   -0.43346  -0.43236  -0.43168  -0.42917  -0.42604
 Alpha  occ. eigenvalues --   -0.42272  -0.42212  -0.42000  -0.41707  -0.41615
 Alpha  occ. eigenvalues --   -0.41490  -0.41107  -0.40835  -0.40754  -0.40578
 Alpha  occ. eigenvalues --   -0.40431  -0.40363  -0.40117  -0.39731  -0.39529
 Alpha  occ. eigenvalues --   -0.39376  -0.39290  -0.39144  -0.38921  -0.38891
 Alpha  occ. eigenvalues --   -0.38399  -0.38233  -0.38205  -0.38082  -0.37917
 Alpha  occ. eigenvalues --   -0.37526  -0.37293  -0.37279  -0.37017  -0.36859
 Alpha  occ. eigenvalues --   -0.36806  -0.36513  -0.36304  -0.35977  -0.35872
 Alpha  occ. eigenvalues --   -0.35726  -0.35494  -0.35333  -0.35041  -0.34980
 Alpha  occ. eigenvalues --   -0.34686  -0.34342  -0.34242  -0.34102  -0.33909
 Alpha  occ. eigenvalues --   -0.33755  -0.33395  -0.33302  -0.32788  -0.32396
 Alpha  occ. eigenvalues --   -0.32272  -0.32020  -0.31695  -0.31659  -0.31603
 Alpha  occ. eigenvalues --   -0.31429  -0.31076  -0.30773  -0.30667  -0.30273
 Alpha  occ. eigenvalues --   -0.30122  -0.29075  -0.28378  -0.28017  -0.27949
 Alpha  occ. eigenvalues --   -0.27655  -0.27080  -0.26434  -0.25635  -0.25590
 Alpha  occ. eigenvalues --   -0.25380  -0.24888  -0.23654  -0.22855  -0.20005
 Alpha  occ. eigenvalues --   -0.18630
 Alpha virt. eigenvalues --   -0.10531  -0.07695  -0.04909  -0.02146  -0.00616
 Alpha virt. eigenvalues --   -0.00293  -0.00106   0.00243   0.01613   0.03534
 Alpha virt. eigenvalues --    0.03942   0.04231   0.04243   0.04502   0.04758

 Mulliken charges:
               1
     1  C    0.061104
     2  C    0.020346
     3  C   -0.063272
     4  C   -0.113010
     5  N   -0.240195
     6  C   -0.059051
     7  C    0.042081
     8  C    0.022754
     9  C    0.002925
    10  C    0.090162
    11  C    0.216615
    12  C   -0.035386
    13  C    0.176319
    14  O   -0.234985
    15  O   -0.292797
    16  N   -0.118698
    17  C    0.003444
    18  C   -0.086194
    19  C    0.073383
    20  C    0.014369
    21  C    0.067444
    22  C   -0.083899
    23  C   -0.033679
    24  N   -0.150452
    25  C    0.051272
    26  C   -0.166101
    27  C   -0.099600
    28  C    0.125528
    29  C    0.112020
    30  C    0.126766
    31  C   -0.031986
    32  N   -0.068294
    33  C    0.061520
    34  C   -0.167285
    35  C    0.017096
    36  C    0.123309
    37  C    0.083780
    38  C    0.090545
    39  O   -0.199380
    40  C   -0.090097
    41  C    0.204310
    42  O   -0.272313
    43  O   -0.287696
    44  C    0.071712
    45  C    0.288922
    46  C   -0.085420
    47  C   -0.120422
    48  C    0.067092
    49  C    0.025713
    50  C   -0.009191
    51  C   -0.001194
    52  C   -0.014924
    53  C   -0.030617
    54  C    0.078449
    55  C    0.063627
    56  C    0.066512
    57  C   -0.083551
    58  C    0.048191
    59  C    0.064892
    60  C   -0.043174
    61  C    0.050367
    62  C   -0.016625
    63  C    0.015237
    64  C    0.095006
    65  H   -0.048274
    66  H   -0.020013
    67  H   -0.011233
    68  H   -0.045776
    69  H   -0.021447
    70  H   -0.000170
    71  H    0.022539
    72  H    0.034011
    73  H   -0.046166
    74  H   -0.052323
    75  H    0.035983
    76  H    0.024085
    77  H    0.033909
    78  H    0.021106
    79  H   -0.006715
    80  H    0.014822
    81  H    0.012981
    82  H    0.031200
    83  H    0.042050
    84  H    0.012819
    85  H    0.042187
    86  H   -0.054946
    87  H   -0.011601
    88  H    0.004088
    89  H    0.020237
    90  H    0.009912
    91  H    0.059240
    92  H    0.021773
    93  H    0.042889
    94  H    0.048623
    95  H    0.075527
    96  H    0.053801
    97  H    0.070754
    98  H    0.008561
    99  H    0.022366
   100  H   -0.037207
   101  H    0.011638
   102  H    0.016835
   103  H    0.034968
   104  H    0.006169
   105  H    0.009204
   106  H    0.018385
   107  H    0.007482
   108  H    0.008101
   109  H   -0.028945
   110  H   -0.035913
   111  H    0.021303
   112  H    0.031748
   113  H    0.027225
   114  H   -0.017063
   115  H   -0.010804
   116  H   -0.025334
   117  H   -0.010462
   118  H   -0.030959
   119  H   -0.035479
   120  H    0.000374
   121  H    0.003961
   122  H    0.004735
   123  H   -0.012209
   124  H   -0.026307
   125  H   -0.008976
   126  H    0.006283
   127  H    0.026664
   128  H   -0.005737
   129  H   -0.047828
   130  H   -0.069794
   131  H   -0.033654
   132  H    0.004733
   133  H    0.027336
   134  H   -0.015816
   135  H   -0.016163
   136  H   -0.000474
   137  H    0.184472
   138  H    0.147383
 Sum of Mulliken charges =  -0.00000

 Dipole moment (field-independent basis, Debye):
    X=              3.7110    Y=              3.2636    Z=              0.7210  Tot=              4.9943
 Quadrupole moment (field-independent basis, Debye-Ang):
   XX=           -363.7969   YY=           -383.4623   ZZ=           -397.3622
   XY=            -24.0003   XZ=             18.9531   YZ=             -1.3879

 Normal termination of Gaussian 16 at Fri Aug 16 12:17:52 2019.
