 Gaussian 16, Revision A.03,
 Gaussian 16:  ES64L-G16RevA.03 25-Dec-2016

 --------------------------
 # td=(NStates=1) B3LYP/SVP
 --------------------------

 --
 TD
 --
 Symbolic Z-matrix:
 Charge =  0 Multiplicity = 1

                         Standard orientation:
 ---------------------------------------------------------------------
 Center     Atomic      Atomic             Coordinates (Angstroms)
 Number     Number       Type             X           Y           Z
 ---------------------------------------------------------------------
      1          6           0       -5.156772   -1.954183    0.421966
      2          6           0       -4.752512    2.774962    1.370861
      3          6           0       -9.355480    3.346581   -0.191565
      4          6           0       -9.956510   -1.457926   -0.690897
      5          7           0       -5.131735    0.341800    0.787290
      6          6           0       -4.450120   -0.732672    0.715152
      7          6           0       -3.043950   -0.591561    1.189949
      8          6           0       -3.063746    0.836716    1.785391
      9          6           0       -4.385482    1.422384    1.291328
     10          6           0       -2.916908    0.859723    3.355586
     11          6           0       -2.005709   -0.640658   -0.016839
     12          6           0       -0.504418   -0.753359    0.390810
     13          6           0        0.401331   -0.980814   -0.790853
     14          8           0        0.071461   -1.300058   -1.863603
     15          8           0        1.662454   -0.697541   -0.412024
     16          7           0       -7.051926    2.761064    0.426339
     17          6           0       -5.941734    3.388806    0.927681
     18          6           0       -6.227859    4.848324    0.955140
     19          6           0       -7.457711    4.999924    0.406775
     20          6           0       -8.093053    3.630440    0.112216
     21          6           0       -5.302203    5.860793    1.413979
     22          6           0       -8.168003    6.285711    0.112653
     23          6           0       -9.005576    6.547472   -0.783982
     24          7           0       -9.218107    0.879562   -0.246627
     25          6           0       -9.923045    1.989823   -0.406533
     26          6           0      -11.347869    1.773903   -0.793814
     27          6           0      -11.372522    0.453944   -0.958467
     28          6           0      -10.120539   -0.088952   -0.554475
     29          6           0      -12.387686    2.918673   -0.994633
     30          6           0      -12.664387   -0.347302   -1.296337
     31          6           0      -12.789463   -0.425077   -2.797084
     32          7           0       -7.562037   -1.286877   -0.182794
     33          6           0       -8.616094   -2.059570   -0.498869
     34          6           0       -8.140983   -3.459144   -0.546401
     35          6           0       -6.849349   -3.414854   -0.164543
     36          6           0       -6.501672   -2.126613    0.135462
     37          6           0       -9.017195   -4.652847   -1.038370
     38          6           0       -5.756115   -4.308541    0.124143
     39          8           0       -5.695562   -5.481029    0.007753
     40          6           0       -4.492689   -3.290834    0.368511
     41          6           0       -3.728561   -3.718762    1.661216
     42          8           0       -3.920727   -3.178618    2.730090
     43          8           0       -3.088422   -4.871245    1.362657
     44          6           0       -2.358131   -5.535115    2.478530
     45          6           0        2.642778   -0.981035   -1.471411
     46          6           0        3.981341   -0.647349   -0.701293
     47          6           0        4.980685    0.112356   -1.096850
     48          6           0        4.955319    0.770526   -2.425672
     49          6           0        6.247057    0.263071   -0.294277
     50          6           0        7.523454   -0.319811   -1.090437
     51          6           0        8.745019   -0.239168   -0.298969
     52          6           0       10.091289   -0.694876   -0.892196
     53          6           0       10.143602   -2.252312   -0.919761
     54          6           0       11.261238   -0.273882    0.006816
     55          6           0       12.663162   -0.578954   -0.560337
     56          6           0       13.818801   -0.033074    0.244037
     57          6           0       15.216826   -0.295477   -0.381911
     58          6           0       15.450992   -1.772523   -0.402153
     59          6           0       16.096404    0.515016    0.523986
     60          6           0       17.610256    0.629519   -0.062789
     61          6           0       18.582267    1.575688    0.778020
     62          6           0       19.993293    1.681277    0.250775
     63          6           0       20.244266    2.282556   -1.165448
     64          6           0       20.927799    2.508060    1.289213
     65          1           0       -3.921102    3.385581    1.759838
     66          1           0      -10.059185    4.269346   -0.181335
     67          1           0      -10.702258   -2.381978   -0.825080
     68          1           0       -2.591193   -1.287609    1.868332
     69          1           0       -2.249057    1.514651    1.367439
     70          1           0       -1.973645    0.482825    3.618853
     71          1           0       -3.131847    1.909353    3.840487
     72          1           0       -3.679605    0.288791    3.859506
     73          1           0       -2.172215   -1.362126   -0.676417
     74          1           0       -2.184602    0.375938   -0.646614
     75          1           0       -0.165382    0.254115    0.980817
     76          1           0       -0.550768   -1.626725    1.117344
     77          1           0       -4.376529    5.744412    0.960314
     78          1           0       -5.690994    6.794930    1.243370
     79          1           0       -5.153755    5.917821    2.408861
     80          1           0       -7.886754    7.175130    0.710148
     81          1           0       -9.427446    5.954581   -1.505207
     82          1           0       -9.468154    7.595778   -0.802329
     83          1           0      -12.170891    3.548195   -0.122656
     84          1           0      -12.009769    3.664587   -1.802090
     85          1           0      -13.399843    2.669466   -1.129895
     86          1           0      -12.662205   -1.359976   -0.856279
     87          1           0      -13.345407    0.452049   -1.015154
     88          1           0      -12.655107    0.578108   -3.180130
     89          1           0      -12.013452   -1.108979   -3.034927
     90          1           0      -13.705174   -0.911554   -3.127163
     91          1           0       -9.947775   -4.694665   -0.390092
     92          1           0       -9.394830   -4.525886   -2.056836
     93          1           0       -8.680240   -5.849406   -0.906132
     94          1           0       -3.903546   -3.476155   -0.458947
     95          1           0       -1.876144   -6.372705    1.708347
     96          1           0       -1.610623   -4.763357    2.857928
     97          1           0       -3.105077   -6.225526    3.027199
     98          1           0        2.589055   -2.114679   -1.715549
     99          1           0        2.803116   -0.257243   -2.423812
    100          1           0        4.115169   -1.326282    0.175811
    101          1           0        5.473149    1.807737   -2.479985
    102          1           0        5.598395    0.113926   -2.976827
    103          1           0        4.153087    0.665918   -3.157246
    104          1           0        6.433776    1.404405   -0.031716
    105          1           0        6.019104   -0.427179    0.572306
    106          1           0        7.136705   -1.265237   -1.453617
    107          1           0        7.720508    0.144487   -2.032582
    108          1           0        8.846711    0.907620   -0.094412
    109          1           0        8.542678   -0.843692    0.667284
    110          1           0       10.358352   -0.133298   -1.804435
    111          1           0        9.200405   -2.676648   -1.464340
    112          1           0       10.921733   -2.568262   -1.500363
    113          1           0       10.175070   -2.837827    0.015528
    114          1           0       11.236157    0.968599    0.154982
    115          1           0       11.122848   -0.834090    0.952420
    116          1           0       13.002921   -1.747495   -0.741542
    117          1           0       12.813893   -0.045362   -1.587147
    118          1           0       13.669520    1.077081    0.267442
    119          1           0       13.832788   -0.641203    1.166011
    120          1           0       15.215749    0.206373   -1.337045
    121          1           0       14.480625   -2.418007   -0.721924
    122          1           0       16.404077   -2.051297   -0.880004
    123          1           0       15.625136   -1.870716    0.728257
    124          1           0       15.693810    1.475454    0.513333
    125          1           0       16.324114    0.248431    1.539439
    126          1           0       18.036333   -0.392243    0.038312
    127          1           0       17.700993    1.048621   -1.042066
    128          1           0       18.226465    2.776474    0.820826
    129          1           0       18.525685    1.210696    1.839329
    130          1           0       20.340731    0.531108    0.221635
    131          1           0       19.915498    3.333726   -1.225139
    132          1           0       21.386814    2.191560   -1.264717
    133          1           0       19.777215    1.701380   -1.866579
    134          1           0       20.673287    2.046841    2.278497
    135          1           0       21.949235    2.473838    1.058864
    136          1           0       20.606101    3.573672    1.283403
    137          1           0       -7.095005    1.689726    0.514331
    138          1           0       -7.513219   -0.310849    0.154909
 ---------------------------------------------------------------------

 SCF Done:  E(RB3LYP) =  -2733.14600712     A.U. after   16 cycles

 Excitation energies and oscillator strengths:

 Excited State   1:      Singlet-A      2.0623 eV  601.21 nm  f=0.2109  <S**2>=0.000
     235 -> 237       -0.14110
     235 -> 238       -0.25963
     236 -> 237        0.62037
     236 -> 238       -0.17517
 This state for optimization and/or second-order correction.
 Total Energy, E(TD-HF/TD-DFT) =  -2733.07022078
 Copying the excited state density for this state as the 1-particle RhoCI density.

 The electronic state is 1-A.
 Alpha  occ. eigenvalues --  -19.17840 -19.17765 -19.12783 -19.12363 -19.12335
 Alpha  occ. eigenvalues --  -14.37292 -14.36446 -14.31709 -14.29825 -10.31219
 Alpha  occ. eigenvalues --  -10.31031 -10.27227 -10.27212 -10.26325 -10.24275
 Alpha  occ. eigenvalues --  -10.23630 -10.23329 -10.22859 -10.22150 -10.21824
 Alpha  occ. eigenvalues --  -10.21752 -10.21331 -10.21257 -10.21143 -10.21042
 Alpha  occ. eigenvalues --  -10.20747 -10.20593 -10.20520 -10.20355 -10.20272
 Alpha  occ. eigenvalues --  -10.19941 -10.19917 -10.19891 -10.19766 -10.19726
 Alpha  occ. eigenvalues --  -10.19716 -10.19692 -10.19634 -10.19609 -10.19485
 Alpha  occ. eigenvalues --  -10.19460 -10.19372 -10.19359 -10.19230 -10.19185
 Alpha  occ. eigenvalues --  -10.19182 -10.19147 -10.18597 -10.18389 -10.18356
 Alpha  occ. eigenvalues --  -10.18342 -10.18256 -10.18238 -10.18225 -10.18029
 Alpha  occ. eigenvalues --  -10.17983 -10.17887 -10.17799 -10.17784 -10.17627
 Alpha  occ. eigenvalues --  -10.17617 -10.17483 -10.16933 -10.16621  -1.10387
 Alpha  occ. eigenvalues --   -1.08055  -1.04403  -1.02083  -1.00453  -0.98476
 Alpha  occ. eigenvalues --   -0.97088  -0.94989  -0.94493  -0.84863  -0.83052
 Alpha  occ. eigenvalues --   -0.82664  -0.82287  -0.81042  -0.80957  -0.80194
 Alpha  occ. eigenvalues --   -0.79729  -0.79439  -0.79109  -0.77917  -0.77747
 Alpha  occ. eigenvalues --   -0.76913  -0.76214  -0.75070  -0.74517  -0.74017
 Alpha  occ. eigenvalues --   -0.73149  -0.72629  -0.71911  -0.71538  -0.71245
 Alpha  occ. eigenvalues --   -0.69544  -0.69306  -0.68657  -0.67991  -0.67510
 Alpha  occ. eigenvalues --   -0.67385  -0.67141  -0.66497  -0.65263  -0.64812
 Alpha  occ. eigenvalues --   -0.63774  -0.62269  -0.61764  -0.61057  -0.60690
 Alpha  occ. eigenvalues --   -0.60543  -0.59020  -0.58478  -0.57360  -0.56701
 Alpha  occ. eigenvalues --   -0.56641  -0.55908  -0.55420  -0.55325  -0.54958
 Alpha  occ. eigenvalues --   -0.54760  -0.54604  -0.53975  -0.52883  -0.52777
 Alpha  occ. eigenvalues --   -0.52161  -0.51573  -0.51031  -0.50717  -0.50454
 Alpha  occ. eigenvalues --   -0.49903  -0.49365  -0.48886  -0.48714  -0.48408
 Alpha  occ. eigenvalues --   -0.48258  -0.47947  -0.47632  -0.47309  -0.47021
 Alpha  occ. eigenvalues --   -0.46931  -0.46371  -0.45939  -0.45787  -0.45674
 Alpha  occ. eigenvalues --   -0.45362  -0.45108  -0.44679  -0.44645  -0.44576
 Alpha  occ. eigenvalues --   -0.44322  -0.44003  -0.43749  -0.43604  -0.43525
 Alpha  occ. eigenvalues --   -0.43464  -0.43293  -0.43017  -0.42889  -0.42479
 Alpha  occ. eigenvalues --   -0.42370  -0.42187  -0.41994  -0.41928  -0.41518
 Alpha  occ. eigenvalues --   -0.41263  -0.40990  -0.40847  -0.40624  -0.40344
 Alpha  occ. eigenvalues --   -0.40203  -0.39990  -0.39927  -0.39575  -0.39463
 Alpha  occ. eigenvalues --   -0.39109  -0.39079  -0.38661  -0.38602  -0.38489
 Alpha  occ. eigenvalues --   -0.38232  -0.38174  -0.38112  -0.37808  -0.37558
 Alpha  occ. eigenvalues --   -0.37328  -0.37070  -0.36857  -0.36690  -0.36601
 Alpha  occ. eigenvalues --   -0.36419  -0.36222  -0.36045  -0.35892  -0.35577
 Alpha  occ. eigenvalues --   -0.35170  -0.34925  -0.34862  -0.34826  -0.34683
 Alpha  occ. eigenvalues --   -0.34665  -0.34552  -0.34364  -0.34056  -0.33607
 Alpha  occ. eigenvalues --   -0.33526  -0.33283  -0.33094  -0.33008  -0.32601
 Alpha  occ. eigenvalues --   -0.32302  -0.32176  -0.31989  -0.31445  -0.31191
 Alpha  occ. eigenvalues --   -0.31172  -0.31062  -0.30664  -0.30545  -0.30441
 Alpha  occ. eigenvalues --   -0.29925  -0.29735  -0.28718  -0.28554  -0.28067
 Alpha  occ. eigenvalues --   -0.27445  -0.26974  -0.26583  -0.26231  -0.25734
 Alpha  occ. eigenvalues --   -0.24863  -0.24825  -0.24354  -0.22858  -0.20347
 Alpha  occ. eigenvalues --   -0.17409
 Alpha virt. eigenvalues --   -0.09117  -0.07563  -0.03399  -0.00801   0.00152
 Alpha virt. eigenvalues --    0.00626   0.01164   0.01547   0.02787   0.03520
 Alpha virt. eigenvalues --    0.03921   0.04206   0.04356   0.04654   0.04746

 Mulliken charges:
               1
     1  C    0.023672
     2  C   -0.059610
     3  C   -0.138527
     4  C   -0.145128
     5  N   -0.158643
     6  C   -0.035316
     7  C   -0.011653
     8  C   -0.045431
     9  C   -0.024323
    10  C    0.072942
    11  C    0.023375
    12  C   -0.023607
    13  C    0.176222
    14  O   -0.181436
    15  O   -0.308689
    16  N   -0.107233
    17  C    0.107152
    18  C   -0.165523
    19  C    0.028651
    20  C    0.140120
    21  C    0.272809
    22  C   -0.015715
    23  C   -0.034641
    24  N   -0.192938
    25  C    0.019176
    26  C   -0.139041
    27  C   -0.182206
    28  C    0.156054
    29  C    0.128040
    30  C    0.116618
    31  C    0.049777
    32  N   -0.027794
    33  C   -0.015902
    34  C   -0.121924
    35  C    0.013184
    36  C    0.063037
    37  C    0.011475
    38  C    0.056467
    39  O   -0.121497
    40  C   -0.057753
    41  C    0.196318
    42  O   -0.227634
    43  O   -0.319843
    44  C    0.111185
    45  C    0.199343
    46  C   -0.121603
    47  C   -0.129720
    48  C    0.071524
    49  C    0.062866
    50  C    0.013547
    51  C    0.038621
    52  C   -0.032503
    53  C    0.044081
    54  C    0.009750
    55  C   -0.036240
    56  C    0.006906
    57  C   -0.034788
    58  C    0.000014
    59  C    0.082605
    60  C    0.014752
    61  C   -0.029901
    62  C   -0.160101
    63  C    0.065871
    64  C    0.044967
    65  H   -0.021205
    66  H    0.010235
    67  H    0.026750
    68  H   -0.005143
    69  H    0.003691
    70  H    0.006531
    71  H    0.013266
    72  H    0.016082
    73  H   -0.024213
    74  H    0.014720
    75  H    0.057057
    76  H    0.035818
    77  H    0.004786
    78  H   -0.034966
    79  H   -0.018405
    80  H   -0.001732
    81  H   -0.011886
    82  H    0.023131
    83  H    0.017512
    84  H    0.023738
    85  H    0.011294
    86  H    0.005256
    87  H   -0.011173
    88  H    0.012718
    89  H   -0.011450
    90  H    0.001453
    91  H    0.026426
    92  H    0.034379
    93  H    0.062576
    94  H    0.024222
    95  H    0.055558
    96  H    0.074142
    97  H    0.075675
    98  H    0.046494
    99  H    0.054663
   100  H   -0.009830
   101  H    0.028242
   102  H    0.004188
   103  H    0.005631
   104  H    0.028672
   105  H    0.009392
   106  H   -0.007714
   107  H   -0.019486
   108  H   -0.002601
   109  H   -0.001124
   110  H   -0.013416
   111  H    0.002000
   112  H   -0.010259
   113  H    0.013987
   114  H    0.009321
   115  H   -0.006554
   116  H    0.013312
   117  H   -0.010999
   118  H    0.000640
   119  H   -0.012697
   120  H   -0.028067
   121  H    0.042392
   122  H    0.020971
   123  H    0.007659
   124  H   -0.032449
   125  H   -0.010603
   126  H   -0.000165
   127  H   -0.006994
   128  H   -0.003578
   129  H   -0.000314
   130  H   -0.002945
   131  H    0.010365
   132  H    0.018820
   133  H   -0.006653
   134  H    0.010323
   135  H    0.000344
   136  H    0.008076
   137  H    0.179055
   138  H    0.160795
 Sum of Mulliken charges =  -0.00000

 Dipole moment (field-independent basis, Debye):
    X=              3.4251    Y=              3.0395    Z=              0.5878  Tot=              4.6168
 Quadrupole moment (field-independent basis, Debye-Ang):
   XX=           -361.6506   YY=           -369.7912   ZZ=           -398.2854
   XY=            -26.1339   XZ=             -3.5798   YZ=             -2.6382

 Normal termination of Gaussian 16 at Tue Aug 20 12:49:37 2019.
