 Gaussian 16, Revision A.03,
 Gaussian 16:  ES64L-G16RevA.03 25-Dec-2016

 --------------------------
 # td=(NStates=1) B3LYP/SVP
 --------------------------

 --
 TD
 --
 Symbolic Z-matrix:
 Charge =  0 Multiplicity = 1

                         Standard orientation:
 ---------------------------------------------------------------------
 Center     Atomic      Atomic             Coordinates (Angstroms)
 Number     Number       Type             X           Y           Z
 ---------------------------------------------------------------------
      1          6           0       -5.100742   -1.953760    0.395478
      2          6           0       -4.756883    2.696394    1.443824
      3          6           0       -9.317148    3.266681   -0.198300
      4          6           0       -9.873501   -1.533879   -0.862471
      5          7           0       -5.195715    0.422738    0.889353
      6          6           0       -4.557112   -0.711350    0.772545
      7          6           0       -3.066014   -0.603182    1.246166
      8          6           0       -3.050475    0.874051    1.953528
      9          6           0       -4.475649    1.363767    1.406894
     10          6           0       -3.144853    0.719690    3.519688
     11          6           0       -1.999380   -0.674951    0.016970
     12          6           0       -0.533470   -0.684140    0.534397
     13          6           0        0.483784   -0.828777   -0.656921
     14          8           0        0.160171   -1.180774   -1.729549
     15          8           0        1.671316   -0.696915   -0.213815
     16          7           0       -7.030753    2.726829    0.537874
     17          6           0       -5.906012    3.325829    1.079697
     18          6           0       -6.223464    4.773749    1.117078
     19          6           0       -7.517600    4.868618    0.594356
     20          6           0       -8.097280    3.631777    0.248769
     21          6           0       -5.270052    5.801781    1.561146
     22          6           0       -8.299218    6.147762    0.335440
     23          6           0       -9.140299    6.476738   -0.605873
     24          7           0       -9.245884    0.718292   -0.418368
     25          6           0       -9.924236    1.911902   -0.543288
     26          6           0      -11.247307    1.838342   -0.922850
     27          6           0      -11.457255    0.507137   -1.199211
     28          6           0      -10.126391   -0.194976   -0.763660
     29          6           0      -12.265817    3.037190   -1.071621
     30          6           0      -12.646378   -0.193886   -1.600433
     31          6           0      -12.618890   -0.439478   -3.121597
     32          7           0       -7.493777   -1.266340   -0.303092
     33          6           0       -8.600548   -2.026658   -0.605610
     34          6           0       -8.105387   -3.464819   -0.577599
     35          6           0       -6.836106   -3.458340   -0.299462
     36          6           0       -6.446265   -2.146252   -0.010672
     37          6           0       -8.921782   -4.611088   -0.834140
     38          6           0       -5.673963   -4.400215   -0.044086
     39          8           0       -5.621858   -5.612361   -0.065616
     40          6           0       -4.461966   -3.328584    0.320245
     41          6           0       -3.912107   -3.813931    1.535557
     42          8           0       -3.971716   -3.393256    2.737958
     43          8           0       -3.000814   -4.864491    1.299285
     44          6           0       -2.455675   -5.467568    2.559524
     45          6           0        2.705837   -1.004387   -1.307118
     46          6           0        4.044071   -0.520142   -0.722404
     47          6           0        4.915621    0.331215   -1.125809
     48          6           0        4.774783    1.198155   -2.403857
     49          6           0        6.240001    0.531440   -0.351409
     50          6           0        7.461645   -0.239568   -0.971202
     51          6           0        8.735406   -0.126482   -0.251992
     52          6           0       10.057951   -0.522953   -0.826059
     53          6           0       10.009041   -2.029667   -1.054666
     54          6           0       11.192299   -0.184253    0.062743
     55          6           0       12.647315   -0.494097   -0.475906
     56          6           0       13.896408    0.037999    0.360374
     57          6           0       15.210153   -0.257790   -0.309655
     58          6           0       15.582470   -1.760938   -0.199143
     59          6           0       16.279953    0.482316    0.346981
     60          6           0       17.651645    0.503755   -0.163400
     61          6           0       18.546303    1.485640    0.546371
     62          6           0       20.059338    1.519950    0.121791
     63          6           0       20.050912    1.986289   -1.325189
     64          6           0       20.965301    2.387702    1.097557
     65          1           0       -3.979546    3.252870    2.134721
     66          1           0      -10.035184    4.144890   -0.319916
     67          1           0      -10.660444   -2.311885   -1.313870
     68          1           0       -2.638471   -1.291226    1.839846
     69          1           0       -1.997111    1.438912    1.747498
     70          1           0       -2.127132    0.184125    3.870112
     71          1           0       -3.214003    1.490454    4.090813
     72          1           0       -4.027828    0.220543    3.765737
     73          1           0       -2.181265   -1.557229   -0.737748
     74          1           0       -2.262082    0.154469   -0.604786
     75          1           0       -0.306500    0.261376    1.079089
     76          1           0       -0.498660   -1.556298    1.318747
     77          1           0       -4.610295    5.973751    0.511497
     78          1           0       -5.756573    6.693584    1.803974
     79          1           0       -4.632384    5.292603    2.410957
     80          1           0       -7.872721    7.123980    0.821811
     81          1           0       -9.559402    5.783599   -1.318853
     82          1           0       -9.704618    7.473117   -0.830833
     83          1           0      -12.320465    3.682004   -0.186064
     84          1           0      -11.894932    3.656420   -1.941165
     85          1           0      -13.236031    2.601482   -1.332860
     86          1           0      -12.830107   -1.180585   -1.158361
     87          1           0      -13.434095    0.285803   -1.260405
     88          1           0      -12.612958    0.524176   -3.531637
     89          1           0      -11.513795   -1.062994   -3.062357
     90          1           0      -13.410146   -1.136431   -3.664357
     91          1           0      -10.145162   -4.462250   -0.454058
     92          1           0       -9.095191   -4.708234   -2.044273
     93          1           0       -8.441428   -5.499990   -0.515494
     94          1           0       -3.562960   -3.345389   -0.392319
     95          1           0       -1.961945   -6.387393    2.269703
     96          1           0       -1.822592   -4.789297    3.162359
     97          1           0       -3.306961   -5.594001    3.193469
     98          1           0        2.667070   -2.221863   -1.520281
     99          1           0        2.476703   -0.298020   -2.090142
    100          1           0        4.222303   -1.147948    0.151179
    101          1           0        4.614861    2.276076   -2.041358
    102          1           0        5.707688    1.085952   -3.107797
    103          1           0        3.880791    0.838219   -2.819419
    104          1           0        6.775356    1.622585   -0.402541
    105          1           0        6.239452    0.054578    0.667879
    106          1           0        7.286729   -1.274934   -1.189389
    107          1           0        7.547855    0.323414   -2.027326
    108          1           0        8.898885    0.834181    0.184807
    109          1           0        8.903936   -0.784579    0.813838
    110          1           0       10.237891   -0.059573   -1.835903
    111          1           0        9.310669   -2.378571   -1.912631
    112          1           0       11.037610   -2.220276   -1.583921
    113          1           0        9.906284   -2.575108   -0.133623
    114          1           0       11.021536    0.956327    0.174070
    115          1           0       11.065300   -0.446927    1.109454
    116          1           0       12.493281   -1.690125   -0.418617
    117          1           0       12.755720   -0.276828   -1.589413
    118          1           0       13.585826    1.256823    0.466706
    119          1           0       14.033751   -0.423211    1.337905
    120          1           0       15.308072   -0.101593   -1.330535
    121          1           0       14.996434   -2.454445   -0.542355
    122          1           0       16.548989   -1.981968   -0.565165
    123          1           0       15.660858   -2.067241    0.868469
    124          1           0       15.777054    1.552137    0.814710
    125          1           0       16.406269   -0.101477    1.369528
    126          1           0       18.231656   -0.547114   -0.007306
    127          1           0       17.674258    0.762526   -1.333897
    128          1           0       17.929426    2.411443    0.476310
    129          1           0       18.617392    1.265055    1.664981
    130          1           0       20.463759    0.543471    0.168087
    131          1           0       19.817742    3.085270   -1.447413
    132          1           0       21.093592    1.969663   -1.524208
    133          1           0       19.515818    1.260387   -1.877966
    134          1           0       21.064426    1.978219    2.058387
    135          1           0       21.863675    2.223620    0.560039
    136          1           0       20.570649    3.540418    0.982623
    137          1           0       -7.188869    1.763492    0.372396
    138          1           0       -7.387661   -0.313831   -0.086707
 ---------------------------------------------------------------------

 SCF Done:  E(RB3LYP) =  -2733.02869035     A.U. after   17 cycles

 Excitation energies and oscillator strengths:

 Excited State   1:      Singlet-A      2.0505 eV  604.65 nm  f=0.1553  <S**2>=0.000
     235 -> 238        0.31963
     236 -> 237        0.62568
 This state for optimization and/or second-order correction.
 Total Energy, E(TD-HF/TD-DFT) =  -2732.95333543
 Copying the excited state density for this state as the 1-particle RhoCI density.

 The electronic state is 1-A.
 Alpha  occ. eigenvalues --  -19.18305 -19.16309 -19.14835 -19.11743 -19.11485
 Alpha  occ. eigenvalues --  -14.37262 -14.36061 -14.32141 -14.29714 -10.31226
 Alpha  occ. eigenvalues --  -10.30501 -10.30499 -10.27106 -10.24199 -10.23952
 Alpha  occ. eigenvalues --  -10.23510 -10.23496 -10.23281 -10.22965 -10.22779
 Alpha  occ. eigenvalues --  -10.22688 -10.21714 -10.21688 -10.21581 -10.21475
 Alpha  occ. eigenvalues --  -10.21167 -10.21050 -10.21009 -10.20993 -10.20918
 Alpha  occ. eigenvalues --  -10.20904 -10.20814 -10.20725 -10.20704 -10.20640
 Alpha  occ. eigenvalues --  -10.20592 -10.20535 -10.20260 -10.20224 -10.20068
 Alpha  occ. eigenvalues --  -10.19728 -10.19647 -10.19609 -10.19591 -10.19266
 Alpha  occ. eigenvalues --  -10.19250 -10.19181 -10.19014 -10.18978 -10.18921
 Alpha  occ. eigenvalues --  -10.18805 -10.18784 -10.18657 -10.18597 -10.18466
 Alpha  occ. eigenvalues --  -10.18417 -10.18344 -10.18290 -10.18015 -10.17707
 Alpha  occ. eigenvalues --  -10.17467 -10.17384 -10.16928 -10.16091  -1.11430
 Alpha  occ. eigenvalues --   -1.05551  -1.04350  -1.01659  -0.98510  -0.97013
 Alpha  occ. eigenvalues --   -0.96113  -0.95940  -0.93984  -0.85478  -0.83484
 Alpha  occ. eigenvalues --   -0.83003  -0.82309  -0.82221  -0.81500  -0.80931
 Alpha  occ. eigenvalues --   -0.80404  -0.80123  -0.79370  -0.78828  -0.77485
 Alpha  occ. eigenvalues --   -0.77209  -0.75977  -0.75441  -0.75000  -0.74509
 Alpha  occ. eigenvalues --   -0.73660  -0.73145  -0.72523  -0.71751  -0.70981
 Alpha  occ. eigenvalues --   -0.69664  -0.68565  -0.68249  -0.68054  -0.67944
 Alpha  occ. eigenvalues --   -0.67856  -0.67651  -0.66589  -0.65907  -0.65492
 Alpha  occ. eigenvalues --   -0.64799  -0.62334  -0.62175  -0.61721  -0.61157
 Alpha  occ. eigenvalues --   -0.60510  -0.59097  -0.58734  -0.57903  -0.56849
 Alpha  occ. eigenvalues --   -0.56535  -0.56217  -0.55626  -0.55571  -0.55445
 Alpha  occ. eigenvalues --   -0.54992  -0.54451  -0.54048  -0.53617  -0.53386
 Alpha  occ. eigenvalues --   -0.53141  -0.51819  -0.51424  -0.50855  -0.50466
 Alpha  occ. eigenvalues --   -0.50287  -0.50213  -0.48757  -0.48362  -0.48214
 Alpha  occ. eigenvalues --   -0.47804  -0.47748  -0.47479  -0.47182  -0.47001
 Alpha  occ. eigenvalues --   -0.46512  -0.46123  -0.46016  -0.45960  -0.45782
 Alpha  occ. eigenvalues --   -0.45520  -0.45266  -0.44878  -0.44695  -0.44611
 Alpha  occ. eigenvalues --   -0.44532  -0.44330  -0.44172  -0.43596  -0.43369
 Alpha  occ. eigenvalues --   -0.43084  -0.42980  -0.42886  -0.42776  -0.42688
 Alpha  occ. eigenvalues --   -0.42417  -0.42413  -0.42118  -0.41815  -0.41667
 Alpha  occ. eigenvalues --   -0.41572  -0.41262  -0.40759  -0.40500  -0.40440
 Alpha  occ. eigenvalues --   -0.40253  -0.40213  -0.40113  -0.39722  -0.39673
 Alpha  occ. eigenvalues --   -0.39277  -0.39143  -0.39080  -0.38623  -0.38605
 Alpha  occ. eigenvalues --   -0.38400  -0.38349  -0.38216  -0.37946  -0.37741
 Alpha  occ. eigenvalues --   -0.37401  -0.37366  -0.37053  -0.37045  -0.36965
 Alpha  occ. eigenvalues --   -0.36618  -0.36228  -0.35996  -0.35648  -0.35456
 Alpha  occ. eigenvalues --   -0.35385  -0.35280  -0.35172  -0.34593  -0.34470
 Alpha  occ. eigenvalues --   -0.34409  -0.34346  -0.33917  -0.33867  -0.33184
 Alpha  occ. eigenvalues --   -0.33156  -0.32886  -0.32695  -0.32639  -0.32456
 Alpha  occ. eigenvalues --   -0.32307  -0.31828  -0.31806  -0.31743  -0.31598
 Alpha  occ. eigenvalues --   -0.31117  -0.31004  -0.30583  -0.30146  -0.29436
 Alpha  occ. eigenvalues --   -0.29053  -0.28828  -0.28594  -0.28343  -0.27875
 Alpha  occ. eigenvalues --   -0.27145  -0.27071  -0.26700  -0.26578  -0.26366
 Alpha  occ. eigenvalues --   -0.26158  -0.25860  -0.23872  -0.23029  -0.20315
 Alpha  occ. eigenvalues --   -0.18500
 Alpha virt. eigenvalues --   -0.09728  -0.08367  -0.05119  -0.01930  -0.00942
 Alpha virt. eigenvalues --   -0.00260   0.00857   0.01514   0.02021   0.03459
 Alpha virt. eigenvalues --    0.03483   0.03793   0.04276   0.04370   0.04601

 Mulliken charges:
               1
     1  C    0.065992
     2  C   -0.084936
     3  C   -0.112513
     4  C   -0.139860
     5  N   -0.074868
     6  C   -0.057963
     7  C    0.022305
     8  C   -0.143262
     9  C   -0.054186
    10  C    0.128183
    11  C   -0.001287
    12  C   -0.014831
    13  C    0.149963
    14  O   -0.215141
    15  O   -0.279418
    16  N   -0.108704
    17  C    0.161540
    18  C   -0.139966
    19  C    0.050457
    20  C    0.107492
    21  C    0.071052
    22  C   -0.023298
    23  C   -0.091585
    24  N   -0.203870
    25  C    0.064810
    26  C   -0.163851
    27  C   -0.119091
    28  C    0.059774
    29  C    0.120476
    30  C    0.137283
    31  C   -0.049249
    32  N   -0.020177
    33  C    0.100176
    34  C   -0.151603
    35  C    0.041341
    36  C    0.017708
    37  C   -0.004435
    38  C    0.134261
    39  O   -0.136713
    40  C   -0.063769
    41  C    0.225680
    42  O   -0.288034
    43  O   -0.367909
    44  C    0.217351
    45  C    0.240867
    46  C   -0.122790
    47  C   -0.090693
    48  C    0.077249
    49  C    0.018942
    50  C    0.037148
    51  C    0.021093
    52  C   -0.067308
    53  C    0.001774
    54  C    0.013046
    55  C   -0.032904
    56  C    0.029412
    57  C    0.025563
    58  C    0.094782
    59  C   -0.055588
    60  C   -0.008472
    61  C    0.010801
    62  C   -0.113540
    63  C    0.081124
    64  C    0.048186
    65  H    0.011619
    66  H   -0.010404
    67  H    0.031461
    68  H   -0.040788
    69  H    0.031957
    70  H    0.022825
    71  H   -0.046846
    72  H    0.007282
    73  H    0.031639
    74  H   -0.011267
    75  H    0.021894
    76  H    0.051158
    77  H    0.062571
    78  H    0.012016
    79  H    0.052863
    80  H    0.011569
    81  H    0.011754
    82  H    0.041404
    83  H    0.034080
    84  H    0.028994
    85  H    0.012174
    86  H   -0.012026
    87  H   -0.052578
    88  H    0.009877
    89  H    0.030333
    90  H    0.033654
    91  H    0.050665
    92  H    0.052176
    93  H    0.034460
    94  H    0.086168
    95  H    0.034408
    96  H    0.025815
    97  H    0.022508
    98  H    0.082584
    99  H    0.022017
   100  H   -0.010373
   101  H    0.042824
   102  H    0.052191
   103  H   -0.014413
   104  H    0.026869
   105  H    0.014028
   106  H   -0.004836
   107  H   -0.002447
   108  H   -0.039865
   109  H   -0.014029
   110  H   -0.014610
   111  H    0.019876
   112  H    0.009728
   113  H    0.005130
   114  H   -0.017014
   115  H   -0.012542
   116  H    0.024226
   117  H    0.014476
   118  H    0.026023
   119  H   -0.001768
   120  H   -0.039522
   121  H   -0.047834
   122  H   -0.011211
   123  H   -0.019944
   124  H    0.012252
   125  H   -0.010223
   126  H    0.015515
   127  H    0.012589
   128  H   -0.010914
   129  H   -0.013130
   130  H   -0.023392
   131  H    0.010970
   132  H   -0.027091
   133  H    0.011993
   134  H    0.008698
   135  H   -0.006407
   136  H    0.033228
   137  H    0.113916
   138  H    0.125001
 Sum of Mulliken charges =  -0.00000

 Dipole moment (field-independent basis, Debye):
    X=              2.8514    Y=              3.4292    Z=             -0.3445  Tot=              4.4731
 Quadrupole moment (field-independent basis, Debye-Ang):
   XX=           -336.4338   YY=           -383.8659   ZZ=           -398.7868
   XY=            -28.9566   XZ=              6.9696   YZ=             -0.1699

 Normal termination of Gaussian 16 at Sun Aug 25 20:14:13 2019.
