 Gaussian 16, Revision A.03,
 Gaussian 16:  ES64L-G16RevA.03 25-Dec-2016

 --------------------------
 # td=(NStates=1) B3LYP/SVP
 --------------------------

 --
 TD
 --
 Symbolic Z-matrix:
 Charge =  0 Multiplicity = 1

                         Standard orientation:
 ---------------------------------------------------------------------
 Center     Atomic      Atomic             Coordinates (Angstroms)
 Number     Number       Type             X           Y           Z
 ---------------------------------------------------------------------
      1          6           0       -5.015687   -1.950730    0.235106
      2          6           0       -4.742986    2.764165    1.233178
      3          6           0       -9.367177    3.294580   -0.186116
      4          6           0       -9.812522   -1.474565   -0.874247
      5          7           0       -5.120605    0.444153    0.577872
      6          6           0       -4.423909   -0.729064    0.591716
      7          6           0       -3.047808   -0.521319    1.175798
      8          6           0       -2.980806    0.912671    1.566336
      9          6           0       -4.342208    1.413145    1.106287
     10          6           0       -2.869011    1.189815    3.100909
     11          6           0       -1.985458   -0.791818    0.054349
     12          6           0       -0.533530   -0.840103    0.553447
     13          6           0        0.426365   -1.074825   -0.577020
     14          8           0        0.183686   -1.393439   -1.674284
     15          8           0        1.649832   -0.811564   -0.166624
     16          7           0       -7.111526    2.794625    0.469137
     17          6           0       -5.959168    3.449155    0.872549
     18          6           0       -6.269990    4.836223    0.954747
     19          6           0       -7.591219    4.947526    0.493942
     20          6           0       -8.115039    3.672689    0.214505
     21          6           0       -5.305582    5.856151    1.306299
     22          6           0       -8.185106    6.287768    0.193398
     23          6           0       -9.275533    6.674747   -0.516127
     24          7           0       -9.172577    0.937742   -0.465238
     25          6           0       -9.999185    2.048234   -0.558018
     26          6           0      -11.360775    1.693702   -0.781171
     27          6           0      -11.468451    0.365901   -0.986383
     28          6           0      -10.056461   -0.127582   -0.843170
     29          6           0      -12.401169    2.828993   -1.010315
     30          6           0      -12.674606   -0.430334   -1.292377
     31          6           0      -12.847994   -0.691137   -2.753903
     32          7           0       -7.434094   -1.238917   -0.286395
     33          6           0       -8.563409   -1.938323   -0.568039
     34          6           0       -8.184359   -3.395306   -0.606109
     35          6           0       -6.908574   -3.399706   -0.076527
     36          6           0       -6.407060   -2.110226   -0.020831
     37          6           0       -9.017794   -4.607645   -0.707266
     38          6           0       -5.819988   -4.341328    0.020109
     39          8           0       -5.672048   -5.510552   -0.029353
     40          6           0       -4.506333   -3.344376    0.333756
     41          6           0       -3.819954   -3.800030    1.592609
     42          8           0       -4.032689   -3.342657    2.805607
     43          8           0       -3.025503   -4.777993    1.354257
     44          6           0       -2.380095   -5.296192    2.570871
     45          6           0        2.673736   -1.104046   -1.104029
     46          6           0        4.029000   -0.750671   -0.523462
     47          6           0        4.963678    0.036698   -1.119241
     48          6           0        4.858203    0.731877   -2.423334
     49          6           0        6.213216    0.411819   -0.356399
     50          6           0        7.501094   -0.329135   -0.885134
     51          6           0        8.783027   -0.266302   -0.031067
     52          6           0       10.117078   -0.704370   -0.685755
     53          6           0       10.129295   -2.284452   -0.884082
     54          6           0       11.357073   -0.219118    0.070687
     55          6           0       12.662552   -0.551230   -0.606535
     56          6           0       13.822036    0.061430    0.186277
     57          6           0       15.303628   -0.265171   -0.336426
     58          6           0       15.594062   -1.784577   -0.292360
     59          6           0       16.203014    0.632104    0.407139
     60          6           0       17.734093    0.640956   -0.125646
     61          6           0       18.552079    1.695308    0.559068
     62          6           0       19.963232    1.697977    0.119078
     63          6           0       20.177141    2.281460   -1.320525
     64          6           0       21.010685    2.392123    1.177598
     65          1           0       -4.030224    3.364872    1.699564
     66          1           0      -10.190340    4.007143    0.105027
     67          1           0      -10.725087   -2.079850   -1.231962
     68          1           0       -3.160878   -1.102122    2.097303
     69          1           0       -2.197651    1.396242    1.030439
     70          1           0       -1.998625    0.566735    3.346847
     71          1           0       -2.717152    2.262852    3.753656
     72          1           0       -4.014793    0.856415    3.437952
     73          1           0       -2.420682   -1.547973   -0.596308
     74          1           0       -1.926709    0.047701   -0.667095
     75          1           0       -0.346934    0.242775    0.999582
     76          1           0       -0.197134   -1.516226    1.395648
     77          1           0       -4.145512    5.510355    1.192384
     78          1           0       -5.658746    7.029861    0.746956
     79          1           0       -5.736073    6.053561    2.671165
     80          1           0       -7.717858    7.140363    0.862909
     81          1           0      -10.115111    6.050321   -1.030505
     82          1           0       -9.465061    7.878286   -0.496171
     83          1           0      -12.351186    3.608556   -0.252014
     84          1           0      -12.228058    3.430636   -1.996296
     85          1           0      -13.540709    2.507679   -1.108188
     86          1           0      -12.945661   -1.425702   -0.835240
     87          1           0      -13.538886    0.291433   -0.887015
     88          1           0      -12.817256    0.260345   -3.473656
     89          1           0      -11.890653   -1.285420   -3.114843
     90          1           0      -13.707090   -1.351172   -2.980173
     91          1           0      -10.004076   -4.554803   -0.142561
     92          1           0       -9.158630   -4.802256   -1.876789
     93          1           0       -8.368429   -5.526450   -0.349841
     94          1           0       -3.711091   -3.668221   -0.418741
     95          1           0       -1.312064   -5.844138    2.384254
     96          1           0       -2.263053   -4.349921    3.339961
     97          1           0       -3.016451   -6.050153    3.031745
     98          1           0        2.524184   -2.107071   -1.416767
     99          1           0        2.485565   -0.665879   -2.007101
    100          1           0        4.118313   -1.047102    0.471737
    101          1           0        4.928838    1.773603   -2.392933
    102          1           0        5.600620    0.318465   -3.027669
    103          1           0        3.960584    0.523471   -2.744794
    104          1           0        6.310701    1.525055   -0.510610
    105          1           0        6.263557    0.074442    0.763272
    106          1           0        7.325571   -1.314433   -1.079626
    107          1           0        7.753090    0.059937   -1.947156
    108          1           0        8.962287    0.707829    0.083943
    109          1           0        8.560348   -0.932421    0.780292
    110          1           0       10.052722   -0.367430   -1.737342
    111          1           0        9.168331   -2.682760   -1.407588
    112          1           0       11.006023   -2.740592   -1.454440
    113          1           0       10.090717   -2.960355    0.161580
    114          1           0       11.523810    0.836742    0.241757
    115          1           0       10.962212   -0.707089    1.141068
    116          1           0       12.856100   -1.690840   -0.898293
    117          1           0       12.769322    0.054729   -1.441284
    118          1           0       13.778444    1.129747    0.341084
    119          1           0       13.846795   -0.215981    1.238252
    120          1           0       15.406282   -0.219587   -1.614880
    121          1           0       14.844490   -2.429671   -0.733024
    122          1           0       16.587803   -1.909756   -0.503667
    123          1           0       15.428730   -2.198284    0.786286
    124          1           0       15.650679    1.660970    0.462717
    125          1           0       16.172922    0.292762    1.556770
    126          1           0       18.369546   -0.430301    0.160306
    127          1           0       17.744013    0.764557   -1.256424
    128          1           0       17.977735    2.628669    0.323322
    129          1           0       18.706164    1.398022    1.683110
    130          1           0       20.362971    0.430272    0.109943
    131          1           0       20.028800    3.303394   -1.318544
    132          1           0       21.219010    1.928739   -1.602146
    133          1           0       19.354008    2.051776   -2.111848
    134          1           0       21.038711    1.958460    2.062832
    135          1           0       21.870999    2.624518    0.579834
    136          1           0       20.754680    3.561127    1.337579
    137          1           0       -7.429596    1.722410    0.271304
    138          1           0       -7.284877   -0.146687   -0.202152
 ---------------------------------------------------------------------

 SCF Done:  E(RB3LYP) =  -2732.98500990     A.U. after   17 cycles

 Excitation energies and oscillator strengths:

 Excited State   1:      Singlet-A      2.0202 eV  613.73 nm  f=0.1605  <S**2>=0.000
     235 -> 238       -0.32933
     236 -> 237        0.62182
 This state for optimization and/or second-order correction.
 Total Energy, E(TD-HF/TD-DFT) =  -2732.91077015
 Copying the excited state density for this state as the 1-particle RhoCI density.

 The electronic state is 1-A.
 Alpha  occ. eigenvalues --  -19.19729 -19.17204 -19.13575 -19.12296 -19.10603
 Alpha  occ. eigenvalues --  -14.37963 -14.36478 -14.32251 -14.31044 -10.31419
 Alpha  occ. eigenvalues --  -10.30688 -10.28602 -10.26264 -10.25300 -10.24271
 Alpha  occ. eigenvalues --  -10.23941 -10.23413 -10.23130 -10.23045 -10.22853
 Alpha  occ. eigenvalues --  -10.22824 -10.21866 -10.21718 -10.21518 -10.21504
 Alpha  occ. eigenvalues --  -10.21399 -10.21391 -10.21371 -10.21227 -10.21187
 Alpha  occ. eigenvalues --  -10.21002 -10.20771 -10.20644 -10.20543 -10.20443
 Alpha  occ. eigenvalues --  -10.20431 -10.20348 -10.20217 -10.20164 -10.20139
 Alpha  occ. eigenvalues --  -10.20107 -10.20103 -10.20097 -10.20080 -10.20008
 Alpha  occ. eigenvalues --  -10.20000 -10.19856 -10.19616 -10.19516 -10.19419
 Alpha  occ. eigenvalues --  -10.19328 -10.19208 -10.19194 -10.18715 -10.18641
 Alpha  occ. eigenvalues --  -10.18603 -10.18434 -10.18416 -10.18238 -10.18201
 Alpha  occ. eigenvalues --  -10.17839 -10.17195 -10.17162 -10.17012  -1.11746
 Alpha  occ. eigenvalues --   -1.11131  -1.05527  -1.02320  -0.98819  -0.97881
 Alpha  occ. eigenvalues --   -0.95254  -0.94678  -0.92284  -0.85057  -0.82852
 Alpha  occ. eigenvalues --   -0.81942  -0.81636  -0.81557  -0.80980  -0.80851
 Alpha  occ. eigenvalues --   -0.80343  -0.79686  -0.79548  -0.79420  -0.78122
 Alpha  occ. eigenvalues --   -0.76832  -0.76279  -0.75316  -0.74393  -0.74350
 Alpha  occ. eigenvalues --   -0.73752  -0.73191  -0.72667  -0.71997  -0.70473
 Alpha  occ. eigenvalues --   -0.69618  -0.68767  -0.68677  -0.67868  -0.67721
 Alpha  occ. eigenvalues --   -0.67573  -0.67053  -0.65785  -0.65646  -0.65534
 Alpha  occ. eigenvalues --   -0.63758  -0.62595  -0.62518  -0.61400  -0.61298
 Alpha  occ. eigenvalues --   -0.60593  -0.59060  -0.58603  -0.57995  -0.57595
 Alpha  occ. eigenvalues --   -0.57408  -0.57101  -0.55518  -0.55337  -0.55159
 Alpha  occ. eigenvalues --   -0.54654  -0.53742  -0.53494  -0.52916  -0.52800
 Alpha  occ. eigenvalues --   -0.52179  -0.51640  -0.51059  -0.50819  -0.50527
 Alpha  occ. eigenvalues --   -0.50258  -0.49524  -0.49143  -0.48722  -0.48662
 Alpha  occ. eigenvalues --   -0.48035  -0.47905  -0.47619  -0.47507  -0.47294
 Alpha  occ. eigenvalues --   -0.47205  -0.46618  -0.46234  -0.45636  -0.45584
 Alpha  occ. eigenvalues --   -0.45389  -0.45293  -0.45192  -0.44980  -0.44741
 Alpha  occ. eigenvalues --   -0.44576  -0.44237  -0.44170  -0.43758  -0.43633
 Alpha  occ. eigenvalues --   -0.43492  -0.43263  -0.43157  -0.43104  -0.42472
 Alpha  occ. eigenvalues --   -0.42410  -0.42043  -0.41957  -0.41749  -0.41633
 Alpha  occ. eigenvalues --   -0.41043  -0.40819  -0.40719  -0.40392  -0.40249
 Alpha  occ. eigenvalues --   -0.39857  -0.39729  -0.39524  -0.39458  -0.39331
 Alpha  occ. eigenvalues --   -0.39204  -0.38986  -0.38855  -0.38840  -0.38483
 Alpha  occ. eigenvalues --   -0.38111  -0.37890  -0.37633  -0.37622  -0.37439
 Alpha  occ. eigenvalues --   -0.37378  -0.36970  -0.36912  -0.36824  -0.36767
 Alpha  occ. eigenvalues --   -0.36641  -0.36359  -0.36129  -0.36016  -0.35809
 Alpha  occ. eigenvalues --   -0.35573  -0.35315  -0.35172  -0.35053  -0.34800
 Alpha  occ. eigenvalues --   -0.34669  -0.34520  -0.33930  -0.33609  -0.33559
 Alpha  occ. eigenvalues --   -0.33513  -0.32474  -0.32339  -0.32280  -0.32230
 Alpha  occ. eigenvalues --   -0.32021  -0.31827  -0.31619  -0.31575  -0.30914
 Alpha  occ. eigenvalues --   -0.30781  -0.30589  -0.30266  -0.30244  -0.29555
 Alpha  occ. eigenvalues --   -0.29538  -0.28879  -0.28560  -0.28373  -0.28083
 Alpha  occ. eigenvalues --   -0.27780  -0.27034  -0.26883  -0.26425  -0.25622
 Alpha  occ. eigenvalues --   -0.25045  -0.24648  -0.23479  -0.23144  -0.19631
 Alpha  occ. eigenvalues --   -0.19164
 Alpha virt. eigenvalues --   -0.10528  -0.08062  -0.04482  -0.02083  -0.00604
 Alpha virt. eigenvalues --    0.00024   0.00358   0.01064   0.01313   0.02013
 Alpha virt. eigenvalues --    0.03254   0.03474   0.03893   0.04459   0.04567

 Mulliken charges:
               1
     1  C    0.120621
     2  C   -0.013857
     3  C   -0.097788
     4  C   -0.155258
     5  N   -0.168733
     6  C   -0.140801
     7  C    0.072749
     8  C    0.006012
     9  C   -0.070369
    10  C   -0.057964
    11  C    0.063577
    12  C    0.005617
    13  C    0.135049
    14  O   -0.198883
    15  O   -0.292992
    16  N   -0.120078
    17  C    0.129067
    18  C   -0.041388
    19  C    0.055388
    20  C    0.084338
    21  C   -0.127234
    22  C   -0.051008
    23  C   -0.110867
    24  N   -0.333873
    25  C    0.044615
    26  C   -0.068984
    27  C   -0.063114
    28  C    0.070963
    29  C    0.010453
    30  C    0.006044
    31  C   -0.042888
    32  N   -0.071148
    33  C    0.167772
    34  C   -0.126576
    35  C   -0.021231
    36  C    0.018876
    37  C    0.014489
    38  C    0.081651
    39  O   -0.121218
    40  C   -0.122974
    41  C    0.208937
    42  O   -0.348412
    43  O   -0.233644
    44  C    0.090181
    45  C    0.331063
    46  C   -0.047745
    47  C   -0.185141
    48  C    0.267295
    49  C    0.061175
    50  C   -0.021924
    51  C    0.155670
    52  C   -0.074502
    53  C   -0.084526
    54  C    0.011197
    55  C    0.106351
    56  C   -0.000581
    57  C   -0.140552
    58  C    0.073868
    59  C    0.012487
    60  C   -0.060865
    61  C    0.083642
    62  C   -0.193147
    63  C    0.023468
    64  C    0.087482
    65  H   -0.071280
    66  H    0.007910
    67  H    0.017597
    68  H    0.020591
    69  H   -0.009323
    70  H    0.027731
    71  H    0.052395
    72  H    0.057586
    73  H    0.012265
    74  H    0.006501
    75  H    0.043145
    76  H    0.043581
    77  H    0.080951
    78  H    0.072304
    79  H    0.051668
    80  H    0.031491
    81  H    0.050505
    82  H    0.041150
    83  H    0.018680
    84  H    0.038571
    85  H    0.027390
    86  H    0.020592
    87  H    0.021568
    88  H    0.032691
    89  H    0.014575
    90  H    0.021257
    91  H    0.053438
    92  H    0.045982
    93  H    0.062947
    94  H    0.055765
    95  H    0.056401
    96  H    0.089768
    97  H    0.048522
    98  H   -0.012346
    99  H   -0.043491
   100  H   -0.035137
   101  H    0.002935
   102  H    0.002965
   103  H   -0.067749
   104  H    0.007819
   105  H    0.010166
   106  H   -0.032676
   107  H   -0.013299
   108  H   -0.042690
   109  H   -0.003819
   110  H   -0.016625
   111  H    0.022515
   112  H    0.028981
   113  H    0.012075
   114  H   -0.009248
   115  H    0.014620
   116  H    0.029385
   117  H   -0.021177
   118  H   -0.026338
   119  H   -0.023416
   120  H    0.001700
   121  H    0.005127
   122  H   -0.005729
   123  H   -0.021420
   124  H    0.011375
   125  H    0.011332
   126  H    0.021882
   127  H    0.017905
   128  H    0.001759
   129  H    0.008165
   130  H    0.003737
   131  H   -0.012058
   132  H    0.036752
   133  H    0.013733
   134  H   -0.004377
   135  H   -0.005001
   136  H   -0.003776
   137  H    0.200546
   138  H    0.200160
 Sum of Mulliken charges =  -0.00000

 Dipole moment (field-independent basis, Debye):
    X=              1.6942    Y=              3.2656    Z=             -0.1670  Tot=              3.6827
 Quadrupole moment (field-independent basis, Debye-Ang):
   XX=           -346.3774   YY=           -385.4544   ZZ=           -401.9324
   XY=              1.0040   XZ=              7.2047   YZ=             -0.0252

 Normal termination of Gaussian 16 at Mon Aug 19 16:22:44 2019.
