 Gaussian 16, Revision A.03,
 Gaussian 16:  ES64L-G16RevA.03 25-Dec-2016

 --------------------------
 # td=(NStates=1) B3LYP/SVP
 --------------------------

 --
 TD
 --
 Symbolic Z-matrix:
 Charge =  0 Multiplicity = 1

                         Standard orientation:
 ---------------------------------------------------------------------
 Center     Atomic      Atomic             Coordinates (Angstroms)
 Number     Number       Type             X           Y           Z
 ---------------------------------------------------------------------
      1          6           0       -5.053515   -1.822571    0.551381
      2          6           0       -4.731874    2.828871    1.194476
      3          6           0       -9.514549    3.314032   -0.303017
      4          6           0       -9.916543   -1.511140   -0.833366
      5          7           0       -5.153436    0.527961    0.737273
      6          6           0       -4.437556   -0.630106    0.803483
      7          6           0       -2.958960   -0.506802    1.196908
      8          6           0       -3.036748    0.972442    1.720801
      9          6           0       -4.335042    1.483110    1.234633
     10          6           0       -2.944859    1.094570    3.243558
     11          6           0       -1.934130   -0.714089    0.022097
     12          6           0       -0.459286   -0.814865    0.643750
     13          6           0        0.450817   -1.270003   -0.494568
     14          8           0        0.086482   -1.898754   -1.484655
     15          8           0        1.704943   -0.908448   -0.229269
     16          7           0       -7.105594    2.785282    0.334500
     17          6           0       -5.953994    3.368217    0.878434
     18          6           0       -6.271164    4.818121    0.877710
     19          6           0       -7.548605    5.072417    0.368124
     20          6           0       -8.160637    3.662093    0.060376
     21          6           0       -5.354710    5.931036    1.304977
     22          6           0       -8.194547    6.376134    0.406542
     23          6           0       -9.251507    6.733745   -0.556068
     24          7           0       -9.284812    0.946187   -0.449849
     25          6           0      -10.036118    2.036295   -0.496690
     26          6           0      -11.370921    1.864959   -0.839247
     27          6           0      -11.513255    0.408243   -0.966091
     28          6           0      -10.211743   -0.109318   -0.634024
     29          6           0      -12.404395    2.930891   -1.164335
     30          6           0      -12.864941   -0.371963   -1.455686
     31          6           0      -12.750445   -0.685430   -3.027012
     32          7           0       -7.386524   -1.225920   -0.082661
     33          6           0       -8.615104   -2.017502   -0.469737
     34          6           0       -8.136022   -3.364604   -0.567383
     35          6           0       -6.831869   -3.383660   -0.147238
     36          6           0       -6.398761   -2.061488    0.176465
     37          6           0       -8.917625   -4.700031   -0.952881
     38          6           0       -5.614075   -4.247889    0.067568
     39          8           0       -5.477940   -5.422526   -0.319806
     40          6           0       -4.432011   -3.308553    0.538285
     41          6           0       -3.941487   -3.794417    1.821221
     42          8           0       -4.214254   -3.441244    2.961019
     43          8           0       -2.936959   -4.729899    1.460764
     44          6           0       -2.261799   -5.503248    2.592185
     45          6           0        2.756902   -1.301349   -1.178226
     46          6           0        4.075414   -0.845225   -0.533830
     47          6           0        4.990993   -0.020388   -1.102705
     48          6           0        4.912915    0.641635   -2.347508
     49          6           0        6.196169    0.128187   -0.312621
     50          6           0        7.531046   -0.449878   -0.975850
     51          6           0        8.787107   -0.232043   -0.194657
     52          6           0       10.133558   -0.747399   -0.828869
     53          6           0        9.945514   -2.211292   -1.169605
     54          6           0       11.288970   -0.351955    0.033981
     55          6           0       12.702145   -0.482085   -0.718967
     56          6           0       13.824244    0.160068    0.143074
     57          6           0       15.208906   -0.159153   -0.413852
     58          6           0       15.508693   -1.594076   -0.480904
     59          6           0       16.294971    0.631517    0.373956
     60          6           0       17.710298    0.737897   -0.200786
     61          6           0       18.728778    1.461145    0.798947
     62          6           0       20.028134    1.658105    0.175530
     63          6           0       20.077332    2.548912   -1.193232
     64          6           0       20.932171    2.448487    1.246659
     65          1           0       -4.163564    3.662066    1.584618
     66          1           0      -10.119049    4.179639   -0.230398
     67          1           0      -10.526604   -2.316663   -1.152084
     68          1           0       -2.591376   -1.286775    2.136294
     69          1           0       -2.279375    1.602048    1.372422
     70          1           0       -1.766369    0.741930    3.377258
     71          1           0       -2.833511    2.047742    3.711034
     72          1           0       -3.703177    0.315414    3.814264
     73          1           0       -1.882810   -1.749971   -0.337242
     74          1           0       -2.069621    0.043942   -0.654164
     75          1           0       -0.116625    0.121815    0.779673
     76          1           0       -0.263008   -1.461597    1.399636
     77          1           0       -4.555223    5.969868    0.750618
     78          1           0       -5.902604    6.911621    1.262277
     79          1           0       -4.859296    5.873969    2.391277
     80          1           0       -8.017247    7.109924    1.047772
     81          1           0       -9.579205    6.035735   -1.302289
     82          1           0       -9.510005    7.692394   -0.731882
     83          1           0      -12.608130    3.436001   -0.240388
     84          1           0      -12.257542    3.709469   -1.989026
     85          1           0      -13.239687    2.373443   -1.496645
     86          1           0      -12.724221   -1.280090   -1.079325
     87          1           0      -13.868230    0.209259   -1.348215
     88          1           0      -12.672761    0.332304   -3.486078
     89          1           0      -11.811688   -1.194734   -3.187485
     90          1           0      -13.763201   -1.104430   -3.384564
     91          1           0       -9.817701   -4.778579   -0.563767
     92          1           0       -9.209540   -4.704570   -2.016707
     93          1           0       -8.366129   -5.599458   -0.720628
     94          1           0       -3.774913   -3.458558   -0.339536
     95          1           0       -1.732347   -6.239681    2.150267
     96          1           0       -1.832902   -4.662992    3.247442
     97          1           0       -3.078544   -5.979165    3.234849
     98          1           0        2.657645   -2.429521   -1.565395
     99          1           0        2.765592   -0.592259   -2.059915
    100          1           0        4.135585   -1.373877    0.399762
    101          1           0        5.563494    1.582361   -2.566661
    102          1           0        5.333635    0.110391   -3.214132
    103          1           0        4.002530    0.760667   -2.803634
    104          1           0        6.395884    1.220525   -0.057669
    105          1           0        6.204897   -0.359478    0.740707
    106          1           0        7.285969   -1.479019   -1.233893
    107          1           0        7.676493    0.099778   -1.958071
    108          1           0        8.698189    0.750642   -0.182408
    109          1           0        8.413466   -0.634103    0.898189
    110          1           0       10.227258   -0.131318   -1.712231
    111          1           0        9.054473   -2.318513   -1.744705
    112          1           0       10.933735   -2.533446   -1.495348
    113          1           0        9.445528   -2.652626   -0.207824
    114          1           0       11.051204    0.775939    0.378935
    115          1           0       11.264129   -0.828706    0.835607
    116          1           0       13.045529   -1.568282   -0.904302
    117          1           0       12.461802    0.026176   -1.679813
    118          1           0       13.675103    1.344417    0.256277
    119          1           0       13.648350   -0.070275    1.241616
    120          1           0       15.322837    0.222956   -1.540081
    121          1           0       14.799459   -2.128115   -1.225417
    122          1           0       16.577807   -1.749450   -0.884781
    123          1           0       15.459985   -2.082695    0.450022
    124          1           0       15.824203    1.754865    0.510653
    125          1           0       16.409975    0.042813    1.367550
    126          1           0       18.105762   -0.332040   -0.432604
    127          1           0       17.557734    1.366618   -1.111142
    128          1           0       18.360643    2.582711    1.099797
    129          1           0       18.925860    0.793637    1.697790
    130          1           0       20.535114    0.667461   -0.113562
    131          1           0       19.504949    3.583826   -1.202007
    132          1           0       21.140718    2.570557   -1.278293
    133          1           0       19.401538    1.891448   -1.922878
    134          1           0       20.965473    2.185962    2.371380
    135          1           0       21.988245    2.603236    0.803942
    136          1           0       20.419711    3.468613    1.417168
    137          1           0       -7.288786    1.913884    0.419079
    138          1           0       -7.598818   -0.226336   -0.167234
 ---------------------------------------------------------------------

 SCF Done:  E(RB3LYP) =  -2733.02867461     A.U. after   16 cycles

 Excitation energies and oscillator strengths:

 Excited State   1:      Singlet-A      2.0787 eV  596.45 nm  f=0.1022  <S**2>=0.000
     235 -> 238       -0.34210
     236 -> 237        0.59880
 This state for optimization and/or second-order correction.
 Total Energy, E(TD-HF/TD-DFT) =  -2732.95228408
 Copying the excited state density for this state as the 1-particle RhoCI density.

 The electronic state is 1-A.
 Alpha  occ. eigenvalues --  -19.18448 -19.16239 -19.12952 -19.12121 -19.12005
 Alpha  occ. eigenvalues --  -14.36629 -14.36226 -14.32314 -14.29394 -10.31525
 Alpha  occ. eigenvalues --  -10.31224 -10.28182 -10.25967 -10.25072 -10.24560
 Alpha  occ. eigenvalues --  -10.24529 -10.23586 -10.23374 -10.23112 -10.22767
 Alpha  occ. eigenvalues --  -10.22096 -10.21783 -10.21782 -10.21758 -10.21588
 Alpha  occ. eigenvalues --  -10.21543 -10.21486 -10.21124 -10.20982 -10.20672
 Alpha  occ. eigenvalues --  -10.20198 -10.20113 -10.20050 -10.20010 -10.20002
 Alpha  occ. eigenvalues --  -10.19884 -10.19873 -10.19802 -10.19620 -10.19580
 Alpha  occ. eigenvalues --  -10.19570 -10.19551 -10.19543 -10.19507 -10.19504
 Alpha  occ. eigenvalues --  -10.19450 -10.19445 -10.19441 -10.19422 -10.19331
 Alpha  occ. eigenvalues --  -10.19218 -10.19147 -10.19051 -10.18913 -10.18756
 Alpha  occ. eigenvalues --  -10.18689 -10.18639 -10.18577 -10.18484 -10.18234
 Alpha  occ. eigenvalues --  -10.18075 -10.18021 -10.17985 -10.17439  -1.09275
 Alpha  occ. eigenvalues --   -1.05730  -1.00721  -0.99881  -0.98426  -0.97287
 Alpha  occ. eigenvalues --   -0.96666  -0.94837  -0.92912  -0.84154  -0.83341
 Alpha  occ. eigenvalues --   -0.82288  -0.81961  -0.81367  -0.81046  -0.80652
 Alpha  occ. eigenvalues --   -0.79747  -0.79624  -0.78989  -0.78111  -0.77323
 Alpha  occ. eigenvalues --   -0.76833  -0.75935  -0.75200  -0.74509  -0.73847
 Alpha  occ. eigenvalues --   -0.73627  -0.73057  -0.72463  -0.71862  -0.70951
 Alpha  occ. eigenvalues --   -0.70662  -0.69748  -0.68700  -0.68674  -0.67719
 Alpha  occ. eigenvalues --   -0.67120  -0.66570  -0.65890  -0.65593  -0.65016
 Alpha  occ. eigenvalues --   -0.64622  -0.63321  -0.62690  -0.61663  -0.61506
 Alpha  occ. eigenvalues --   -0.60644  -0.59008  -0.58706  -0.57762  -0.57434
 Alpha  occ. eigenvalues --   -0.57022  -0.56848  -0.55922  -0.55610  -0.55163
 Alpha  occ. eigenvalues --   -0.54838  -0.54605  -0.53941  -0.53825  -0.53316
 Alpha  occ. eigenvalues --   -0.53083  -0.51743  -0.51557  -0.50898  -0.50842
 Alpha  occ. eigenvalues --   -0.50270  -0.49526  -0.49091  -0.48562  -0.48515
 Alpha  occ. eigenvalues --   -0.48096  -0.47622  -0.47398  -0.47096  -0.47035
 Alpha  occ. eigenvalues --   -0.46814  -0.46633  -0.46323  -0.45804  -0.45426
 Alpha  occ. eigenvalues --   -0.45411  -0.45312  -0.44973  -0.44792  -0.44700
 Alpha  occ. eigenvalues --   -0.44400  -0.44237  -0.43960  -0.43792  -0.43625
 Alpha  occ. eigenvalues --   -0.43019  -0.42959  -0.42749  -0.42496  -0.42329
 Alpha  occ. eigenvalues --   -0.42210  -0.41879  -0.41716  -0.41188  -0.41113
 Alpha  occ. eigenvalues --   -0.41027  -0.40867  -0.40589  -0.40275  -0.40205
 Alpha  occ. eigenvalues --   -0.40125  -0.39960  -0.39751  -0.39563  -0.39441
 Alpha  occ. eigenvalues --   -0.39348  -0.39137  -0.38759  -0.38691  -0.38499
 Alpha  occ. eigenvalues --   -0.38312  -0.38154  -0.37870  -0.37683  -0.37441
 Alpha  occ. eigenvalues --   -0.37370  -0.37187  -0.36981  -0.36627  -0.36578
 Alpha  occ. eigenvalues --   -0.36229  -0.36162  -0.36087  -0.35998  -0.35787
 Alpha  occ. eigenvalues --   -0.35632  -0.35299  -0.35263  -0.35006  -0.34912
 Alpha  occ. eigenvalues --   -0.34493  -0.34369  -0.34353  -0.34021  -0.33807
 Alpha  occ. eigenvalues --   -0.33714  -0.33403  -0.32896  -0.32257  -0.32167
 Alpha  occ. eigenvalues --   -0.32047  -0.32006  -0.31773  -0.31698  -0.31525
 Alpha  occ. eigenvalues --   -0.31339  -0.30696  -0.30438  -0.30325  -0.30208
 Alpha  occ. eigenvalues --   -0.29871  -0.29402  -0.28640  -0.28148  -0.28075
 Alpha  occ. eigenvalues --   -0.27889  -0.27418  -0.26948  -0.26671  -0.25911
 Alpha  occ. eigenvalues --   -0.24692  -0.24640  -0.23165  -0.21197  -0.19917
 Alpha  occ. eigenvalues --   -0.19065
 Alpha virt. eigenvalues --   -0.09982  -0.08554  -0.04646  -0.03246  -0.01323
 Alpha virt. eigenvalues --   -0.00741   0.00294   0.00579   0.01664   0.03587
 Alpha virt. eigenvalues --    0.03797   0.04169   0.04243   0.04718   0.04739

 Mulliken charges:
               1
     1  C    0.066618
     2  C   -0.051991
     3  C   -0.062033
     4  C   -0.029559
     5  N   -0.161956
     6  C   -0.068038
     7  C   -0.142498
     8  C    0.058785
     9  C    0.038994
    10  C   -0.011972
    11  C    0.098169
    12  C    0.126390
    13  C    0.138543
    14  O   -0.256451
    15  O   -0.307334
    16  N    0.007906
    17  C    0.095647
    18  C   -0.146957
    19  C    0.073194
    20  C    0.033514
    21  C    0.121089
    22  C   -0.056803
    23  C   -0.011897
    24  N   -0.258334
    25  C    0.121534
    26  C   -0.181926
    27  C   -0.141177
    28  C    0.118630
    29  C    0.135530
    30  C    0.114868
    31  C   -0.034876
    32  N   -0.085490
    33  C    0.016672
    34  C   -0.163761
    35  C    0.027787
    36  C    0.062883
    37  C    0.175563
    38  C    0.053526
    39  O   -0.200329
    40  C   -0.024637
    41  C    0.261274
    42  O   -0.224390
    43  O   -0.392364
    44  C    0.200598
    45  C    0.222467
    46  C   -0.130490
    47  C   -0.024157
    48  C    0.098543
    49  C    0.025632
    50  C   -0.045149
    51  C    0.040158
    52  C   -0.052239
    53  C    0.087951
    54  C    0.100477
    55  C    0.011453
    56  C    0.002452
    57  C   -0.063362
    58  C    0.026347
    59  C   -0.026113
    60  C    0.003227
    61  C    0.019829
    62  C   -0.120525
    63  C   -0.030289
    64  C   -0.031849
    65  H   -0.048634
    66  H   -0.035892
    67  H   -0.024648
    68  H    0.055005
    69  H   -0.031997
    70  H    0.013243
    71  H    0.015097
    72  H    0.067622
    73  H    0.046467
    74  H   -0.010614
    75  H   -0.017169
    76  H    0.012209
    77  H   -0.017682
    78  H    0.017724
    79  H    0.030093
    80  H   -0.031435
    81  H    0.028017
    82  H    0.003196
    83  H    0.016072
    84  H    0.029539
    85  H   -0.016517
    86  H   -0.035058
    87  H    0.036314
    88  H    0.011113
    89  H    0.019923
    90  H    0.030856
    91  H   -0.030660
    92  H    0.009954
    93  H    0.035752
    94  H    0.078500
    95  H    0.024375
    96  H    0.048539
    97  H    0.039993
    98  H    0.071128
    99  H    0.006041
   100  H   -0.010423
   101  H    0.022700
   102  H    0.012998
   103  H   -0.015806
   104  H    0.001820
   105  H    0.006559
   106  H   -0.000476
   107  H   -0.011186
   108  H   -0.054898
   109  H    0.003434
   110  H   -0.028279
   111  H   -0.003413
   112  H    0.021200
   113  H    0.000229
   114  H   -0.000229
   115  H   -0.086159
   116  H    0.022041
   117  H    0.001752
   118  H   -0.001932
   119  H    0.002486
   120  H   -0.005969
   121  H    0.024795
   122  H    0.010603
   123  H   -0.007609
   124  H    0.013183
   125  H   -0.004719
   126  H    0.014180
   127  H    0.007630
   128  H    0.014725
   129  H    0.011470
   130  H    0.009097
   131  H    0.030013
   132  H    0.022004
   133  H    0.033796
   134  H    0.016977
   135  H    0.021906
   136  H    0.005194
   137  H    0.058365
   138  H    0.148168
 Sum of Mulliken charges =  -0.00000

 Dipole moment (field-independent basis, Debye):
    X=              4.0863    Y=              4.7708    Z=              0.3523  Tot=              6.2915
 Quadrupole moment (field-independent basis, Debye-Ang):
   XX=           -360.6047   YY=           -378.8805   ZZ=           -397.1794
   XY=            -27.4101   XZ=              5.4829   YZ=             -3.4813

 Normal termination of Gaussian 16 at Sun Sep  1 07:02:41 2019.
