 Gaussian 16, Revision A.03,
 Gaussian 16:  ES64L-G16RevA.03 25-Dec-2016

 --------------------------
 # td=(NStates=1) B3LYP/SVP
 --------------------------

 --
 TD
 --
 Symbolic Z-matrix:
 Charge =  0 Multiplicity = 1

                         Standard orientation:
 ---------------------------------------------------------------------
 Center     Atomic      Atomic             Coordinates (Angstroms)
 Number     Number       Type             X           Y           Z
 ---------------------------------------------------------------------
      1          6           0       -5.061552   -2.012062    0.468685
      2          6           0       -4.788588    2.626212    1.548048
      3          6           0       -9.211062    3.254307   -0.396168
      4          6           0       -9.773120   -1.538215   -0.937695
      5          7           0       -5.192727    0.336337    0.804271
      6          6           0       -4.478829   -0.833066    0.877603
      7          6           0       -3.082457   -0.597909    1.340031
      8          6           0       -3.166718    0.823467    1.966695
      9          6           0       -4.494835    1.360238    1.342881
     10          6           0       -3.128066    0.784793    3.573416
     11          6           0       -2.166166   -0.782467    0.230318
     12          6           0       -0.667125   -0.689036    0.550951
     13          6           0        0.259464   -0.790573   -0.566543
     14          8           0       -0.077636   -1.042616   -1.749802
     15          8           0        1.577684   -0.496179   -0.267453
     16          7           0       -7.049643    2.747708    0.512613
     17          6           0       -5.923915    3.363656    1.095072
     18          6           0       -6.178782    4.744569    1.141724
     19          6           0       -7.405056    4.965720    0.538031
     20          6           0       -8.002258    3.592547    0.172737
     21          6           0       -5.321136    5.744349    1.757203
     22          6           0       -8.122528    6.171456    0.389551
     23          6           0       -9.086028    6.608958   -0.477990
     24          7           0       -9.171721    0.797752   -0.520609
     25          6           0       -9.821867    2.029432   -0.652986
     26          6           0      -11.184630    1.827887   -1.126335
     27          6           0      -11.323780    0.433665   -1.267940
     28          6           0      -10.020315   -0.067116   -0.855973
     29          6           0      -12.091978    2.967112   -1.374375
     30          6           0      -12.529573   -0.266211   -1.740254
     31          6           0      -12.559883   -0.282875   -3.301101
     32          7           0       -7.522753   -1.229518   -0.239871
     33          6           0       -8.547393   -2.111278   -0.648346
     34          6           0       -8.211291   -3.485724   -0.537401
     35          6           0       -6.877153   -3.517937   -0.179545
     36          6           0       -6.417294   -2.134416    0.001480
     37          6           0       -8.994391   -4.640162   -0.889056
     38          6           0       -5.633552   -4.353028    0.055794
     39          8           0       -5.548935   -5.588388   -0.005615
     40          6           0       -4.492407   -3.347909    0.498025
     41          6           0       -3.828102   -3.800641    1.779579
     42          8           0       -4.088976   -3.358840    2.894748
     43          8           0       -2.922391   -4.754177    1.427499
     44          6           0       -2.397409   -5.341070    2.605786
     45          6           0        2.591820   -0.696341   -1.245560
     46          6           0        3.955229   -0.543096   -0.503280
     47          6           0        4.906000    0.308135   -0.937155
     48          6           0        4.799922    1.282213   -2.157745
     49          6           0        6.273682    0.273814   -0.268885
     50          6           0        7.426025   -0.480986   -0.932775
     51          6           0        8.743652   -0.456818   -0.181598
     52          6           0       10.086517   -0.752078   -0.898839
     53          6           0        9.906832   -2.188895   -1.479471
     54          6           0       11.254093   -0.610672    0.093786
     55          6           0       12.710253   -0.512614   -0.840058
     56          6           0       13.815463   -0.336179    0.252140
     57          6           0       15.252569   -0.242794   -0.427918
     58          6           0       15.654871   -1.802552   -0.897805
     59          6           0       16.245370    0.409686    0.492892
     60          6           0       17.680613    0.670792   -0.201933
     61          6           0       18.463659    1.577919    0.670595
     62          6           0       19.940268    1.726261    0.131335
     63          6           0       20.088127    2.515562   -1.134425
     64          6           0       20.780145    2.383848    1.271803
     65          1           0       -3.758717    3.354706    1.649375
     66          1           0      -10.012845    4.138146   -0.459586
     67          1           0      -10.386679   -2.243040   -1.427364
     68          1           0       -2.807458   -1.380873    2.209692
     69          1           0       -2.238342    1.438146    1.579706
     70          1           0       -2.134708    0.368258    4.107448
     71          1           0       -3.230435    1.649296    3.956547
     72          1           0       -4.013755    0.190382    3.963609
     73          1           0       -2.395906   -1.815819   -0.239141
     74          1           0       -2.147867   -0.103927   -0.474004
     75          1           0       -0.485289    0.186869    1.030323
     76          1           0       -0.375654   -1.541497    1.234760
     77          1           0       -4.310326    5.825836    1.207012
     78          1           0       -5.895163    6.797428    1.792063
     79          1           0       -4.889028    5.406209    2.640328
     80          1           0       -7.687559    6.921559    1.039330
     81          1           0       -9.547004    5.977950   -1.296336
     82          1           0       -9.263147    7.714994   -0.545552
     83          1           0      -12.449085    3.579132   -0.514196
     84          1           0      -11.849297    3.750721   -2.106842
     85          1           0      -13.222848    2.526604   -1.721991
     86          1           0      -12.999069   -1.300559   -1.178740
     87          1           0      -13.440629    0.276752   -1.572641
     88          1           0      -12.651060    0.857666   -3.467547
     89          1           0      -11.371267   -0.409438   -3.816556
     90          1           0      -13.271572   -1.204764   -3.842604
     91          1           0       -9.858604   -4.817512   -0.090645
     92          1           0       -9.553908   -4.625838   -1.952393
     93          1           0       -8.218144   -5.438397   -0.913658
     94          1           0       -3.571021   -3.528612   -0.219399
     95          1           0       -1.838708   -6.200586    2.275434
     96          1           0       -1.544237   -4.598252    3.166710
     97          1           0       -3.223731   -5.609768    3.144556
     98          1           0        2.530005   -1.720410   -1.754568
     99          1           0        2.526596    0.107993   -2.161230
    100          1           0        4.066928   -0.958136    0.516556
    101          1           0        5.315624    2.130711   -1.715264
    102          1           0        5.401363    0.802641   -3.148883
    103          1           0        3.753403    1.388351   -2.508316
    104          1           0        6.564721    1.180168   -0.122308
    105          1           0        6.291892   -0.039732    0.776358
    106          1           0        7.299262   -1.525456   -0.955837
    107          1           0        7.390595   -0.095559   -1.983210
    108          1           0        8.843532    0.790382    0.081230
    109          1           0        8.728924   -0.942438    0.803016
    110          1           0       10.055914   -0.031280   -1.867323
    111          1           0        9.194229   -2.369372   -2.435949
    112          1           0       10.828207   -2.472920   -1.946672
    113          1           0        9.760351   -3.103712   -0.632416
    114          1           0       11.288320    0.419935    0.683033
    115          1           0       11.515724   -1.398269    1.010549
    116          1           0       12.745880   -1.419139   -1.496796
    117          1           0       12.594380    0.295231   -1.604746
    118          1           0       13.411950    0.675365    0.792507
    119          1           0       14.093892   -1.063491    1.202457
    120          1           0       15.228447    0.334997   -1.271590
    121          1           0       14.782170   -2.315152   -1.261955
    122          1           0       16.591561   -1.674177   -1.658799
    123          1           0       16.063351   -2.472989    0.120970
    124          1           0       15.729294    1.446848    0.844506
    125          1           0       16.407482   -0.209812    1.383745
    126          1           0       18.061971   -0.453836   -0.242695
    127          1           0       17.518555    1.040448   -1.160672
    128          1           0       18.120621    2.710771    0.605857
    129          1           0       18.796491    1.509483    1.769677
    130          1           0       20.302732    0.691347    0.013746
    131          1           0       19.940504    3.628379   -0.884016
    132          1           0       21.119611    2.166808   -1.778717
    133          1           0       19.325743    2.040112   -1.870128
    134          1           0       20.777756    1.757670    2.314511
    135          1           0       21.875153    2.374541    1.109323
    136          1           0       20.510333    3.328820    1.590503
    137          1           0       -6.944224    1.670459    0.612386
    138          1           0       -7.798252   -0.402995    0.061590
 ---------------------------------------------------------------------

 SCF Done:  E(RB3LYP) =  -2732.94115213     A.U. after   17 cycles

 Excitation energies and oscillator strengths:

 Excited State   1:      Singlet-A      1.9456 eV  637.25 nm  f=0.1636  <S**2>=0.000
     235 -> 238       -0.28650
     236 -> 237        0.63616
 This state for optimization and/or second-order correction.
 Total Energy, E(TD-HF/TD-DFT) =  -2732.86965174
 Copying the excited state density for this state as the 1-particle RhoCI density.

 The electronic state is 1-A.
 Alpha  occ. eigenvalues --  -19.19411 -19.17737 -19.13911 -19.13466 -19.12135
 Alpha  occ. eigenvalues --  -14.37619 -14.36019 -14.32432 -14.29717 -10.32672
 Alpha  occ. eigenvalues --  -10.31836 -10.29700 -10.26162 -10.25178 -10.25175
 Alpha  occ. eigenvalues --  -10.24019 -10.23721 -10.23305 -10.22954 -10.22434
 Alpha  occ. eigenvalues --  -10.22307 -10.21942 -10.21941 -10.21666 -10.21487
 Alpha  occ. eigenvalues --  -10.21391 -10.21372 -10.21358 -10.21311 -10.20935
 Alpha  occ. eigenvalues --  -10.20928 -10.20851 -10.20819 -10.20799 -10.20639
 Alpha  occ. eigenvalues --  -10.20605 -10.20586 -10.20464 -10.20414 -10.20335
 Alpha  occ. eigenvalues --  -10.20316 -10.20309 -10.20259 -10.20183 -10.20156
 Alpha  occ. eigenvalues --  -10.20147 -10.20145 -10.20021 -10.20019 -10.19998
 Alpha  occ. eigenvalues --  -10.19465 -10.19296 -10.19142 -10.18985 -10.18944
 Alpha  occ. eigenvalues --  -10.18890 -10.18865 -10.18759 -10.18754 -10.18740
 Alpha  occ. eigenvalues --  -10.18665 -10.18016 -10.17953 -10.17145  -1.10672
 Alpha  occ. eigenvalues --   -1.07889  -1.02250  -1.01738  -0.98609  -0.98542
 Alpha  occ. eigenvalues --   -0.97087  -0.95247  -0.94390  -0.85704  -0.82911
 Alpha  occ. eigenvalues --   -0.82567  -0.82190  -0.82000  -0.81062  -0.81011
 Alpha  occ. eigenvalues --   -0.79927  -0.79829  -0.78898  -0.78806  -0.77561
 Alpha  occ. eigenvalues --   -0.77190  -0.76265  -0.75599  -0.74409  -0.73982
 Alpha  occ. eigenvalues --   -0.73925  -0.72975  -0.72191  -0.70863  -0.70514
 Alpha  occ. eigenvalues --   -0.70235  -0.69460  -0.68775  -0.67750  -0.67314
 Alpha  occ. eigenvalues --   -0.66791  -0.66688  -0.65812  -0.65327  -0.64774
 Alpha  occ. eigenvalues --   -0.64631  -0.63496  -0.62691  -0.61801  -0.61395
 Alpha  occ. eigenvalues --   -0.59419  -0.59094  -0.58913  -0.58133  -0.57672
 Alpha  occ. eigenvalues --   -0.57016  -0.56131  -0.55486  -0.55454  -0.55296
 Alpha  occ. eigenvalues --   -0.55025  -0.54331  -0.54119  -0.53980  -0.53381
 Alpha  occ. eigenvalues --   -0.52864  -0.52515  -0.51291  -0.50976  -0.50552
 Alpha  occ. eigenvalues --   -0.50293  -0.49902  -0.49624  -0.48911  -0.48601
 Alpha  occ. eigenvalues --   -0.48182  -0.47935  -0.47431  -0.46914  -0.46745
 Alpha  occ. eigenvalues --   -0.46555  -0.46377  -0.46010  -0.45808  -0.45471
 Alpha  occ. eigenvalues --   -0.45380  -0.45075  -0.44619  -0.44567  -0.44388
 Alpha  occ. eigenvalues --   -0.44064  -0.43979  -0.43879  -0.43589  -0.43374
 Alpha  occ. eigenvalues --   -0.43194  -0.43052  -0.42793  -0.42723  -0.42606
 Alpha  occ. eigenvalues --   -0.42258  -0.41922  -0.41492  -0.41301  -0.41182
 Alpha  occ. eigenvalues --   -0.40902  -0.40754  -0.40291  -0.40278  -0.40022
 Alpha  occ. eigenvalues --   -0.39943  -0.39841  -0.39672  -0.39314  -0.39192
 Alpha  occ. eigenvalues --   -0.39074  -0.38782  -0.38504  -0.38448  -0.38234
 Alpha  occ. eigenvalues --   -0.38059  -0.37957  -0.37885  -0.37665  -0.37499
 Alpha  occ. eigenvalues --   -0.37363  -0.37052  -0.36977  -0.36742  -0.36701
 Alpha  occ. eigenvalues --   -0.36577  -0.36323  -0.36297  -0.36209  -0.35922
 Alpha  occ. eigenvalues --   -0.35804  -0.35158  -0.35018  -0.34848  -0.34587
 Alpha  occ. eigenvalues --   -0.34490  -0.34122  -0.33647  -0.33500  -0.33360
 Alpha  occ. eigenvalues --   -0.33178  -0.32879  -0.32846  -0.32627  -0.32537
 Alpha  occ. eigenvalues --   -0.32466  -0.32076  -0.31955  -0.31545  -0.31289
 Alpha  occ. eigenvalues --   -0.31193  -0.30750  -0.30508  -0.30020  -0.29737
 Alpha  occ. eigenvalues --   -0.29216  -0.28969  -0.28828  -0.28098  -0.27490
 Alpha  occ. eigenvalues --   -0.27419  -0.27037  -0.26574  -0.26477  -0.26450
 Alpha  occ. eigenvalues --   -0.26053  -0.24594  -0.23525  -0.23064  -0.20335
 Alpha  occ. eigenvalues --   -0.18956
 Alpha virt. eigenvalues --   -0.10766  -0.08710  -0.05454  -0.02321  -0.01394
 Alpha virt. eigenvalues --   -0.00975  -0.00027   0.00107   0.01514   0.02790
 Alpha virt. eigenvalues --    0.03141   0.03446   0.03486   0.03838   0.04176

 Mulliken charges:
               1
     1  C    0.105433
     2  C   -0.093628
     3  C   -0.095816
     4  C   -0.050440
     5  N   -0.193318
     6  C   -0.083768
     7  C   -0.035338
     8  C   -0.095492
     9  C    0.025827
    10  C    0.103831
    11  C    0.115770
    12  C    0.105106
    13  C    0.177710
    14  O   -0.273341
    15  O   -0.322693
    16  N   -0.074991
    17  C    0.038884
    18  C   -0.092245
    19  C    0.049148
    20  C    0.078935
    21  C    0.109089
    22  C   -0.069269
    23  C   -0.059954
    24  N   -0.166575
    25  C    0.016747
    26  C   -0.051280
    27  C   -0.083252
    28  C    0.028537
    29  C    0.005775
    30  C    0.034457
    31  C   -0.115074
    32  N   -0.037700
    33  C    0.058994
    34  C   -0.122973
    35  C    0.004893
    36  C    0.096081
    37  C   -0.003500
    38  C    0.118735
    39  O   -0.182609
    40  C   -0.104852
    41  C    0.202297
    42  O   -0.229221
    43  O   -0.293445
    44  C    0.184788
    45  C    0.206120
    46  C   -0.057237
    47  C   -0.163913
    48  C    0.030616
    49  C    0.153876
    50  C    0.088266
    51  C   -0.054629
    52  C   -0.040613
    53  C   -0.035181
    54  C   -0.055894
    55  C   -0.006288
    56  C   -0.053129
    57  C   -0.010416
    58  C   -0.071082
    59  C   -0.005747
    60  C    0.061524
    61  C    0.001569
    62  C   -0.107133
    63  C   -0.016325
    64  C    0.006375
    65  H    0.031809
    66  H    0.022871
    67  H   -0.034067
    68  H    0.040984
    69  H    0.008485
    70  H    0.027142
    71  H   -0.051053
    72  H    0.031646
    73  H    0.018450
    74  H   -0.046090
    75  H   -0.007147
    76  H    0.029241
    77  H    0.020594
    78  H    0.046789
    79  H   -0.003314
    80  H   -0.022353
    81  H    0.037776
    82  H    0.033849
    83  H    0.029223
    84  H    0.030828
    85  H    0.018026
    86  H    0.023528
    87  H   -0.005830
    88  H    0.032648
    89  H    0.028628
    90  H    0.057792
    91  H    0.056038
    92  H    0.055087
    93  H    0.053258
    94  H    0.089835
    95  H    0.025216
    96  H    0.048380
    97  H    0.021410
    98  H    0.040971
    99  H    0.035425
   100  H    0.001480
   101  H    0.031226
   102  H    0.052215
   103  H    0.024781
   104  H   -0.077912
   105  H   -0.029728
   106  H   -0.014853
   107  H   -0.011460
   108  H   -0.013981
   109  H    0.005700
   110  H    0.021455
   111  H    0.036239
   112  H   -0.014328
   113  H    0.026811
   114  H    0.023254
   115  H    0.041892
   116  H    0.012328
   117  H    0.014750
   118  H    0.013545
   119  H    0.029633
   120  H   -0.037530
   121  H    0.024214
   122  H    0.043750
   123  H    0.024069
   124  H    0.009181
   125  H   -0.006113
   126  H    0.023504
   127  H   -0.010470
   128  H   -0.005880
   129  H    0.011489
   130  H   -0.010890
   131  H    0.035479
   132  H    0.024775
   133  H    0.010773
   134  H    0.005575
   135  H    0.005650
   136  H   -0.007348
   137  H    0.185924
   138  H    0.073705
 Sum of Mulliken charges =  -0.00000

 Dipole moment (field-independent basis, Debye):
    X=              2.1983    Y=              2.8985    Z=              1.2957  Tot=              3.8617
 Quadrupole moment (field-independent basis, Debye-Ang):
   XX=           -364.4624   YY=           -382.8251   ZZ=           -399.3181
   XY=            -16.8446   XZ=              0.2195   YZ=             -1.2005

 Normal termination of Gaussian 16 at Thu Aug 29 07:31:36 2019.
