 Gaussian 16, Revision A.03,
 Gaussian 16:  ES64L-G16RevA.03 25-Dec-2016

 --------------------------
 # td=(NStates=1) B3LYP/SVP
 --------------------------

 --
 TD
 --
 Symbolic Z-matrix:
 Charge =  0 Multiplicity = 1

                         Standard orientation:
 ---------------------------------------------------------------------
 Center     Atomic      Atomic             Coordinates (Angstroms)
 Number     Number       Type             X           Y           Z
 ---------------------------------------------------------------------
      1          6           0       -5.198151   -1.864499    0.606999
      2          6           0       -4.790516    2.853944    1.316668
      3          6           0       -9.368330    3.305975   -0.284661
      4          6           0       -9.895120   -1.466938   -0.819648
      5          7           0       -5.193158    0.521647    0.869172
      6          6           0       -4.519875   -0.686171    0.781059
      7          6           0       -3.094895   -0.500305    1.189906
      8          6           0       -3.002884    0.962437    1.640264
      9          6           0       -4.429108    1.525943    1.349648
     10          6           0       -2.735260    1.082206    3.172351
     11          6           0       -2.031555   -0.970706    0.106135
     12          6           0       -0.532188   -1.034731    0.597784
     13          6           0        0.508138   -1.280919   -0.572388
     14          8           0        0.193185   -1.675059   -1.732522
     15          8           0        1.705668   -1.028392   -0.268327
     16          7           0       -7.000645    2.782317    0.405632
     17          6           0       -5.953457    3.483256    0.977290
     18          6           0       -6.288555    4.805557    1.009902
     19          6           0       -7.579779    5.044555    0.490315
     20          6           0       -8.048683    3.662148    0.155642
     21          6           0       -5.408046    5.867363    1.477986
     22          6           0       -8.115034    6.262109    0.053959
     23          6           0       -9.024430    6.534238   -0.918434
     24          7           0       -9.248242    0.830661   -0.455941
     25          6           0       -9.955658    1.974026   -0.480854
     26          6           0      -11.296584    1.837400   -0.931763
     27          6           0      -11.510396    0.536258   -1.095691
     28          6           0      -10.218314   -0.130797   -0.787239
     29          6           0      -12.297362    2.978139   -0.971494
     30          6           0      -12.759256   -0.182289   -1.456483
     31          6           0      -12.968207   -0.523318   -2.963688
     32          7           0       -7.580386   -1.160219   -0.184780
     33          6           0       -8.687089   -2.015678   -0.419810
     34          6           0       -8.284684   -3.444212   -0.375666
     35          6           0       -6.955851   -3.284722    0.007962
     36          6           0       -6.512630   -1.907912    0.071763
     37          6           0       -9.121834   -4.622983   -0.737040
     38          6           0       -5.750769   -4.209381    0.084920
     39          8           0       -5.712435   -5.424768    0.101861
     40          6           0       -4.533258   -3.284580    0.535956
     41          6           0       -3.853078   -3.656162    1.761471
     42          8           0       -4.178385   -3.260435    2.861315
     43          8           0       -2.910797   -4.666854    1.506742
     44          6           0       -2.421336   -5.204593    2.622957
     45          6           0        2.695513   -1.375399   -1.225835
     46          6           0        4.061492   -1.032267   -0.733627
     47          6           0        4.949357   -0.150493   -1.187490
     48          6           0        4.830342    0.694113   -2.352483
     49          6           0        6.269412   -0.096932   -0.437949
     50          6           0        7.584359   -0.605031   -1.165511
     51          6           0        8.713687   -0.483043   -0.338336
     52          6           0       10.084613   -0.867799   -1.122412
     53          6           0       10.270671   -2.334050   -1.355795
     54          6           0       11.256037   -0.206370   -0.305959
     55          6           0       12.724734   -0.511761   -0.799644
     56          6           0       13.778306    0.050374    0.169011
     57          6           0       15.302757   -0.026513   -0.318225
     58          6           0       15.695582   -1.575331   -0.526714
     59          6           0       16.345055    0.784903    0.464221
     60          6           0       17.734290    0.846948   -0.093226
     61          6           0       18.515275    1.706929    0.758112
     62          6           0       20.143597    1.815736    0.465045
     63          6           0       20.479687    2.267966   -0.959182
     64          6           0       20.862974    2.557989    1.543628
     65          1           0       -4.076505    3.533981    1.658010
     66          1           0       -9.951564    4.230112   -0.504927
     67          1           0      -10.706820   -2.119578   -0.847755
     68          1           0       -2.820449   -0.974813    2.128138
     69          1           0       -2.182554    1.455743    0.852861
     70          1           0       -1.759332    0.447169    3.421489
     71          1           0       -2.372530    2.158982    3.537733
     72          1           0       -3.620719    0.751741    3.927079
     73          1           0       -2.313444   -1.953100   -0.159166
     74          1           0       -2.123009   -0.314915   -0.665953
     75          1           0        0.004668   -0.126636    1.160721
     76          1           0       -0.543528   -1.802447    1.473532
     77          1           0       -4.699358    6.378021    0.481254
     78          1           0       -6.055472    6.771489    1.899274
     79          1           0       -4.673172    5.446896    2.384566
     80          1           0       -7.883594    7.254815    0.545802
     81          1           0       -9.358149    5.796718   -1.573361
     82          1           0       -9.179782    7.639592   -1.133827
     83          1           0      -12.406170    3.615270    0.120432
     84          1           0      -12.007870    3.628213   -1.924925
     85          1           0      -13.368123    2.511719   -1.210895
     86          1           0      -12.799720   -1.270383   -0.952573
     87          1           0      -13.723244    0.451400   -1.293213
     88          1           0      -12.620694    0.394834   -3.477891
     89          1           0      -12.189734   -1.284735   -3.073793
     90          1           0      -14.060127   -0.744692   -3.324683
     91          1           0       -9.751162   -4.876673    0.035870
     92          1           0       -9.791718   -4.013409   -1.471624
     93          1           0       -8.456765   -5.543883   -1.168401
     94          1           0       -3.914000   -3.337884   -0.297371
     95          1           0       -1.984421   -6.205083    2.160824
     96          1           0       -1.671543   -4.507856    3.098590
     97          1           0       -3.194551   -5.660303    3.178138
     98          1           0        2.609041   -2.416102   -1.446498
     99          1           0        2.382500   -1.016517   -2.163488
    100          1           0        4.196586   -1.433802    0.266708
    101          1           0        4.993176    1.887904   -2.000997
    102          1           0        5.477705    0.641638   -3.469638
    103          1           0        3.724627    0.499609   -2.745161
    104          1           0        6.494193    1.045475   -0.352131
    105          1           0        6.152737   -0.322042    0.494468
    106          1           0        7.345606   -1.734968   -1.318702
    107          1           0        7.632900   -0.072001   -2.223579
    108          1           0        8.862175    0.513112   -0.385295
    109          1           0        8.701742   -1.000581    0.666085
    110          1           0       10.049246   -0.521390   -1.922084
    111          1           0        9.395462   -2.836648   -1.774898
    112          1           0       11.334287   -2.224688   -2.132508
    113          1           0       10.648545   -2.973461   -0.311721
    114          1           0       11.073138    0.815503   -0.116595
    115          1           0       11.212041   -0.372959    0.811448
    116          1           0       12.803146   -1.531270   -0.764682
    117          1           0       12.874297   -0.229477   -1.954166
    118          1           0       13.631883    1.061006    0.443492
    119          1           0       13.758863   -0.484739    1.164054
    120          1           0       15.300628    0.453770   -1.526799
    121          1           0       14.927286   -2.146689   -1.093607
    122          1           0       16.559032   -1.791123   -1.173134
    123          1           0       15.866675   -1.985042    0.531131
    124          1           0       16.150581    1.808604    0.335710
    125          1           0       16.061420    0.277660    1.396025
    126          1           0       18.052117   -0.296279   -0.068878
    127          1           0       17.761889    1.164110   -1.210585
    128          1           0       18.158947    2.764941    0.824896
    129          1           0       18.483496    1.338483    1.788624
    130          1           0       20.379693    0.619794    0.555935
    131          1           0       20.382294    3.395731   -0.905631
    132          1           0       21.465612    2.270973   -1.370296
    133          1           0       19.727984    1.703476   -1.646484
    134          1           0       20.774734    1.890040    2.398543
    135          1           0       21.849561    2.666249    1.387856
    136          1           0       20.336162    3.533047    1.771713
    137          1           0       -7.067961    1.762183   -0.082629
    138          1           0       -7.872007   -0.258370    0.106153
 ---------------------------------------------------------------------

 SCF Done:  E(RB3LYP) =  -2732.95399347     A.U. after   17 cycles

 Excitation energies and oscillator strengths:

 Excited State   1:      Singlet-A      2.0270 eV  611.67 nm  f=0.1206  <S**2>=0.000
     235 -> 238        0.34441
     236 -> 237        0.61118
 This state for optimization and/or second-order correction.
 Total Energy, E(TD-HF/TD-DFT) =  -2732.87950371
 Copying the excited state density for this state as the 1-particle RhoCI density.

 The electronic state is 1-A.
 Alpha  occ. eigenvalues --  -19.19455 -19.17414 -19.13348 -19.13048 -19.11050
 Alpha  occ. eigenvalues --  -14.36969 -14.36906 -14.31751 -14.30524 -10.31841
 Alpha  occ. eigenvalues --  -10.31691 -10.28648 -10.24368 -10.24141 -10.23970
 Alpha  occ. eigenvalues --  -10.23786 -10.23516 -10.23220 -10.23207 -10.22779
 Alpha  occ. eigenvalues --  -10.22648 -10.22644 -10.22589 -10.22197 -10.22096
 Alpha  occ. eigenvalues --  -10.21748 -10.21723 -10.21666 -10.21556 -10.21187
 Alpha  occ. eigenvalues --  -10.21042 -10.20951 -10.20908 -10.20880 -10.20867
 Alpha  occ. eigenvalues --  -10.20794 -10.20752 -10.20624 -10.20591 -10.20189
 Alpha  occ. eigenvalues --  -10.19919 -10.19819 -10.19682 -10.19605 -10.19515
 Alpha  occ. eigenvalues --  -10.19475 -10.19358 -10.19203 -10.19066 -10.19064
 Alpha  occ. eigenvalues --  -10.18901 -10.18831 -10.18687 -10.18565 -10.18515
 Alpha  occ. eigenvalues --  -10.18326 -10.18325 -10.18276 -10.18235 -10.18067
 Alpha  occ. eigenvalues --  -10.17678 -10.17454 -10.17364 -10.16887  -1.13219
 Alpha  occ. eigenvalues --   -1.10096  -1.03073  -1.02045  -0.98722  -0.97790
 Alpha  occ. eigenvalues --   -0.97295  -0.94000  -0.93446  -0.84634  -0.83796
 Alpha  occ. eigenvalues --   -0.82272  -0.82210  -0.81857  -0.81479  -0.80855
 Alpha  occ. eigenvalues --   -0.80198  -0.80007  -0.79372  -0.79102  -0.78102
 Alpha  occ. eigenvalues --   -0.77256  -0.76816  -0.75824  -0.75269  -0.74630
 Alpha  occ. eigenvalues --   -0.74093  -0.73537  -0.72837  -0.72036  -0.70419
 Alpha  occ. eigenvalues --   -0.69375  -0.68803  -0.68218  -0.68101  -0.67920
 Alpha  occ. eigenvalues --   -0.67071  -0.66832  -0.66406  -0.65923  -0.65821
 Alpha  occ. eigenvalues --   -0.63994  -0.62868  -0.62569  -0.62031  -0.61667
 Alpha  occ. eigenvalues --   -0.60772  -0.58962  -0.58809  -0.58581  -0.57631
 Alpha  occ. eigenvalues --   -0.57521  -0.57037  -0.56758  -0.56055  -0.55079
 Alpha  occ. eigenvalues --   -0.54539  -0.54279  -0.53832  -0.53337  -0.53170
 Alpha  occ. eigenvalues --   -0.52569  -0.52435  -0.51651  -0.51351  -0.51196
 Alpha  occ. eigenvalues --   -0.50444  -0.49838  -0.49783  -0.49391  -0.49298
 Alpha  occ. eigenvalues --   -0.48631  -0.48069  -0.47919  -0.47714  -0.47106
 Alpha  occ. eigenvalues --   -0.47038  -0.46804  -0.46448  -0.46263  -0.45736
 Alpha  occ. eigenvalues --   -0.45545  -0.45074  -0.44976  -0.44840  -0.44677
 Alpha  occ. eigenvalues --   -0.44640  -0.44475  -0.44027  -0.43986  -0.43735
 Alpha  occ. eigenvalues --   -0.43578  -0.43193  -0.43032  -0.42514  -0.42482
 Alpha  occ. eigenvalues --   -0.42119  -0.42085  -0.41720  -0.41579  -0.41302
 Alpha  occ. eigenvalues --   -0.41270  -0.41057  -0.40374  -0.40211  -0.40043
 Alpha  occ. eigenvalues --   -0.39846  -0.39732  -0.39646  -0.39500  -0.39346
 Alpha  occ. eigenvalues --   -0.39173  -0.38929  -0.38552  -0.38484  -0.38392
 Alpha  occ. eigenvalues --   -0.38086  -0.38037  -0.37846  -0.37739  -0.37534
 Alpha  occ. eigenvalues --   -0.37453  -0.37280  -0.37183  -0.36954  -0.36534
 Alpha  occ. eigenvalues --   -0.36484  -0.36353  -0.36220  -0.36130  -0.35701
 Alpha  occ. eigenvalues --   -0.35681  -0.35613  -0.35459  -0.35369  -0.34871
 Alpha  occ. eigenvalues --   -0.34777  -0.34153  -0.33982  -0.33791  -0.33598
 Alpha  occ. eigenvalues --   -0.33408  -0.33355  -0.33249  -0.32799  -0.32390
 Alpha  occ. eigenvalues --   -0.32284  -0.31968  -0.31838  -0.31650  -0.31157
 Alpha  occ. eigenvalues --   -0.30938  -0.30751  -0.30458  -0.30343  -0.29699
 Alpha  occ. eigenvalues --   -0.28834  -0.28565  -0.28374  -0.28117  -0.27960
 Alpha  occ. eigenvalues --   -0.27657  -0.26933  -0.26844  -0.26596  -0.25820
 Alpha  occ. eigenvalues --   -0.25289  -0.25184  -0.23678  -0.23446  -0.19835
 Alpha  occ. eigenvalues --   -0.19270
 Alpha virt. eigenvalues --   -0.10440  -0.08438  -0.04810  -0.02620  -0.01729
 Alpha virt. eigenvalues --   -0.01412  -0.00268   0.00331   0.01591   0.03152
 Alpha virt. eigenvalues --    0.03168   0.03498   0.03652   0.03869   0.04491

 Mulliken charges:
               1
     1  C   -0.019309
     2  C   -0.029161
     3  C   -0.072965
     4  C   -0.036452
     5  N   -0.199475
     6  C   -0.036438
     7  C   -0.000515
     8  C   -0.086741
     9  C   -0.001202
    10  C   -0.044281
    11  C    0.147146
    12  C   -0.078743
    13  C    0.179635
    14  O   -0.310200
    15  O   -0.217914
    16  N   -0.140540
    17  C    0.151100
    18  C   -0.062004
    19  C    0.114991
    20  C    0.011415
    21  C   -0.070390
    22  C   -0.104060
    23  C   -0.031837
    24  N   -0.270830
    25  C    0.087100
    26  C   -0.139445
    27  C   -0.000245
    28  C    0.045495
    29  C   -0.007658
    30  C   -0.036999
    31  C   -0.006579
    32  N    0.000023
    33  C    0.000859
    34  C   -0.096921
    35  C   -0.091979
    36  C    0.106723
    37  C    0.088437
    38  C    0.089947
    39  O   -0.169077
    40  C    0.019839
    41  C    0.215673
    42  O   -0.209778
    43  O   -0.292568
    44  C    0.175285
    45  C    0.300366
    46  C   -0.071225
    47  C   -0.066802
    48  C   -0.081963
    49  C    0.121732
    50  C   -0.027615
    51  C    0.104287
    52  C    0.108905
    53  C   -0.073811
    54  C    0.018978
    55  C    0.063907
    56  C    0.058463
    57  C   -0.168602
    58  C   -0.000339
    59  C    0.080149
    60  C    0.007387
    61  C    0.014640
    62  C   -0.163027
    63  C    0.030051
    64  C    0.118542
    65  H   -0.070325
    66  H   -0.017310
    67  H   -0.047051
    68  H    0.000847
    69  H    0.033828
    70  H    0.026865
    71  H    0.030152
    72  H    0.067488
    73  H    0.007616
    74  H   -0.014974
    75  H    0.043866
    76  H    0.047981
    77  H    0.057523
    78  H    0.049506
    79  H    0.056829
    80  H    0.008355
    81  H    0.008290
    82  H    0.037255
    83  H    0.068224
    84  H    0.047499
    85  H    0.025469
    86  H    0.024322
    87  H    0.015933
    88  H    0.008870
    89  H    0.007476
    90  H    0.043142
    91  H    0.019746
    92  H    0.037121
    93  H    0.083324
    94  H    0.031941
    95  H    0.021532
    96  H    0.032620
    97  H    0.008379
    98  H    0.001597
    99  H   -0.009133
   100  H   -0.010191
   101  H    0.051660
   102  H    0.065185
   103  H    0.029496
   104  H   -0.023011
   105  H   -0.067070
   106  H   -0.004612
   107  H    0.022159
   108  H   -0.044964
   109  H    0.017265
   110  H   -0.134968
   111  H    0.026726
   112  H    0.030806
   113  H    0.029395
   114  H   -0.041159
   115  H   -0.025484
   116  H   -0.011296
   117  H    0.016836
   118  H   -0.021972
   119  H   -0.006083
   120  H   -0.018457
   121  H    0.013250
   122  H    0.013833
   123  H    0.011153
   124  H   -0.020456
   125  H    0.004705
   126  H    0.005032
   127  H    0.021213
   128  H   -0.004800
   129  H   -0.011308
   130  H   -0.003423
   131  H   -0.007011
   132  H    0.000986
   133  H    0.026124
   134  H   -0.004381
   135  H   -0.021359
   136  H    0.012375
   137  H    0.214397
   138  H    0.131225
 Sum of Mulliken charges =  -0.00000

 Dipole moment (field-independent basis, Debye):
    X=              1.8390    Y=              4.2850    Z=              0.4368  Tot=              4.6833
 Quadrupole moment (field-independent basis, Debye-Ang):
   XX=           -355.7359   YY=           -386.5103   ZZ=           -399.7380
   XY=            -13.0382   XZ=             17.1188   YZ=             -2.4245

 Normal termination of Gaussian 16 at Mon Aug 19 00:58:07 2019.
