 Gaussian 16, Revision A.03,
 Gaussian 16:  ES64L-G16RevA.03 25-Dec-2016

 --------------------------
 # td=(NStates=1) B3LYP/SVP
 --------------------------

 --
 TD
 --
 Symbolic Z-matrix:
 Charge =  0 Multiplicity = 1

                         Standard orientation:
 ---------------------------------------------------------------------
 Center     Atomic      Atomic             Coordinates (Angstroms)
 Number     Number       Type             X           Y           Z
 ---------------------------------------------------------------------
      1          6           0       -4.961091   -1.906102    0.438584
      2          6           0       -4.764361    2.845962    1.223876
      3          6           0       -9.444943    3.110241   -0.339563
      4          6           0       -9.856391   -1.592262   -0.820326
      5          7           0       -5.181953    0.520462    0.735951
      6          6           0       -4.440254   -0.657030    0.802982
      7          6           0       -3.018418   -0.463409    1.231093
      8          6           0       -3.137622    1.039421    1.727766
      9          6           0       -4.379882    1.478268    1.212933
     10          6           0       -2.933093    1.263860    3.288588
     11          6           0       -2.079088   -0.739026    0.038091
     12          6           0       -0.552789   -0.639356    0.492166
     13          6           0        0.323751   -0.858886   -0.708792
     14          8           0        0.024132   -1.277705   -1.772065
     15          8           0        1.592207   -0.650298   -0.265980
     16          7           0       -7.120337    2.715464    0.309474
     17          6           0       -6.035219    3.382872    0.978579
     18          6           0       -6.368803    4.766376    1.041423
     19          6           0       -7.684614    4.913115    0.501277
     20          6           0       -8.113051    3.554595    0.046670
     21          6           0       -5.485854    5.895456    1.524167
     22          6           0       -8.452052    6.160661    0.426786
     23          6           0       -9.421028    6.543661   -0.416803
     24          7           0       -9.262102    0.758193   -0.540089
     25          6           0       -9.981332    1.885158   -0.548748
     26          6           0      -11.334678    1.664892   -0.948423
     27          6           0      -11.435787    0.244519   -1.190369
     28          6           0      -10.152491   -0.261005   -0.806229
     29          6           0      -12.268118    2.766134   -1.205616
     30          6           0      -12.723569   -0.357326   -1.572287
     31          6           0      -12.847360   -0.788198   -3.056841
     32          7           0       -7.428662   -1.317414   -0.143258
     33          6           0       -8.593437   -2.097146   -0.455972
     34          6           0       -8.114104   -3.446272   -0.481051
     35          6           0       -6.760677   -3.413601   -0.148073
     36          6           0       -6.329190   -2.055804   -0.003872
     37          6           0       -8.933979   -4.728328   -0.998426
     38          6           0       -5.496319   -4.278871    0.064158
     39          8           0       -5.428909   -5.484386    0.042198
     40          6           0       -4.356174   -3.330520    0.413352
     41          6           0       -3.780676   -3.673984    1.826328
     42          8           0       -4.179874   -3.272010    2.859457
     43          8           0       -2.865104   -4.635104    1.663522
     44          6           0       -2.427016   -5.282177    2.857164
     45          6           0        2.727049   -0.904474   -1.246504
     46          6           0        3.946251   -0.685426   -0.564557
     47          6           0        4.914366    0.131934   -1.101892
     48          6           0        4.883026    0.895932   -2.342909
     49          6           0        6.225315    0.303646   -0.348573
     50          6           0        7.541863   -0.256639   -1.151606
     51          6           0        8.831392   -0.090429   -0.224739
     52          6           0       10.057941   -0.783917   -0.756325
     53          6           0       10.012752   -2.266669   -0.810148
     54          6           0       11.268419   -0.299344   -0.032468
     55          6           0       12.591907   -0.677348   -0.580415
     56          6           0       13.817177    0.086621    0.203033
     57          6           0       15.196400   -0.198794   -0.297188
     58          6           0       15.724577   -1.684884   -0.240676
     59          6           0       16.272405    0.711968    0.315507
     60          6           0       17.682514    0.724097   -0.252684
     61          6           0       18.696399    1.634632    0.529552
     62          6           0       20.091180    1.497010    0.119570
     63          6           0       20.417393    2.081927   -1.311567
     64          6           0       21.102383    2.222750    1.170932
     65          1           0       -4.031006    3.772202    1.702198
     66          1           0      -10.118871    4.175298   -0.468899
     67          1           0      -10.591780   -2.477479   -1.148213
     68          1           0       -2.830408   -1.011360    2.124305
     69          1           0       -2.369424    1.512349    1.147885
     70          1           0       -1.879139    1.124655    3.725825
     71          1           0       -3.310861    2.207350    3.600026
     72          1           0       -3.621648    0.515284    3.803774
     73          1           0       -2.156937   -1.653541   -0.663163
     74          1           0       -2.195517    0.185101   -0.682995
     75          1           0       -0.169960    0.184380    0.958817
     76          1           0       -0.359633   -1.526201    0.976127
     77          1           0       -4.467621    5.898208    1.023436
     78          1           0       -5.773150    6.780031    1.544504
     79          1           0       -5.175390    5.642880    2.629028
     80          1           0       -8.180685    6.890451    1.386554
     81          1           0       -9.650781    6.022885   -1.164713
     82          1           0      -10.005814    7.365928   -0.282890
     83          1           0      -12.350534    3.647051   -0.405879
     84          1           0      -12.261979    3.317438   -2.081120
     85          1           0      -13.245467    2.133685   -1.387061
     86          1           0      -12.893840   -1.358352   -1.270729
     87          1           0      -13.691368    0.085373   -1.356071
     88          1           0      -12.783108    0.081498   -3.702549
     89          1           0      -11.894154   -1.348283   -3.524877
     90          1           0      -13.792515   -1.444332   -3.132157
     91          1           0       -9.830628   -4.501016   -0.467509
     92          1           0       -9.151540   -4.626536   -2.056043
     93          1           0       -8.427192   -5.632477   -0.626993
     94          1           0       -3.459509   -3.506204   -0.435553
     95          1           0       -1.795328   -6.066827    2.355464
     96          1           0       -1.726616   -4.588084    3.426054
     97          1           0       -3.125431   -5.570179    3.624759
     98          1           0        2.525770   -2.037022   -1.564542
     99          1           0        2.738663   -0.249642   -2.219518
    100          1           0        4.331350   -1.156380    0.380953
    101          1           0        5.523084    1.775975   -2.298652
    102          1           0        5.587143    0.545427   -3.229162
    103          1           0        3.919442    1.155044   -2.792425
    104          1           0        6.354892    1.361972    0.023587
    105          1           0        6.300803   -0.209213    0.718415
    106          1           0        7.220143   -1.448696   -1.266611
    107          1           0        7.467854    0.338861   -1.968263
    108          1           0        8.817973    0.950959   -0.008203
    109          1           0        8.593559   -0.608519    0.928425
    110          1           0       10.106314   -0.540436   -1.756113
    111          1           0        9.138837   -2.480719   -1.290693
    112          1           0       10.901431   -2.831370   -1.207933
    113          1           0        9.820674   -2.604601    0.350791
    114          1           0       11.310741    0.954488    0.189269
    115          1           0       11.204864   -0.673720    0.944748
    116          1           0       12.708676   -1.670744   -0.575744
    117          1           0       12.561876   -0.272679   -1.509198
    118          1           0       13.612565    1.168693    0.043618
    119          1           0       13.685659   -0.135889    1.327203
    120          1           0       15.111547    0.269737   -1.169626
    121          1           0       14.987771   -2.268887   -0.881207
    122          1           0       16.785515   -1.900750   -0.670291
    123          1           0       15.635928   -2.022165    0.975568
    124          1           0       15.680307    1.689417    0.406616
    125          1           0       16.284968    0.285875    1.308223
    126          1           0       18.101229   -0.267353   -0.247944
    127          1           0       17.683713    1.015789   -1.235405
    128          1           0       18.351373    2.699430    0.611530
    129          1           0       18.846134    1.063164    1.436070
    130          1           0       20.439283    0.402524    0.080838
    131          1           0       20.029241    2.941982   -1.493482
    132          1           0       21.673808    2.175545   -1.387831
    133          1           0       20.246004    1.255720   -2.079058
    134          1           0       20.824399    1.543354    2.178262
    135          1           0       22.147657    2.146509    0.761099
    136          1           0       20.821823    3.405131    1.139978
    137          1           0       -7.317588    1.731910    0.252938
    138          1           0       -7.601842   -0.241682   -0.194774
 ---------------------------------------------------------------------

 SCF Done:  E(RB3LYP) =  -2733.00840597     A.U. after   17 cycles

 Excitation energies and oscillator strengths:

 Excited State   1:      Singlet-A      2.0272 eV  611.60 nm  f=0.1510  <S**2>=0.000
     235 -> 237       -0.17226
     235 -> 238        0.27704
     236 -> 237        0.61264
     236 -> 238        0.11880
 This state for optimization and/or second-order correction.
 Total Energy, E(TD-HF/TD-DFT) =  -2732.93390784
 Copying the excited state density for this state as the 1-particle RhoCI density.

 The electronic state is 1-A.
 Alpha  occ. eigenvalues --  -19.18203 -19.16638 -19.13230 -19.12389 -19.12089
 Alpha  occ. eigenvalues --  -14.36681 -14.36497 -14.32415 -14.29625 -10.31785
 Alpha  occ. eigenvalues --  -10.30496 -10.28001 -10.25935 -10.24923 -10.24098
 Alpha  occ. eigenvalues --  -10.24010 -10.22984 -10.22915 -10.22827 -10.22729
 Alpha  occ. eigenvalues --  -10.22601 -10.21675 -10.21202 -10.21185 -10.21158
 Alpha  occ. eigenvalues --  -10.21120 -10.21113 -10.21089 -10.20953 -10.20899
 Alpha  occ. eigenvalues --  -10.20670 -10.20666 -10.20622 -10.20621 -10.20620
 Alpha  occ. eigenvalues --  -10.20549 -10.20463 -10.20432 -10.20260 -10.19989
 Alpha  occ. eigenvalues --  -10.19880 -10.19865 -10.19851 -10.19444 -10.19353
 Alpha  occ. eigenvalues --  -10.19274 -10.19167 -10.19137 -10.19111 -10.18966
 Alpha  occ. eigenvalues --  -10.18794 -10.18680 -10.18645 -10.18418 -10.18380
 Alpha  occ. eigenvalues --  -10.18154 -10.18139 -10.18011 -10.17913 -10.17574
 Alpha  occ. eigenvalues --  -10.17530 -10.17492 -10.17482 -10.16716  -1.10906
 Alpha  occ. eigenvalues --   -1.08470  -1.02828  -1.02547  -1.00451  -0.97724
 Alpha  occ. eigenvalues --   -0.96916  -0.94853  -0.93760  -0.83647  -0.83608
 Alpha  occ. eigenvalues --   -0.82940  -0.81875  -0.81692  -0.80766  -0.80364
 Alpha  occ. eigenvalues --   -0.80064  -0.79473  -0.79228  -0.78706  -0.77844
 Alpha  occ. eigenvalues --   -0.76926  -0.76296  -0.75400  -0.75014  -0.74461
 Alpha  occ. eigenvalues --   -0.73466  -0.73020  -0.72721  -0.72090  -0.71553
 Alpha  occ. eigenvalues --   -0.69987  -0.69286  -0.68713  -0.68212  -0.67244
 Alpha  occ. eigenvalues --   -0.67110  -0.66482  -0.65850  -0.65585  -0.65121
 Alpha  occ. eigenvalues --   -0.64199  -0.63530  -0.62514  -0.61375  -0.61120
 Alpha  occ. eigenvalues --   -0.60677  -0.59461  -0.58490  -0.57814  -0.57492
 Alpha  occ. eigenvalues --   -0.57146  -0.56704  -0.56586  -0.55754  -0.55238
 Alpha  occ. eigenvalues --   -0.54720  -0.54031  -0.53887  -0.53819  -0.53297
 Alpha  occ. eigenvalues --   -0.52994  -0.52222  -0.51580  -0.50678  -0.50206
 Alpha  occ. eigenvalues --   -0.49996  -0.49644  -0.49091  -0.48910  -0.48657
 Alpha  occ. eigenvalues --   -0.48277  -0.48063  -0.47859  -0.47747  -0.47700
 Alpha  occ. eigenvalues --   -0.47196  -0.46465  -0.46372  -0.46083  -0.45930
 Alpha  occ. eigenvalues --   -0.45502  -0.45062  -0.44843  -0.44770  -0.44414
 Alpha  occ. eigenvalues --   -0.44360  -0.44308  -0.44179  -0.43967  -0.43739
 Alpha  occ. eigenvalues --   -0.43224  -0.42958  -0.42710  -0.42549  -0.42422
 Alpha  occ. eigenvalues --   -0.42304  -0.42065  -0.42005  -0.41542  -0.41528
 Alpha  occ. eigenvalues --   -0.41138  -0.40945  -0.40756  -0.40465  -0.40360
 Alpha  occ. eigenvalues --   -0.40015  -0.39763  -0.39668  -0.39547  -0.39368
 Alpha  occ. eigenvalues --   -0.39205  -0.38889  -0.38524  -0.38414  -0.38311
 Alpha  occ. eigenvalues --   -0.38193  -0.38116  -0.37958  -0.37894  -0.37459
 Alpha  occ. eigenvalues --   -0.37297  -0.37129  -0.36997  -0.36796  -0.36693
 Alpha  occ. eigenvalues --   -0.36554  -0.36210  -0.36125  -0.35976  -0.35964
 Alpha  occ. eigenvalues --   -0.35835  -0.35463  -0.35297  -0.35278  -0.35169
 Alpha  occ. eigenvalues --   -0.34465  -0.34393  -0.34362  -0.34245  -0.33998
 Alpha  occ. eigenvalues --   -0.33417  -0.33361  -0.33142  -0.33068  -0.32892
 Alpha  occ. eigenvalues --   -0.32126  -0.31918  -0.31856  -0.31633  -0.31599
 Alpha  occ. eigenvalues --   -0.31133  -0.30868  -0.30696  -0.30580  -0.30321
 Alpha  occ. eigenvalues --   -0.30216  -0.29312  -0.28748  -0.28255  -0.27980
 Alpha  occ. eigenvalues --   -0.27921  -0.27632  -0.26925  -0.26316  -0.25408
 Alpha  occ. eigenvalues --   -0.24849  -0.24455  -0.23726  -0.21694  -0.19704
 Alpha  occ. eigenvalues --   -0.18672
 Alpha virt. eigenvalues --   -0.10225  -0.07673  -0.03862  -0.02151  -0.01957
 Alpha virt. eigenvalues --   -0.00244   0.00987   0.01420   0.02286   0.03197
 Alpha virt. eigenvalues --    0.03548   0.03804   0.03896   0.04505   0.04747

 Mulliken charges:
               1
     1  C    0.015291
     2  C   -0.118769
     3  C   -0.127710
     4  C   -0.148551
     5  N   -0.162695
     6  C   -0.081825
     7  C    0.018089
     8  C    0.040247
     9  C   -0.017936
    10  C    0.052350
    11  C   -0.020208
    12  C    0.125861
    13  C    0.136433
    14  O   -0.206153
    15  O   -0.358725
    16  N   -0.045934
    17  C    0.098102
    18  C   -0.112276
    19  C    0.010608
    20  C   -0.015191
    21  C    0.172878
    22  C   -0.108800
    23  C    0.095093
    24  N   -0.257495
    25  C    0.131190
    26  C   -0.121800
    27  C   -0.046343
    28  C    0.152719
    29  C    0.057081
    30  C    0.094099
    31  C   -0.075749
    32  N   -0.095775
    33  C    0.054874
    34  C   -0.210591
    35  C   -0.049937
    36  C    0.075609
    37  C    0.129663
    38  C    0.102372
    39  O   -0.159906
    40  C   -0.082293
    41  C    0.188459
    42  O   -0.183505
    43  O   -0.284991
    44  C    0.168023
    45  C    0.236812
    46  C   -0.045471
    47  C   -0.113160
    48  C    0.050524
    49  C   -0.054988
    50  C    0.005646
    51  C   -0.019948
    52  C    0.048645
    53  C    0.038486
    54  C   -0.018029
    55  C    0.149453
    56  C   -0.045967
    57  C    0.036009
    58  C   -0.043108
    59  C    0.013044
    60  C    0.105285
    61  C    0.093831
    62  C   -0.173276
    63  C    0.036572
    64  C   -0.045024
    65  H    0.026607
    66  H    0.019219
    67  H    0.029115
    68  H   -0.007543
    69  H   -0.021568
    70  H    0.034112
    71  H    0.003849
    72  H    0.030060
    73  H    0.055039
    74  H    0.022148
    75  H    0.005612
    76  H    0.004121
    77  H    0.031631
    78  H   -0.066750
    79  H    0.025901
    80  H    0.031537
    81  H   -0.043316
    82  H   -0.000895
    83  H    0.039022
    84  H    0.003454
    85  H    0.006471
    86  H   -0.030343
    87  H    0.009261
    88  H    0.002521
    89  H    0.021209
    90  H    0.029877
    91  H    0.011890
    92  H    0.036297
    93  H    0.049148
    94  H    0.092224
    95  H    0.047184
    96  H    0.018394
    97  H    0.042821
    98  H    0.044024
    99  H    0.041777
   100  H   -0.001124
   101  H   -0.001442
   102  H    0.034607
   103  H    0.029836
   104  H    0.016865
   105  H    0.003158
   106  H    0.046114
   107  H   -0.016815
   108  H   -0.007596
   109  H    0.005498
   110  H   -0.045856
   111  H   -0.025305
   112  H    0.036906
   113  H    0.001107
   114  H   -0.007624
   115  H   -0.037208
   116  H   -0.028968
   117  H   -0.042854
   118  H   -0.003036
   119  H   -0.004374
   120  H   -0.064134
   121  H    0.021569
   122  H    0.041604
   123  H    0.032782
   124  H   -0.014736
   125  H   -0.034011
   126  H   -0.024819
   127  H   -0.037851
   128  H    0.009516
   129  H   -0.019370
   130  H    0.001656
   131  H   -0.028601
   132  H    0.002069
   133  H    0.021189
   134  H    0.039140
   135  H    0.027665
   136  H    0.030203
   137  H    0.134224
   138  H    0.184689
 Sum of Mulliken charges =  -0.00000

 Dipole moment (field-independent basis, Debye):
    X=              3.9121    Y=              3.8523    Z=             -0.0318  Tot=              5.4905
 Quadrupole moment (field-independent basis, Debye-Ang):
   XX=           -373.0090   YY=           -383.3570   ZZ=           -394.8271
   XY=            -23.0916   XZ=             -6.0322   YZ=             -1.7226

 Normal termination of Gaussian 16 at Fri Aug 30 04:52:21 2019.
