 Gaussian 16, Revision A.03,
 Gaussian 16:  ES64L-G16RevA.03 25-Dec-2016

 --------------------------
 # td=(NStates=1) B3LYP/SVP
 --------------------------

 --
 TD
 --
 Symbolic Z-matrix:
 Charge =  0 Multiplicity = 1

                         Standard orientation:
 ---------------------------------------------------------------------
 Center     Atomic      Atomic             Coordinates (Angstroms)
 Number     Number       Type             X           Y           Z
 ---------------------------------------------------------------------
      1          6           0       -5.086426   -1.918325    0.520102
      2          6           0       -4.822239    2.778811    1.513123
      3          6           0       -9.362174    3.254782   -0.189565
      4          6           0       -9.730923   -1.427293   -1.033845
      5          7           0       -5.219317    0.418890    0.834518
      6          6           0       -4.447556   -0.668517    0.723853
      7          6           0       -3.008644   -0.465945    1.193874
      8          6           0       -3.049900    0.977657    1.753807
      9          6           0       -4.525258    1.441398    1.408758
     10          6           0       -2.878904    0.950433    3.265745
     11          6           0       -1.983716   -0.691694    0.087895
     12          6           0       -0.529020   -0.713036    0.422621
     13          6           0        0.443486   -0.950539   -0.665810
     14          8           0        0.146984   -1.416983   -1.697576
     15          8           0        1.693064   -0.950482   -0.188576
     16          7           0       -7.110287    2.799387    0.417953
     17          6           0       -6.035317    3.393344    1.152155
     18          6           0       -6.291712    4.798932    1.132204
     19          6           0       -7.575797    4.909589    0.631077
     20          6           0       -8.157219    3.639319    0.222591
     21          6           0       -5.310598    5.829117    1.586414
     22          6           0       -8.283526    6.235921    0.425496
     23          6           0       -9.046014    6.608587   -0.440393
     24          7           0       -9.161852    0.863045   -0.529687
     25          6           0       -9.861359    1.957029   -0.508020
     26          6           0      -11.270054    1.752518   -0.985045
     27          6           0      -11.340987    0.475242   -1.259009
     28          6           0      -10.060987   -0.107758   -0.962724
     29          6           0      -12.326227    2.850655   -1.173835
     30          6           0      -12.583858   -0.366749   -1.750629
     31          6           0      -12.500759   -0.636349   -3.262816
     32          7           0       -7.452718   -1.262367   -0.282291
     33          6           0       -8.565205   -2.022236   -0.743130
     34          6           0       -8.139206   -3.429831   -0.582781
     35          6           0       -6.728979   -3.405305   -0.129222
     36          6           0       -6.371657   -2.047590    0.112188
     37          6           0       -9.037097   -4.526268   -0.986986
     38          6           0       -5.637023   -4.288563    0.103998
     39          8           0       -5.489338   -5.557362    0.109878
     40          6           0       -4.490335   -3.339448    0.577429
     41          6           0       -3.799485   -3.742819    1.897263
     42          8           0       -3.959137   -3.127328    2.886509
     43          8           0       -3.081024   -4.867591    1.669978
     44          6           0       -2.456471   -5.402585    2.845287
     45          6           0        2.690043   -1.236516   -1.259584
     46          6           0        3.987906   -0.746243   -0.728372
     47          6           0        4.880645    0.116457   -1.361298
     48          6           0        4.819141    0.658933   -2.826363
     49          6           0        6.137123    0.452990   -0.674966
     50          6           0        7.430148   -0.332256   -0.970890
     51          6           0        8.707127   -0.018160   -0.280783
     52          6           0       10.014984   -0.766065   -0.748101
     53          6           0        9.854544   -2.336255   -0.643166
     54          6           0       11.269651   -0.161071    0.038981
     55          6           0       12.546486   -0.548902   -0.578148
     56          6           0       13.741053   -0.060458    0.296054
     57          6           0       15.188839   -0.291233   -0.262828
     58          6           0       15.555812   -1.728682   -0.059120
     59          6           0       16.275157    0.758634    0.315919
     60          6           0       17.642248    0.769489   -0.140318
     61          6           0       18.553813    1.707210    0.656920
     62          6           0       19.963155    1.605601    0.030978
     63          6           0       20.117131    2.040978   -1.339046
     64          6           0       21.000467    2.341286    0.925317
     65          1           0       -3.975814    3.388776    2.013678
     66          1           0      -10.246200    3.958595   -0.135731
     67          1           0      -10.470182   -2.181555   -1.478174
     68          1           0       -2.937390   -1.060160    2.072172
     69          1           0       -2.187395    1.554639    1.124751
     70          1           0       -1.685584    0.870058    3.598727
     71          1           0       -3.027539    1.934937    3.817332
     72          1           0       -3.622176    0.361697    3.787376
     73          1           0       -2.138068   -1.755439   -0.291520
     74          1           0       -2.119834    0.044360   -0.688985
     75          1           0       -0.391557    0.134213    0.972887
     76          1           0       -0.290765   -1.307137    1.359040
     77          1           0       -4.628209    6.119659    0.653804
     78          1           0       -5.925235    6.779338    1.652577
     79          1           0       -4.963272    5.513861    2.569441
     80          1           0       -7.783800    6.932619    1.296608
     81          1           0       -9.327738    5.705390   -1.194369
     82          1           0       -9.674519    7.506181   -0.578127
     83          1           0      -12.904080    3.350848   -0.134386
     84          1           0      -11.840055    3.728893   -1.779484
     85          1           0      -13.332705    2.395474   -1.753526
     86          1           0      -12.387939   -1.291477   -1.066618
     87          1           0      -13.478968    0.082601   -1.558313
     88          1           0      -12.673887    0.394811   -3.751191
     89          1           0      -11.448919   -0.763145   -3.439063
     90          1           0      -13.191203   -1.470795   -3.670313
     91          1           0       -9.582512   -4.829058   -0.083933
     92          1           0       -9.798633   -4.450760   -2.047824
     93          1           0       -8.354480   -5.563799   -1.307086
     94          1           0       -3.725494   -3.468253   -0.142916
     95          1           0       -1.823264   -6.217306    2.308509
     96          1           0       -1.835610   -4.688887    3.423618
     97          1           0       -3.291725   -5.737809    3.591728
     98          1           0        2.597320   -2.391377   -1.342257
     99          1           0        2.526483   -0.903140   -2.287264
    100          1           0        4.206213   -1.208366    0.214920
    101          1           0        5.148165    1.866337   -2.844534
    102          1           0        5.592341    0.169362   -3.528898
    103          1           0        3.832190    0.751835   -3.360311
    104          1           0        6.303803    1.540276   -0.767739
    105          1           0        6.092957    0.419745    0.562741
    106          1           0        7.225359   -1.558348   -0.780109
    107          1           0        7.803905   -0.389016   -2.153951
    108          1           0        8.899599    1.039463   -0.349012
    109          1           0        8.554886   -0.136838    0.807556
    110          1           0       10.063345   -0.702869   -1.807601
    111          1           0        9.112177   -2.838761   -1.237015
    112          1           0       10.842402   -2.670739   -1.041939
    113          1           0        9.699029   -2.496079    0.337860
    114          1           0       11.071718    0.951385    0.020572
    115          1           0       10.967778   -0.414837    1.116924
    116          1           0       12.769014   -1.624027   -0.867403
    117          1           0       12.788673    0.120839   -1.404484
    118          1           0       13.660035    1.063516    0.588533
    119          1           0       13.511947   -0.441691    1.422349
    120          1           0       15.162644   -0.094266   -1.429894
    121          1           0       14.862078   -2.390674   -0.757599
    122          1           0       16.629990   -1.927421   -0.276296
    123          1           0       15.335423   -2.037919    0.948638
    124          1           0       15.847208    1.910011    0.341001
    125          1           0       16.319107    0.246982    1.514378
    126          1           0       18.124599   -0.223805   -0.106971
    127          1           0       17.707989    1.091876   -1.218396
    128          1           0       18.342249    2.736326    0.950445
    129          1           0       18.742133    1.653891    1.629701
    130          1           0       19.894921    0.516116    0.097945
    131          1           0       19.927666    3.203413   -1.321207
    132          1           0       21.211991    1.785764   -1.657772
    133          1           0       19.476433    1.675461   -2.110951
    134          1           0       20.830807    2.270120    2.035391
    135          1           0       21.975094    2.399208    0.440559
    136          1           0       20.817792    3.376763    1.121191
    137          1           0       -7.109517    1.902521    0.557029
    138          1           0       -7.324297   -0.156480   -0.281503
 ---------------------------------------------------------------------

 SCF Done:  E(RB3LYP) =  -2733.00361027     A.U. after   17 cycles

 Excitation energies and oscillator strengths:

 Excited State   1:      Singlet-A      2.0788 eV  596.42 nm  f=0.1710  <S**2>=0.000
     235 -> 237       -0.15088
     235 -> 238       -0.30050
     236 -> 237        0.60771
     236 -> 238       -0.12978
 This state for optimization and/or second-order correction.
 Total Energy, E(TD-HF/TD-DFT) =  -2732.92721580
 Copying the excited state density for this state as the 1-particle RhoCI density.

 The electronic state is 1-A.
 Alpha  occ. eigenvalues --  -19.17974 -19.17294 -19.13142 -19.12068 -19.10753
 Alpha  occ. eigenvalues --  -14.36452 -14.35875 -14.32719 -14.29991 -10.31432
 Alpha  occ. eigenvalues --  -10.30685 -10.26949 -10.25567 -10.25000 -10.24106
 Alpha  occ. eigenvalues --  -10.23634 -10.23372 -10.23167 -10.23164 -10.22913
 Alpha  occ. eigenvalues --  -10.22868 -10.22765 -10.22404 -10.21936 -10.21824
 Alpha  occ. eigenvalues --  -10.21572 -10.21407 -10.21264 -10.21052 -10.21025
 Alpha  occ. eigenvalues --  -10.20947 -10.20920 -10.20591 -10.20575 -10.20462
 Alpha  occ. eigenvalues --  -10.20378 -10.20342 -10.20195 -10.20089 -10.19955
 Alpha  occ. eigenvalues --  -10.19914 -10.19787 -10.19575 -10.19558 -10.19537
 Alpha  occ. eigenvalues --  -10.19471 -10.19400 -10.19357 -10.19275 -10.19143
 Alpha  occ. eigenvalues --  -10.19044 -10.19040 -10.18981 -10.18935 -10.18902
 Alpha  occ. eigenvalues --  -10.18547 -10.18491 -10.18201 -10.18143 -10.18126
 Alpha  occ. eigenvalues --  -10.17980 -10.17762 -10.16836 -10.16614  -1.10254
 Alpha  occ. eigenvalues --   -1.10016  -1.02693  -1.01348  -0.98734  -0.98083
 Alpha  occ. eigenvalues --   -0.95862  -0.94897  -0.94184  -0.84977  -0.82739
 Alpha  occ. eigenvalues --   -0.82632  -0.82197  -0.81854  -0.81626  -0.81059
 Alpha  occ. eigenvalues --   -0.79985  -0.79492  -0.79347  -0.78925  -0.77809
 Alpha  occ. eigenvalues --   -0.77644  -0.76855  -0.76097  -0.75142  -0.74521
 Alpha  occ. eigenvalues --   -0.73840  -0.73645  -0.73050  -0.71829  -0.71488
 Alpha  occ. eigenvalues --   -0.70001  -0.69317  -0.68479  -0.68155  -0.67740
 Alpha  occ. eigenvalues --   -0.67615  -0.66626  -0.66493  -0.65504  -0.64967
 Alpha  occ. eigenvalues --   -0.63928  -0.62491  -0.62224  -0.61663  -0.61336
 Alpha  occ. eigenvalues --   -0.61246  -0.58589  -0.58535  -0.57568  -0.57207
 Alpha  occ. eigenvalues --   -0.57024  -0.56383  -0.56145  -0.55622  -0.55570
 Alpha  occ. eigenvalues --   -0.55266  -0.54167  -0.53808  -0.53604  -0.52985
 Alpha  occ. eigenvalues --   -0.52846  -0.51944  -0.51270  -0.50850  -0.50407
 Alpha  occ. eigenvalues --   -0.49620  -0.49500  -0.48922  -0.48788  -0.48273
 Alpha  occ. eigenvalues --   -0.47757  -0.47540  -0.47405  -0.47366  -0.47218
 Alpha  occ. eigenvalues --   -0.46701  -0.46629  -0.46477  -0.46057  -0.45859
 Alpha  occ. eigenvalues --   -0.45712  -0.45382  -0.45184  -0.45016  -0.44534
 Alpha  occ. eigenvalues --   -0.44169  -0.44036  -0.43761  -0.43716  -0.43623
 Alpha  occ. eigenvalues --   -0.43477  -0.43345  -0.43027  -0.42579  -0.42221
 Alpha  occ. eigenvalues --   -0.42166  -0.41873  -0.41841  -0.41663  -0.41539
 Alpha  occ. eigenvalues --   -0.41125  -0.40953  -0.40867  -0.40681  -0.40610
 Alpha  occ. eigenvalues --   -0.39979  -0.39848  -0.39584  -0.39377  -0.39295
 Alpha  occ. eigenvalues --   -0.39073  -0.39038  -0.38811  -0.38540  -0.38487
 Alpha  occ. eigenvalues --   -0.38157  -0.37801  -0.37641  -0.37604  -0.37481
 Alpha  occ. eigenvalues --   -0.37306  -0.37201  -0.36897  -0.36638  -0.36449
 Alpha  occ. eigenvalues --   -0.36287  -0.36059  -0.35861  -0.35722  -0.35682
 Alpha  occ. eigenvalues --   -0.35583  -0.35382  -0.34951  -0.34873  -0.34478
 Alpha  occ. eigenvalues --   -0.34003  -0.33975  -0.33845  -0.33629  -0.33514
 Alpha  occ. eigenvalues --   -0.33030  -0.32958  -0.32767  -0.32623  -0.32357
 Alpha  occ. eigenvalues --   -0.32172  -0.32038  -0.31374  -0.31274  -0.31036
 Alpha  occ. eigenvalues --   -0.30730  -0.30475  -0.30416  -0.30251  -0.29707
 Alpha  occ. eigenvalues --   -0.29081  -0.29070  -0.28956  -0.28336  -0.28223
 Alpha  occ. eigenvalues --   -0.27792  -0.27220  -0.27175  -0.26475  -0.25297
 Alpha  occ. eigenvalues --   -0.24847  -0.24812  -0.23993  -0.23780  -0.20445
 Alpha  occ. eigenvalues --   -0.19004
 Alpha virt. eigenvalues --   -0.10362  -0.08119  -0.04769  -0.02064  -0.00580
 Alpha virt. eigenvalues --    0.00402   0.00822   0.01089   0.02205   0.03281
 Alpha virt. eigenvalues --    0.03769   0.03920   0.03943   0.04316   0.04448

 Mulliken charges:
               1
     1  C    0.001691
     2  C   -0.072561
     3  C   -0.117979
     4  C   -0.111318
     5  N   -0.164953
     6  C   -0.108667
     7  C    0.048759
     8  C   -0.132054
     9  C   -0.011981
    10  C    0.016121
    11  C    0.066016
    12  C    0.072518
    13  C    0.185339
    14  O   -0.196362
    15  O   -0.322898
    16  N   -0.015721
    17  C    0.071186
    18  C   -0.150924
    19  C   -0.014770
    20  C    0.159582
    21  C    0.115780
    22  C    0.003555
    23  C   -0.077495
    24  N   -0.174962
    25  C   -0.030428
    26  C   -0.082592
    27  C   -0.107246
    28  C    0.094926
    29  C   -0.064142
    30  C    0.087208
    31  C    0.007562
    32  N   -0.158443
    33  C    0.079625
    34  C   -0.047525
    35  C   -0.012333
    36  C    0.141220
    37  C   -0.069940
    38  C    0.062115
    39  O   -0.233339
    40  C   -0.020050
    41  C    0.182700
    42  O   -0.185182
    43  O   -0.288930
    44  C    0.135711
    45  C    0.244947
    46  C   -0.060684
    47  C   -0.062940
    48  C   -0.036533
    49  C    0.051883
    50  C   -0.068330
    51  C    0.059481
    52  C   -0.097251
    53  C    0.063885
    54  C    0.019223
    55  C    0.098064
    56  C   -0.074339
    57  C   -0.058328
    58  C    0.034253
    59  C   -0.065621
    60  C    0.098052
    61  C    0.083212
    62  C   -0.079972
    63  C    0.015972
    64  C    0.065828
    65  H    0.014508
    66  H    0.003835
    67  H    0.000915
    68  H    0.001281
    69  H    0.030256
    70  H    0.029005
    71  H   -0.000590
    72  H    0.038239
    73  H    0.019159
    74  H    0.003590
    75  H   -0.049173
    76  H    0.019511
    77  H    0.059687
    78  H    0.002039
    79  H    0.047200
    80  H    0.015938
    81  H    0.039104
    82  H    0.031875
    83  H    0.050834
    84  H    0.052711
    85  H    0.041396
    86  H    0.022782
    87  H   -0.025294
    88  H    0.011384
    89  H    0.005917
    90  H    0.041357
    91  H    0.049680
    92  H    0.071396
    93  H    0.066646
    94  H    0.036424
    95  H    0.061707
    96  H    0.034150
    97  H    0.049587
    98  H    0.027725
    99  H    0.022748
   100  H   -0.005630
   101  H    0.025861
   102  H    0.057574
   103  H    0.038084
   104  H   -0.001330
   105  H    0.013522
   106  H    0.012963
   107  H    0.004851
   108  H   -0.024027
   109  H   -0.020191
   110  H   -0.026542
   111  H    0.013607
   112  H    0.000293
   113  H   -0.020875
   114  H    0.001914
   115  H    0.006072
   116  H    0.023671
   117  H   -0.001451
   118  H   -0.006368
   119  H   -0.003549
   120  H   -0.002846
   121  H    0.020500
   122  H    0.014546
   123  H    0.003161
   124  H    0.028434
   125  H    0.001012
   126  H   -0.001232
   127  H    0.001830
   128  H   -0.056461
   129  H   -0.078373
   130  H   -0.018122
   131  H    0.008602
   132  H    0.018628
   133  H    0.002053
   134  H   -0.005179
   135  H    0.007327
   136  H   -0.026674
   137  H    0.075710
   138  H    0.201492
 Sum of Mulliken charges =  -0.00000

 Dipole moment (field-independent basis, Debye):
    X=              2.3919    Y=              5.4517    Z=              0.7918  Tot=              6.0058
 Quadrupole moment (field-independent basis, Debye-Ang):
   XX=           -354.4748   YY=           -389.8519   ZZ=           -391.8620
   XY=            -22.3446   XZ=              2.9343   YZ=              1.0057

 Normal termination of Gaussian 16 at Sun Aug 18 12:17:17 2019.
