 Gaussian 16, Revision A.03,
 Gaussian 16:  ES64L-G16RevA.03 25-Dec-2016

 --------------------------
 # td=(NStates=1) B3LYP/SVP
 --------------------------

 --
 TD
 --
 Symbolic Z-matrix:
 Charge =  0 Multiplicity = 1

                         Standard orientation:
 ---------------------------------------------------------------------
 Center     Atomic      Atomic             Coordinates (Angstroms)
 Number     Number       Type             X           Y           Z
 ---------------------------------------------------------------------
      1          6           0       -5.127145   -1.940624    0.573982
      2          6           0       -4.767917    2.724281    1.450098
      3          6           0       -9.266947    3.367127   -0.228540
      4          6           0       -9.806839   -1.463834   -0.993438
      5          7           0       -5.293432    0.422554    0.789146
      6          6           0       -4.619847   -0.677151    0.814567
      7          6           0       -3.074454   -0.579974    1.192411
      8          6           0       -3.030139    0.820292    1.831636
      9          6           0       -4.472692    1.352371    1.302868
     10          6           0       -2.947814    0.815371    3.275243
     11          6           0       -2.092369   -0.673024   -0.053172
     12          6           0       -0.739751   -0.781260    0.547841
     13          6           0        0.395275   -0.955475   -0.569916
     14          8           0        0.179939   -1.466051   -1.659830
     15          8           0        1.701640   -0.859483   -0.162013
     16          7           0       -7.021946    2.719467    0.596564
     17          6           0       -5.891821    3.297069    1.076501
     18          6           0       -6.176726    4.802490    0.992919
     19          6           0       -7.516408    4.998758    0.551203
     20          6           0       -7.976197    3.639703    0.162156
     21          6           0       -5.298730    5.772586    1.585648
     22          6           0       -8.138900    6.307407    0.461888
     23          6           0       -8.981312    6.628204   -0.516140
     24          7           0       -9.168766    0.900809   -0.404537
     25          6           0       -9.783195    2.086855   -0.478908
     26          6           0      -11.163317    1.949314   -0.917730
     27          6           0      -11.340606    0.560879   -1.299583
     28          6           0      -10.114533    0.023935   -0.873352
     29          6           0      -12.135674    2.988158   -1.163697
     30          6           0      -12.598152   -0.122722   -1.765186
     31          6           0      -12.494147   -0.387201   -3.206779
     32          7           0       -7.560494   -1.286739   -0.110611
     33          6           0       -8.536529   -2.044087   -0.670128
     34          6           0       -8.208951   -3.328283   -0.748745
     35          6           0       -6.850722   -3.357578   -0.169398
     36          6           0       -6.494811   -2.057015    0.135871
     37          6           0       -9.151863   -4.536894   -1.080128
     38          6           0       -5.799801   -4.275604   -0.061176
     39          8           0       -5.689515   -5.472285   -0.083519
     40          6           0       -4.542070   -3.339106    0.475352
     41          6           0       -3.963032   -3.878613    1.775878
     42          8           0       -4.361851   -3.470112    2.868708
     43          8           0       -3.101042   -4.892083    1.676030
     44          6           0       -2.785775   -5.576458    2.818515
     45          6           0        2.719244   -1.225270   -1.179175
     46          6           0        4.016125   -0.734930   -0.620532
     47          6           0        4.939903    0.050084   -1.071730
     48          6           0        4.894543    0.843997   -2.396773
     49          6           0        6.323513    0.228881   -0.369228
     50          6           0        7.527000   -0.508567   -1.036177
     51          6           0        8.730165   -0.210862   -0.092188
     52          6           0       10.002838   -0.681144   -0.819881
     53          6           0       10.026856   -2.279584   -1.091479
     54          6           0       11.269112   -0.179337   -0.028466
     55          6           0       12.638544   -0.476897   -0.581245
     56          6           0       13.896431    0.079083    0.259376
     57          6           0       15.264469   -0.036091   -0.518239
     58          6           0       15.584222   -1.490700   -0.817798
     59          6           0       16.312422    0.719539    0.323811
     60          6           0       17.713329    0.669955   -0.173597
     61          6           0       18.681613    1.434751    0.742129
     62          6           0       20.139993    1.492684    0.222268
     63          6           0       20.295361    2.198391   -1.117364
     64          6           0       20.965075    2.230858    1.370296
     65          1           0       -4.091686    3.465084    1.961365
     66          1           0      -10.087906    4.259653   -0.373598
     67          1           0      -10.705094   -1.890043   -1.196212
     68          1           0       -2.989048   -1.360451    2.020029
     69          1           0       -2.199582    1.373995    1.371887
     70          1           0       -2.044322    0.319685    3.746320
     71          1           0       -2.840127    1.861589    3.851997
     72          1           0       -3.852232    0.215867    3.639309
     73          1           0       -2.353836   -1.426873   -0.592695
     74          1           0       -2.350631    0.182999   -0.748367
     75          1           0       -0.508161    0.221797    1.028813
     76          1           0       -0.585967   -1.588445    1.347743
     77          1           0       -4.506005    5.745670    1.041817
     78          1           0       -5.711426    6.719232    1.429663
     79          1           0       -4.944649    5.595402    2.638112
     80          1           0       -7.890829    6.914397    1.146482
     81          1           0       -9.348593    5.893441   -1.340185
     82          1           0       -9.377547    7.826201   -0.299650
     83          1           0      -12.418365    3.672295   -0.275380
     84          1           0      -11.752862    3.637810   -1.923055
     85          1           0      -12.995859    2.436992   -1.406850
     86          1           0      -12.803197   -0.941995   -1.208874
     87          1           0      -13.462675    0.456581   -1.723641
     88          1           0      -12.302129    0.476598   -3.894824
     89          1           0      -11.614014   -1.043527   -3.439057
     90          1           0      -13.391360   -0.968206   -3.718665
     91          1           0      -10.159686   -4.440406   -0.475174
     92          1           0       -9.359858   -4.533452   -2.149211
     93          1           0       -8.733165   -5.613430   -1.039714
     94          1           0       -3.814697   -3.572239   -0.301402
     95          1           0       -2.118206   -6.560692    2.469992
     96          1           0       -2.127076   -4.930201    3.541306
     97          1           0       -3.807824   -5.922686    3.213187
     98          1           0        2.606488   -2.228372   -1.381141
     99          1           0        2.503388   -0.472829   -1.996305
    100          1           0        4.126344   -1.289724    0.309707
    101          1           0        5.061024    1.886206   -2.303950
    102          1           0        5.540033    0.323569   -3.256360
    103          1           0        3.831576    0.652842   -2.741170
    104          1           0        6.406767    1.315460   -0.455786
    105          1           0        6.078976   -0.065381    0.705617
    106          1           0        7.108793   -1.459668   -1.239220
    107          1           0        7.812046    0.074454   -1.940756
    108          1           0        8.652583    0.739611    0.117754
    109          1           0        8.586028   -1.051928    0.815396
    110          1           0       10.037937   -0.146655   -1.699454
    111          1           0        9.199989   -2.458377   -1.853560
    112          1           0       10.983272   -2.266360   -1.701638
    113          1           0        9.975271   -2.832669   -0.119779
    114          1           0       11.218617    1.012936    0.186881
    115          1           0       11.095461   -0.591701    1.034392
    116          1           0       12.574243   -1.556915   -0.768905
    117          1           0       12.611936   -0.069472   -1.676304
    118          1           0       13.702165    1.193801    0.534768
    119          1           0       13.937925   -0.722465    1.116024
    120          1           0       15.019880    0.481338   -1.599867
    121          1           0       14.918164   -1.693604   -1.692726
    122          1           0       16.652936   -1.525991   -1.127759
    123          1           0       15.641581   -2.093957    0.126854
    124          1           0       16.139619    1.748733    0.522442
    125          1           0       16.359501    0.166109    1.335489
    126          1           0       18.373166   -0.227774   -0.303209
    127          1           0       17.773714    1.185146   -1.266265
    128          1           0       18.392940    2.587437    1.030527
    129          1           0       18.551117    1.028850    1.716282
    130          1           0       20.745200    0.507260    0.340783
    131          1           0       20.103569    3.234056   -1.121716
    132          1           0       21.366198    2.153660   -1.664463
    133          1           0       19.587401    1.812751   -1.815332
    134          1           0       20.702490    1.694435    2.399832
    135          1           0       22.075270    1.950554    0.918125
    136          1           0       20.732522    3.250140    1.403173
    137          1           0       -7.087749    1.710852    0.237333
    138          1           0       -7.651742   -0.159950   -0.071534
 ---------------------------------------------------------------------

 SCF Done:  E(RB3LYP) =  -2733.05772500     A.U. after   17 cycles

 Excitation energies and oscillator strengths:

 Excited State   1:      Singlet-A      2.1041 eV  589.24 nm  f=0.1229  <S**2>=0.000
     235 -> 237       -0.13452
     235 -> 238        0.32258
     236 -> 237        0.60213
 This state for optimization and/or second-order correction.
 Total Energy, E(TD-HF/TD-DFT) =  -2732.98040000
 Copying the excited state density for this state as the 1-particle RhoCI density.

 The electronic state is 1-A.
 Alpha  occ. eigenvalues --  -19.17489 -19.16463 -19.11647 -19.11508 -19.10852
 Alpha  occ. eigenvalues --  -14.37493 -14.36423 -14.33272 -14.30363 -10.31171
 Alpha  occ. eigenvalues --  -10.30752 -10.26843 -10.25720 -10.24308 -10.24206
 Alpha  occ. eigenvalues --  -10.24183 -10.23969 -10.22756 -10.22518 -10.22504
 Alpha  occ. eigenvalues --  -10.22097 -10.21988 -10.21814 -10.21097 -10.21067
 Alpha  occ. eigenvalues --  -10.21057 -10.21040 -10.20903 -10.20873 -10.20828
 Alpha  occ. eigenvalues --  -10.20467 -10.20229 -10.20117 -10.20116 -10.19991
 Alpha  occ. eigenvalues --  -10.19905 -10.19861 -10.19829 -10.19805 -10.19784
 Alpha  occ. eigenvalues --  -10.19704 -10.19596 -10.19280 -10.19098 -10.18988
 Alpha  occ. eigenvalues --  -10.18975 -10.18971 -10.18886 -10.18815 -10.18773
 Alpha  occ. eigenvalues --  -10.18726 -10.18723 -10.18714 -10.18687 -10.18640
 Alpha  occ. eigenvalues --  -10.18623 -10.18561 -10.18511 -10.18503 -10.18378
 Alpha  occ. eigenvalues --  -10.18264 -10.18074 -10.17991 -10.17863  -1.10192
 Alpha  occ. eigenvalues --   -1.07515  -1.02562  -0.99293  -0.99030  -0.98386
 Alpha  occ. eigenvalues --   -0.97905  -0.96564  -0.94121  -0.84223  -0.82940
 Alpha  occ. eigenvalues --   -0.82304  -0.81969  -0.81874  -0.81605  -0.80959
 Alpha  occ. eigenvalues --   -0.80558  -0.79625  -0.79243  -0.78936  -0.77929
 Alpha  occ. eigenvalues --   -0.77248  -0.76550  -0.76003  -0.75399  -0.74625
 Alpha  occ. eigenvalues --   -0.73405  -0.73196  -0.72767  -0.71546  -0.71114
 Alpha  occ. eigenvalues --   -0.69672  -0.69094  -0.68147  -0.67596  -0.67463
 Alpha  occ. eigenvalues --   -0.67231  -0.66731  -0.66068  -0.65810  -0.64980
 Alpha  occ. eigenvalues --   -0.64136  -0.62736  -0.62432  -0.61989  -0.61272
 Alpha  occ. eigenvalues --   -0.60818  -0.58403  -0.58083  -0.57667  -0.57336
 Alpha  occ. eigenvalues --   -0.56854  -0.56117  -0.55605  -0.55136  -0.54994
 Alpha  occ. eigenvalues --   -0.54771  -0.54490  -0.54366  -0.53525  -0.53499
 Alpha  occ. eigenvalues --   -0.52822  -0.51755  -0.51616  -0.50704  -0.50226
 Alpha  occ. eigenvalues --   -0.50062  -0.49589  -0.49088  -0.48613  -0.48099
 Alpha  occ. eigenvalues --   -0.48004  -0.47706  -0.47614  -0.46955  -0.46810
 Alpha  occ. eigenvalues --   -0.46657  -0.46433  -0.46276  -0.46071  -0.45809
 Alpha  occ. eigenvalues --   -0.45737  -0.45539  -0.45451  -0.45063  -0.44904
 Alpha  occ. eigenvalues --   -0.44593  -0.44206  -0.43997  -0.43766  -0.43470
 Alpha  occ. eigenvalues --   -0.43378  -0.43110  -0.43053  -0.42799  -0.42362
 Alpha  occ. eigenvalues --   -0.42288  -0.42259  -0.42036  -0.41803  -0.41703
 Alpha  occ. eigenvalues --   -0.41407  -0.41144  -0.41131  -0.41010  -0.40604
 Alpha  occ. eigenvalues --   -0.40428  -0.40257  -0.40077  -0.39641  -0.39589
 Alpha  occ. eigenvalues --   -0.39438  -0.39164  -0.39129  -0.38829  -0.38649
 Alpha  occ. eigenvalues --   -0.38455  -0.38012  -0.37981  -0.37746  -0.37607
 Alpha  occ. eigenvalues --   -0.37303  -0.37198  -0.37161  -0.36844  -0.36512
 Alpha  occ. eigenvalues --   -0.36333  -0.36070  -0.35899  -0.35825  -0.35581
 Alpha  occ. eigenvalues --   -0.35444  -0.35400  -0.35078  -0.34756  -0.34468
 Alpha  occ. eigenvalues --   -0.34399  -0.34315  -0.34113  -0.33962  -0.33425
 Alpha  occ. eigenvalues --   -0.33165  -0.33003  -0.32878  -0.32597  -0.32369
 Alpha  occ. eigenvalues --   -0.32127  -0.31743  -0.31367  -0.31356  -0.31085
 Alpha  occ. eigenvalues --   -0.30497  -0.30314  -0.30027  -0.29895  -0.29653
 Alpha  occ. eigenvalues --   -0.29515  -0.28907  -0.28611  -0.28287  -0.28102
 Alpha  occ. eigenvalues --   -0.27580  -0.27119  -0.26826  -0.26404  -0.25541
 Alpha  occ. eigenvalues --   -0.25439  -0.24375  -0.23962  -0.22316  -0.20006
 Alpha  occ. eigenvalues --   -0.19461
 Alpha virt. eigenvalues --   -0.10474  -0.08239  -0.04173  -0.02078  -0.00544
 Alpha virt. eigenvalues --   -0.00379   0.00654   0.00901   0.03248   0.03907
 Alpha virt. eigenvalues --    0.04086   0.04169   0.04210   0.04732   0.04937

 Mulliken charges:
               1
     1  C    0.031448
     2  C   -0.092743
     3  C   -0.172998
     4  C   -0.006558
     5  N   -0.100119
     6  C   -0.104395
     7  C   -0.138049
     8  C   -0.003166
     9  C    0.009870
    10  C    0.008901
    11  C    0.197721
    12  C    0.015022
    13  C    0.194736
    14  O   -0.257988
    15  O   -0.361060
    16  N   -0.094294
    17  C    0.109710
    18  C   -0.193430
    19  C    0.015084
    20  C    0.115961
    21  C    0.237070
    22  C    0.047503
    23  C   -0.072774
    24  N   -0.239743
    25  C    0.089841
    26  C   -0.193112
    27  C   -0.116683
    28  C   -0.026601
    29  C    0.135080
    30  C    0.221286
    31  C   -0.062398
    32  N   -0.063105
    33  C    0.141377
    34  C   -0.102590
    35  C   -0.035072
    36  C    0.070429
    37  C    0.061291
    38  C    0.033178
    39  O   -0.160756
    40  C   -0.050803
    41  C    0.189403
    42  O   -0.264290
    43  O   -0.245324
    44  C    0.101617
    45  C    0.337079
    46  C   -0.105358
    47  C   -0.156685
    48  C    0.050574
    49  C    0.040621
    50  C    0.031934
    51  C    0.100696
    52  C   -0.076970
    53  C    0.005770
    54  C   -0.034962
    55  C    0.002687
    56  C    0.032141
    57  C   -0.136364
    58  C    0.051136
    59  C    0.096085
    60  C   -0.013242
    61  C   -0.020462
    62  C   -0.114448
    63  C    0.058362
    64  C   -0.019905
    65  H   -0.015703
    66  H    0.032572
    67  H   -0.067750
    68  H    0.030391
    69  H   -0.007094
    70  H    0.018431
    71  H    0.022249
    72  H    0.041240
    73  H   -0.059529
    74  H    0.013158
    75  H    0.027553
    76  H    0.062506
    77  H   -0.040013
    78  H   -0.021511
    79  H    0.040815
    80  H   -0.072196
    81  H    0.064928
    82  H    0.047657
    83  H    0.024300
    84  H    0.018154
    85  H   -0.012335
    86  H   -0.020420
    87  H   -0.027301
    88  H    0.016282
    89  H    0.004859
    90  H    0.014658
    91  H    0.052537
    92  H    0.014449
    93  H    0.048244
    94  H    0.033103
    95  H    0.047585
    96  H    0.044227
    97  H    0.050295
    98  H    0.015345
    99  H    0.016474
   100  H   -0.023023
   101  H    0.022189
   102  H    0.046256
   103  H   -0.005992
   104  H   -0.009844
   105  H    0.009035
   106  H    0.009880
   107  H   -0.005920
   108  H   -0.048851
   109  H    0.012571
   110  H   -0.037390
   111  H    0.025519
   112  H    0.025492
   113  H    0.039828
   114  H   -0.007942
   115  H   -0.009548
   116  H    0.002683
   117  H   -0.011421
   118  H    0.020353
   119  H    0.015107
   120  H    0.003066
   121  H    0.033429
   122  H    0.002443
   123  H    0.009374
   124  H   -0.010330
   125  H   -0.006643
   126  H    0.012721
   127  H    0.006738
   128  H   -0.010796
   129  H   -0.025356
   130  H    0.013503
   131  H   -0.009535
   132  H    0.016644
   133  H   -0.004049
   134  H    0.027546
   135  H    0.025355
   136  H    0.003140
   137  H    0.182124
   138  H    0.206310
 Sum of Mulliken charges =  -0.00000

 Dipole moment (field-independent basis, Debye):
    X=              1.2151    Y=              5.8860    Z=             -0.4483  Tot=              6.0269
 Quadrupole moment (field-independent basis, Debye-Ang):
   XX=           -350.6621   YY=           -382.4502   ZZ=           -398.3358
   XY=            -32.7220   XZ=              8.4705   YZ=              2.1980

 Normal termination of Gaussian 16 at Wed Aug 21 12:37:19 2019.
