 Gaussian 16, Revision A.03,
 Gaussian 16:  ES64L-G16RevA.03 25-Dec-2016

 --------------------------
 # td=(NStates=1) B3LYP/SVP
 --------------------------

 --
 TD
 --
 Symbolic Z-matrix:
 Charge =  0 Multiplicity = 1

                         Standard orientation:
 ---------------------------------------------------------------------
 Center     Atomic      Atomic             Coordinates (Angstroms)
 Number     Number       Type             X           Y           Z
 ---------------------------------------------------------------------
      1          6           0       -5.160153   -2.065640    0.420734
      2          6           0       -4.677522    2.726311    1.551987
      3          6           0       -9.296707    3.389482   -0.078899
      4          6           0       -9.844791   -1.331925   -1.069590
      5          7           0       -5.171573    0.444938    0.921447
      6          6           0       -4.532441   -0.784026    0.795535
      7          6           0       -3.097046   -0.652589    1.365079
      8          6           0       -3.048903    0.821321    1.890834
      9          6           0       -4.330574    1.371701    1.350530
     10          6           0       -2.953719    0.743813    3.387629
     11          6           0       -1.967513   -0.867195    0.086323
     12          6           0       -0.644656   -0.820932    0.667219
     13          6           0        0.461574   -1.058330   -0.426922
     14          8           0        0.152493   -1.332924   -1.566316
     15          8           0        1.711004   -0.868835   -0.046521
     16          7           0       -6.991054    2.747107    0.595490
     17          6           0       -5.936999    3.383685    1.178586
     18          6           0       -6.140432    4.775525    1.178151
     19          6           0       -7.461839    4.994931    0.630646
     20          6           0       -8.028660    3.698740    0.306429
     21          6           0       -5.082274    5.799912    1.490525
     22          6           0       -8.003946    6.215806    0.363349
     23          6           0       -9.016345    6.550271   -0.369651
     24          7           0       -9.092300    1.012490   -0.445117
     25          6           0       -9.818582    2.184995   -0.475717
     26          6           0      -11.146898    1.980511   -0.978569
     27          6           0      -11.430564    0.616041   -1.130374
     28          6           0      -10.041318    0.055033   -0.866959
     29          6           0      -12.133980    3.125330   -1.241575
     30          6           0      -12.669546   -0.165679   -1.638860
     31          6           0      -12.524577   -0.270288   -3.126703
     32          7           0       -7.483936   -1.181738   -0.341736
     33          6           0       -8.577059   -1.942225   -0.854219
     34          6           0       -8.200827   -3.320649   -0.895623
     35          6           0       -6.889808   -3.455955   -0.390369
     36          6           0       -6.542354   -2.064146   -0.066088
     37          6           0       -9.088810   -4.497000   -1.253393
     38          6           0       -5.774845   -4.280196   -0.167149
     39          8           0       -5.809806   -5.551134   -0.272189
     40          6           0       -4.513161   -3.469213    0.448249
     41          6           0       -3.964869   -3.975725    1.787963
     42          8           0       -4.148647   -3.460798    2.842580
     43          8           0       -3.257738   -5.069364    1.511645
     44          6           0       -2.696500   -5.854234    2.636017
     45          6           0        2.620570   -1.080604   -0.994593
     46          6           0        3.944757   -0.641726   -0.523618
     47          6           0        4.873098    0.248665   -1.014733
     48          6           0        4.725017    0.964812   -2.336797
     49          6           0        6.269943    0.279029   -0.324364
     50          6           0        7.454947   -0.335996   -1.120429
     51          6           0        8.757660   -0.253997   -0.207750
     52          6           0       10.019493   -0.745144   -0.828063
     53          6           0       10.037832   -2.328373   -1.147820
     54          6           0       11.224201   -0.256514   -0.020966
     55          6           0       12.638149   -0.551318   -0.605281
     56          6           0       13.734823   -0.068822    0.277353
     57          6           0       15.274131   -0.282492   -0.237360
     58          6           0       15.598154   -1.866135   -0.242088
     59          6           0       16.290799    0.598127    0.508195
     60          6           0       17.591778    0.695648   -0.260938
     61          6           0       18.610035    1.625022    0.526031
     62          6           0       20.080482    1.730150   -0.004139
     63          6           0       20.030359    2.558789   -1.367987
     64          6           0       20.963040    2.301928    1.070421
     65          1           0       -3.781162    3.314268    1.672309
     66          1           0       -9.814467    4.298381   -0.332424
     67          1           0      -10.749490   -2.006067   -1.295798
     68          1           0       -2.921162   -1.378779    2.179763
     69          1           0       -2.069638    1.339765    1.565887
     70          1           0       -2.295017   -0.027341    3.725147
     71          1           0       -2.621093    1.526399    3.965024
     72          1           0       -3.885509    0.295664    3.865107
     73          1           0       -2.161052   -1.946736   -0.359618
     74          1           0       -2.352553   -0.201186   -0.821523
     75          1           0       -0.115901    0.070138    0.980637
     76          1           0       -0.377896   -1.670318    1.309879
     77          1           0       -4.561020    5.861702    0.484880
     78          1           0       -5.503729    6.907118    1.541054
     79          1           0       -4.543498    5.587831    2.469874
     80          1           0       -7.628107    7.130354    1.104982
     81          1           0       -9.422673    5.792810   -1.137292
     82          1           0       -9.333496    7.826617   -0.499198
     83          1           0      -12.320980    3.798629   -0.505890
     84          1           0      -11.585756    3.909302   -1.987555
     85          1           0      -12.883589    2.671068   -1.784217
     86          1           0      -13.068190   -0.852346   -0.816485
     87          1           0      -13.703716    0.336541   -1.269012
     88          1           0      -12.079976    0.718669   -3.639679
     89          1           0      -11.638750   -0.828585   -3.400788
     90          1           0      -13.612173   -0.433563   -3.392806
     91          1           0       -9.832837   -4.581138   -0.528486
     92          1           0       -9.560681   -4.142536   -2.304099
     93          1           0       -8.229045   -5.339118   -1.256444
     94          1           0       -3.703094   -3.634797   -0.330450
     95          1           0       -2.102684   -6.684385    2.167500
     96          1           0       -2.099130   -5.249093    3.339077
     97          1           0       -3.623823   -6.283473    3.128805
     98          1           0        2.579272   -2.065896   -1.255454
     99          1           0        2.328106   -0.433481   -1.865546
    100          1           0        4.471057   -1.143766    0.295384
    101          1           0        5.008830    2.126662   -2.204158
    102          1           0        5.420429    0.635365   -3.023892
    103          1           0        3.780728    0.840919   -2.873216
    104          1           0        6.455784    1.338972   -0.093935
    105          1           0        6.304234   -0.383483    0.661272
    106          1           0        7.069694   -1.342131   -1.410887
    107          1           0        7.661121    0.420089   -1.904150
    108          1           0        8.836477    0.734255    0.145697
    109          1           0        8.782030   -0.906673    0.571968
    110          1           0       10.072003   -0.383016   -1.846919
    111          1           0        9.197088   -2.615103   -1.750794
    112          1           0       10.918478   -2.608771   -1.680989
    113          1           0       10.061462   -2.951879   -0.151338
    114          1           0       11.304752    0.742640    0.168546
    115          1           0       11.001943   -0.856262    0.958269
    116          1           0       12.810543   -1.590984   -1.017400
    117          1           0       12.771941    0.048853   -1.448161
    118          1           0       13.796969    1.006969    0.359700
    119          1           0       13.556797   -0.523156    1.318437
    120          1           0       15.287076    0.011664   -1.287175
    121          1           0       14.623825   -2.300813   -0.882146
    122          1           0       16.513711   -2.020741   -0.674706
    123          1           0       15.578952   -2.329194    0.845347
    124          1           0       15.846926    1.573171    0.538282
    125          1           0       16.416875    0.305891    1.567277
    126          1           0       17.981201   -0.454224   -0.433901
    127          1           0       17.418226    1.095050   -1.229723
    128          1           0       18.368233    2.847919    0.642528
    129          1           0       18.586414    1.291276    1.692885
    130          1           0       20.302744    0.684897   -0.496179
    131          1           0       19.792031    3.634306   -1.183346
    132          1           0       21.082886    2.598803   -1.866383
    133          1           0       19.411081    2.084815   -2.049536
    134          1           0       21.035185    1.663036    1.997947
    135          1           0       22.049552    2.518150    0.679265
    136          1           0       20.563593    3.185965    1.378265
    137          1           0       -7.222604    1.834085    0.337287
    138          1           0       -7.425903   -0.226174   -0.131958
 ---------------------------------------------------------------------

 SCF Done:  E(RB3LYP) =  -2733.07623759     A.U. after   17 cycles

 Excitation energies and oscillator strengths:

 Excited State   1:      Singlet-A      1.9824 eV  625.41 nm  f=0.1552  <S**2>=0.000
     235 -> 237       -0.17842
     235 -> 238        0.31111
     236 -> 237        0.59873
 This state for optimization and/or second-order correction.
 Total Energy, E(TD-HF/TD-DFT) =  -2733.00338420
 Copying the excited state density for this state as the 1-particle RhoCI density.

 The electronic state is 1-A.
 Alpha  occ. eigenvalues --  -19.18376 -19.18091 -19.12795 -19.11744 -19.11232
 Alpha  occ. eigenvalues --  -14.37600 -14.36080 -14.31924 -14.30657 -10.31845
 Alpha  occ. eigenvalues --  -10.30975 -10.27674 -10.26027 -10.24269 -10.24083
 Alpha  occ. eigenvalues --  -10.23813 -10.23683 -10.23596 -10.23097 -10.22366
 Alpha  occ. eigenvalues --  -10.22325 -10.22100 -10.21798 -10.21677 -10.21538
 Alpha  occ. eigenvalues --  -10.21436 -10.21419 -10.21271 -10.20961 -10.20892
 Alpha  occ. eigenvalues --  -10.20715 -10.20674 -10.20673 -10.20585 -10.20428
 Alpha  occ. eigenvalues --  -10.20375 -10.20189 -10.20160 -10.20108 -10.20106
 Alpha  occ. eigenvalues --  -10.19974 -10.19914 -10.19717 -10.19619 -10.19528
 Alpha  occ. eigenvalues --  -10.19401 -10.19341 -10.19167 -10.19089 -10.19074
 Alpha  occ. eigenvalues --  -10.19066 -10.18833 -10.18676 -10.18438 -10.18371
 Alpha  occ. eigenvalues --  -10.18337 -10.18233 -10.18216 -10.18165 -10.18148
 Alpha  occ. eigenvalues --  -10.17834 -10.17757 -10.17317 -10.17283  -1.13166
 Alpha  occ. eigenvalues --   -1.09717  -1.01729  -1.01298  -0.99283  -0.98364
 Alpha  occ. eigenvalues --   -0.96955  -0.93730  -0.92113  -0.83553  -0.82760
 Alpha  occ. eigenvalues --   -0.82435  -0.81541  -0.81286  -0.80733  -0.80392
 Alpha  occ. eigenvalues --   -0.80204  -0.79256  -0.78996  -0.78383  -0.77982
 Alpha  occ. eigenvalues --   -0.76909  -0.76156  -0.75783  -0.75192  -0.74819
 Alpha  occ. eigenvalues --   -0.73610  -0.73148  -0.71833  -0.71227  -0.70356
 Alpha  occ. eigenvalues --   -0.69592  -0.69018  -0.68507  -0.67979  -0.67937
 Alpha  occ. eigenvalues --   -0.67515  -0.67028  -0.66271  -0.65936  -0.65472
 Alpha  occ. eigenvalues --   -0.64047  -0.62951  -0.62493  -0.62167  -0.61277
 Alpha  occ. eigenvalues --   -0.60719  -0.59040  -0.58174  -0.57681  -0.57243
 Alpha  occ. eigenvalues --   -0.57182  -0.56592  -0.56392  -0.55918  -0.55636
 Alpha  occ. eigenvalues --   -0.55120  -0.54921  -0.53634  -0.53570  -0.52968
 Alpha  occ. eigenvalues --   -0.52463  -0.52295  -0.51529  -0.51004  -0.50313
 Alpha  occ. eigenvalues --   -0.50040  -0.49731  -0.49580  -0.48882  -0.48627
 Alpha  occ. eigenvalues --   -0.48030  -0.47678  -0.47496  -0.47331  -0.47252
 Alpha  occ. eigenvalues --   -0.46488  -0.46418  -0.45866  -0.45850  -0.45676
 Alpha  occ. eigenvalues --   -0.45377  -0.45253  -0.44969  -0.44796  -0.44487
 Alpha  occ. eigenvalues --   -0.44409  -0.44225  -0.44146  -0.44029  -0.43748
 Alpha  occ. eigenvalues --   -0.43593  -0.43118  -0.42812  -0.42565  -0.42393
 Alpha  occ. eigenvalues --   -0.42174  -0.41907  -0.41663  -0.41487  -0.41276
 Alpha  occ. eigenvalues --   -0.41114  -0.41022  -0.40811  -0.40633  -0.40161
 Alpha  occ. eigenvalues --   -0.39933  -0.39850  -0.39648  -0.39605  -0.39222
 Alpha  occ. eigenvalues --   -0.39073  -0.38585  -0.38516  -0.38422  -0.38334
 Alpha  occ. eigenvalues --   -0.38156  -0.37868  -0.37674  -0.37450  -0.37333
 Alpha  occ. eigenvalues --   -0.37179  -0.37057  -0.36987  -0.36749  -0.36726
 Alpha  occ. eigenvalues --   -0.36569  -0.36134  -0.36004  -0.35881  -0.35777
 Alpha  occ. eigenvalues --   -0.35512  -0.35349  -0.35229  -0.35021  -0.34969
 Alpha  occ. eigenvalues --   -0.34364  -0.33903  -0.33609  -0.33569  -0.33418
 Alpha  occ. eigenvalues --   -0.33248  -0.33144  -0.32701  -0.32528  -0.32270
 Alpha  occ. eigenvalues --   -0.32201  -0.32122  -0.31624  -0.31487  -0.31304
 Alpha  occ. eigenvalues --   -0.31110  -0.30801  -0.30533  -0.30243  -0.30187
 Alpha  occ. eigenvalues --   -0.29530  -0.29308  -0.28545  -0.28542  -0.27565
 Alpha  occ. eigenvalues --   -0.27341  -0.27213  -0.26437  -0.26003  -0.25621
 Alpha  occ. eigenvalues --   -0.24492  -0.24259  -0.23358  -0.22449  -0.19494
 Alpha  occ. eigenvalues --   -0.19020
 Alpha virt. eigenvalues --   -0.10648  -0.07855  -0.04844  -0.01826  -0.00185
 Alpha virt. eigenvalues --    0.00090   0.00749   0.01550   0.02201   0.02787
 Alpha virt. eigenvalues --    0.03603   0.04134   0.04437   0.04601   0.04672

 Mulliken charges:
               1
     1  C   -0.055344
     2  C   -0.045367
     3  C   -0.050852
     4  C   -0.133415
     5  N   -0.174775
     6  C    0.004471
     7  C   -0.087686
     8  C   -0.027415
     9  C   -0.012680
    10  C    0.103243
    11  C   -0.034965
    12  C    0.129577
    13  C    0.088250
    14  O   -0.247950
    15  O   -0.242780
    16  N   -0.049789
    17  C    0.137168
    18  C   -0.152879
    19  C    0.116670
    20  C    0.024657
    21  C    0.055105
    22  C   -0.096202
    23  C   -0.137091
    24  N   -0.290270
    25  C    0.136019
    26  C   -0.153577
    27  C   -0.143701
    28  C    0.071305
    29  C    0.177864
    30  C   -0.013385
    31  C    0.062417
    32  N    0.019006
    33  C    0.132624
    34  C   -0.176869
    35  C    0.058180
    36  C    0.031105
    37  C    0.057030
    38  C    0.011721
    39  O   -0.245083
    40  C   -0.010047
    41  C    0.210315
    42  O   -0.195591
    43  O   -0.310329
    44  C    0.160902
    45  C    0.353667
    46  C   -0.094887
    47  C   -0.155075
    48  C    0.075329
    49  C   -0.008516
    50  C    0.031152
    51  C    0.097808
    52  C   -0.057404
    53  C    0.010520
    54  C    0.048520
    55  C    0.071913
    56  C    0.009087
    57  C   -0.104858
    58  C   -0.005507
    59  C    0.077190
    60  C    0.023420
    61  C   -0.083917
    62  C   -0.100895
    63  C    0.012153
    64  C    0.080183
    65  H   -0.020714
    66  H   -0.065091
    67  H    0.025503
    68  H    0.026706
    69  H    0.009116
    70  H   -0.016851
    71  H   -0.016287
    72  H    0.015583
    73  H    0.031044
    74  H    0.047952
    75  H    0.025115
    76  H    0.026365
    77  H    0.050375
    78  H    0.021764
    79  H    0.058849
    80  H    0.031742
    81  H    0.052242
    82  H    0.055937
    83  H   -0.003806
    84  H    0.001027
    85  H   -0.002314
    86  H    0.026458
    87  H   -0.002655
    88  H    0.031220
    89  H    0.008871
    90  H    0.038732
    91  H    0.029527
    92  H    0.044018
    93  H    0.083195
    94  H    0.070613
    95  H    0.053580
    96  H    0.047345
    97  H    0.051907
    98  H   -0.020823
    99  H   -0.000939
   100  H   -0.024939
   101  H    0.019816
   102  H    0.002748
   103  H    0.012979
   104  H    0.004834
   105  H    0.019509
   106  H    0.020776
   107  H    0.004729
   108  H   -0.021307
   109  H   -0.040957
   110  H   -0.037521
   111  H    0.006349
   112  H    0.005998
   113  H    0.010121
   114  H   -0.028839
   115  H   -0.001768
   116  H    0.004434
   117  H   -0.037471
   118  H   -0.017216
   119  H    0.000457
   120  H   -0.020048
   121  H    0.025237
   122  H   -0.004144
   123  H    0.025212
   124  H   -0.023141
   125  H   -0.001396
   126  H    0.022759
   127  H   -0.008344
   128  H    0.011040
   129  H    0.011171
   130  H    0.002551
   131  H    0.005792
   132  H    0.010723
   133  H   -0.000320
   134  H    0.017410
   135  H    0.017894
   136  H   -0.021178
   137  H    0.106231
   138  H    0.125044
 Sum of Mulliken charges =  -0.00000

 Dipole moment (field-independent basis, Debye):
    X=              2.6545    Y=              3.4727    Z=              0.2611  Tot=              4.3789
 Quadrupole moment (field-independent basis, Debye-Ang):
   XX=           -354.2187   YY=           -385.4308   ZZ=           -395.9041
   XY=            -12.3692   XZ=              6.3297   YZ=             -8.3430

 Normal termination of Gaussian 16 at Sun Sep  1 14:02:29 2019.
