 Gaussian 16, Revision A.03,
 Gaussian 16:  ES64L-G16RevA.03 25-Dec-2016

 --------------------------
 # td=(NStates=1) B3LYP/SVP
 --------------------------

 --
 TD
 --
 Symbolic Z-matrix:
 Charge =  0 Multiplicity = 1

                         Standard orientation:
 ---------------------------------------------------------------------
 Center     Atomic      Atomic             Coordinates (Angstroms)
 Number     Number       Type             X           Y           Z
 ---------------------------------------------------------------------
      1          6           0       -5.097119   -1.914303    0.473113
      2          6           0       -4.721714    2.751500    1.363045
      3          6           0       -9.477203    3.387055   -0.300109
      4          6           0       -9.836356   -1.419761   -0.895189
      5          7           0       -5.215196    0.469491    0.692796
      6          6           0       -4.541173   -0.719595    0.805166
      7          6           0       -3.130823   -0.593861    1.273738
      8          6           0       -3.069045    0.833832    1.833038
      9          6           0       -4.441419    1.428752    1.226957
     10          6           0       -2.976872    1.027464    3.343716
     11          6           0       -2.082707   -0.759160    0.137187
     12          6           0       -0.612440   -0.759502    0.661592
     13          6           0        0.388097   -1.009332   -0.542869
     14          8           0        0.176673   -1.512834   -1.575316
     15          8           0        1.603758   -0.615421   -0.162210
     16          7           0       -7.161219    2.789272    0.396228
     17          6           0       -5.954155    3.386618    0.962269
     18          6           0       -6.189507    4.813479    1.005511
     19          6           0       -7.559342    4.895947    0.457449
     20          6           0       -8.056276    3.695994    0.093831
     21          6           0       -5.339645    5.888879    1.554860
     22          6           0       -8.165999    6.242327    0.410394
     23          6           0       -9.209193    6.747091   -0.386862
     24          7           0       -9.253140    0.918230   -0.526432
     25          6           0       -9.861488    2.150341   -0.527064
     26          6           0      -11.287270    1.878399   -1.015179
     27          6           0      -11.426662    0.456983   -1.153143
     28          6           0      -10.054093   -0.036307   -0.878035
     29          6           0      -12.256664    2.951546   -1.289788
     30          6           0      -12.665160   -0.370953   -1.632286
     31          6           0      -12.723163   -0.866592   -3.028460
     32          7           0       -7.503234   -1.324150   -0.164931
     33          6           0       -8.595536   -2.058152   -0.608142
     34          6           0       -8.178487   -3.366575   -0.787303
     35          6           0       -6.787265   -3.384621   -0.329672
     36          6           0       -6.483814   -2.062999    0.043599
     37          6           0       -9.019276   -4.675301   -1.170432
     38          6           0       -5.652358   -4.267898   -0.002712
     39          8           0       -5.504922   -5.430758   -0.143116
     40          6           0       -4.527903   -3.312669    0.395492
     41          6           0       -4.021920   -3.881122    1.729783
     42          8           0       -4.414042   -3.572724    2.877979
     43          8           0       -3.127232   -4.869054    1.562984
     44          6           0       -2.601334   -5.405625    2.810608
     45          6           0        2.651733   -1.025828   -1.078538
     46          6           0        3.973715   -0.580832   -0.530530
     47          6           0        5.033578    0.100436   -1.144865
     48          6           0        4.995738    0.630867   -2.537907
     49          6           0        6.335062    0.403981   -0.420531
     50          6           0        7.549348   -0.318295   -0.923679
     51          6           0        8.751342   -0.028534   -0.024949
     52          6           0       10.131459   -0.727162   -0.667864
     53          6           0       10.063930   -2.282932   -0.740490
     54          6           0       11.314929   -0.116439    0.198614
     55          6           0       12.665704   -0.451687   -0.490348
     56          6           0       13.907794    0.009240    0.315118
     57          6           0       15.241453   -0.255545   -0.275845
     58          6           0       15.564003   -1.743170   -0.483470
     59          6           0       16.390974    0.458655    0.500191
     60          6           0       17.714041    0.514317   -0.194731
     61          6           0       18.827445    1.491647    0.592937
     62          6           0       20.192061    1.627687   -0.006810
     63          6           0       20.254419    1.995602   -1.472921
     64          6           0       21.130595    2.597475    0.827658
     65          1           0       -3.997278    3.583950    1.636067
     66          1           0      -10.074780    4.298943   -0.250384
     67          1           0      -10.593868   -2.055059   -1.263319
     68          1           0       -3.046151   -1.434834    2.031896
     69          1           0       -2.182507    1.242615    1.391435
     70          1           0       -2.160752    0.590786    3.709812
     71          1           0       -3.053683    2.072435    3.712125
     72          1           0       -3.951264    0.587161    3.782784
     73          1           0       -2.444265   -1.684528   -0.424701
     74          1           0       -2.110702   -0.033472   -0.593129
     75          1           0       -0.503768    0.241860    1.152715
     76          1           0       -0.731478   -1.749332    1.362867
     77          1           0       -4.254546    6.134766    1.068300
     78          1           0       -5.953302    6.719880    1.658711
     79          1           0       -5.074364    5.580628    2.644702
     80          1           0       -7.580596    6.983456    1.150615
     81          1           0       -9.655833    6.393963   -1.199532
     82          1           0       -9.485358    7.873853   -0.295953
     83          1           0      -12.534826    3.475466   -0.324406
     84          1           0      -11.697507    3.774079   -2.020196
     85          1           0      -13.177304    2.530423   -1.694888
     86          1           0      -12.694319   -1.248896   -0.843925
     87          1           0      -13.657072    0.235865   -1.042505
     88          1           0      -12.862340   -0.004152   -3.782411
     89          1           0      -12.007960   -1.476690   -3.257824
     90          1           0      -13.590285   -1.470459   -3.415775
     91          1           0      -10.109846   -4.596580   -0.654992
     92          1           0       -9.082153   -4.534414   -2.373173
     93          1           0       -8.451329   -5.574252   -1.021647
     94          1           0       -3.674068   -3.443907   -0.335732
     95          1           0       -1.767029   -6.193112    2.644986
     96          1           0       -2.059791   -4.659950    3.400627
     97          1           0       -3.524627   -5.668031    3.509903
     98          1           0        2.660496   -2.013592   -1.369759
     99          1           0        2.603315   -0.262537   -1.989659
    100          1           0        4.225040   -1.157430    0.354086
    101          1           0        5.502767    1.668683   -2.581833
    102          1           0        5.625649   -0.039736   -3.268374
    103          1           0        3.997668    0.607492   -2.979672
    104          1           0        6.585805    1.593286   -0.631991
    105          1           0        6.497196    0.142228    0.810872
    106          1           0        7.300677   -1.379163   -1.044447
    107          1           0        7.677457    0.202846   -1.934815
    108          1           0        8.845422    1.000580   -0.131507
    109          1           0        8.514516   -0.208779    0.898761
    110          1           0       10.211128   -0.428514   -1.777396
    111          1           0        9.178734   -2.587052   -1.533710
    112          1           0       11.176191   -2.762881   -0.819050
    113          1           0        9.767190   -2.622497    0.288401
    114          1           0       11.255267    0.977824    0.399273
    115          1           0       11.194923   -0.661633    1.134891
    116          1           0       12.669298   -1.540237   -0.353150
    117          1           0       12.682562   -0.157954   -1.571583
    118          1           0       13.752161    1.111024    0.318683
    119          1           0       13.682819   -0.404342    1.301852
    120          1           0       15.157261    0.286577   -1.285192
    121          1           0       14.668939   -2.246984   -1.015707
    122          1           0       16.474996   -1.876534   -1.113701
    123          1           0       15.723381   -2.304236    0.383736
    124          1           0       15.992947    1.574173    0.919663
    125          1           0       16.529471    0.031953    1.545470
    126          1           0       18.199155   -0.474781   -0.152371
    127          1           0       17.504787    1.053438   -1.187655
    128          1           0       18.165868    2.442318    0.598190
    129          1           0       18.872450    1.143779    1.601178
    130          1           0       20.580474    0.648936    0.152462
    131          1           0       19.551969    2.940565   -1.749139
    132          1           0       21.253387    2.238361   -1.876128
    133          1           0       19.578561    1.102225   -1.972672
    134          1           0       21.158216    2.341869    1.980503
    135          1           0       22.146287    2.498919    0.672854
    136          1           0       20.791343    3.705625    0.671369
    137          1           0       -7.197333    1.777031    0.149857
    138          1           0       -7.802072   -0.245065   -0.022693
 ---------------------------------------------------------------------

 SCF Done:  E(RB3LYP) =  -2733.08900152     A.U. after   18 cycles

 Excitation energies and oscillator strengths:

 Excited State   1:      Singlet-A      1.9338 eV  641.16 nm  f=0.2705  <S**2>=0.000
     235 -> 237       -0.18442
     235 -> 238        0.17067
     236 -> 237        0.65595
     236 <- 237       -0.10875
 This state for optimization and/or second-order correction.
 Total Energy, E(TD-HF/TD-DFT) =  -2733.01793712
 Copying the excited state density for this state as the 1-particle RhoCI density.

 The electronic state is 1-A.
 Alpha  occ. eigenvalues --  -19.18380 -19.17721 -19.12885 -19.12227 -19.11988
 Alpha  occ. eigenvalues --  -14.37010 -14.36973 -14.32738 -14.30833 -10.31854
 Alpha  occ. eigenvalues --  -10.31558 -10.27634 -10.25503 -10.24977 -10.24089
 Alpha  occ. eigenvalues --  -10.23276 -10.23254 -10.23230 -10.22861 -10.22584
 Alpha  occ. eigenvalues --  -10.22409 -10.22111 -10.22102 -10.22071 -10.22050
 Alpha  occ. eigenvalues --  -10.22028 -10.21920 -10.21869 -10.21513 -10.21362
 Alpha  occ. eigenvalues --  -10.21353 -10.20908 -10.20662 -10.20621 -10.20620
 Alpha  occ. eigenvalues --  -10.20610 -10.20561 -10.20411 -10.20315 -10.20176
 Alpha  occ. eigenvalues --  -10.19887 -10.19840 -10.19830 -10.19751 -10.19543
 Alpha  occ. eigenvalues --  -10.19446 -10.19420 -10.19381 -10.19360 -10.19231
 Alpha  occ. eigenvalues --  -10.19189 -10.19188 -10.18966 -10.18883 -10.18698
 Alpha  occ. eigenvalues --  -10.18556 -10.18549 -10.18502 -10.18487 -10.18176
 Alpha  occ. eigenvalues --  -10.18072 -10.17917 -10.17646 -10.17292  -1.11060
 Alpha  occ. eigenvalues --   -1.09048  -1.04729  -1.02150  -1.00096  -0.98361
 Alpha  occ. eigenvalues --   -0.98058  -0.94688  -0.94390  -0.85153  -0.82497
 Alpha  occ. eigenvalues --   -0.81657  -0.81436  -0.81254  -0.80756  -0.80111
 Alpha  occ. eigenvalues --   -0.79524  -0.79403  -0.79381  -0.78669  -0.77475
 Alpha  occ. eigenvalues --   -0.76624  -0.76124  -0.75682  -0.74527  -0.74392
 Alpha  occ. eigenvalues --   -0.73458  -0.73317  -0.72609  -0.71276  -0.71222
 Alpha  occ. eigenvalues --   -0.69593  -0.69557  -0.68409  -0.67590  -0.67350
 Alpha  occ. eigenvalues --   -0.66915  -0.66673  -0.66405  -0.65987  -0.65285
 Alpha  occ. eigenvalues --   -0.63643  -0.62846  -0.62316  -0.61836  -0.61598
 Alpha  occ. eigenvalues --   -0.61040  -0.59071  -0.58209  -0.57891  -0.57339
 Alpha  occ. eigenvalues --   -0.56820  -0.56188  -0.55932  -0.55344  -0.55188
 Alpha  occ. eigenvalues --   -0.54539  -0.54402  -0.54286  -0.53519  -0.53048
 Alpha  occ. eigenvalues --   -0.52555  -0.52309  -0.51583  -0.50824  -0.50724
 Alpha  occ. eigenvalues --   -0.50458  -0.49158  -0.48787  -0.48582  -0.48380
 Alpha  occ. eigenvalues --   -0.48099  -0.47925  -0.47379  -0.47300  -0.47165
 Alpha  occ. eigenvalues --   -0.47125  -0.46392  -0.46090  -0.45555  -0.45238
 Alpha  occ. eigenvalues --   -0.45138  -0.45056  -0.44655  -0.44506  -0.44472
 Alpha  occ. eigenvalues --   -0.44229  -0.44064  -0.43979  -0.43890  -0.43696
 Alpha  occ. eigenvalues --   -0.43592  -0.43417  -0.42914  -0.42842  -0.42572
 Alpha  occ. eigenvalues --   -0.42522  -0.42311  -0.42124  -0.41828  -0.41600
 Alpha  occ. eigenvalues --   -0.41487  -0.41376  -0.41158  -0.40752  -0.40614
 Alpha  occ. eigenvalues --   -0.40595  -0.40351  -0.39929  -0.39899  -0.39795
 Alpha  occ. eigenvalues --   -0.39774  -0.39419  -0.39252  -0.38900  -0.38624
 Alpha  occ. eigenvalues --   -0.38412  -0.38390  -0.37998  -0.37939  -0.37812
 Alpha  occ. eigenvalues --   -0.37603  -0.37279  -0.37077  -0.36804  -0.36520
 Alpha  occ. eigenvalues --   -0.36433  -0.36295  -0.36144  -0.35978  -0.35865
 Alpha  occ. eigenvalues --   -0.35429  -0.35269  -0.35227  -0.35015  -0.34906
 Alpha  occ. eigenvalues --   -0.34624  -0.34521  -0.34220  -0.34004  -0.33467
 Alpha  occ. eigenvalues --   -0.32785  -0.32707  -0.32638  -0.32485  -0.32132
 Alpha  occ. eigenvalues --   -0.32110  -0.32058  -0.31889  -0.31755  -0.31695
 Alpha  occ. eigenvalues --   -0.31167  -0.30415  -0.30265  -0.30199  -0.30102
 Alpha  occ. eigenvalues --   -0.29795  -0.28929  -0.28660  -0.28045  -0.27999
 Alpha  occ. eigenvalues --   -0.27893  -0.27406  -0.27107  -0.25974  -0.25817
 Alpha  occ. eigenvalues --   -0.25226  -0.24312  -0.22945  -0.22658  -0.20622
 Alpha  occ. eigenvalues --   -0.19050
 Alpha virt. eigenvalues --   -0.11858  -0.07027  -0.03905  -0.02192  -0.01765
 Alpha virt. eigenvalues --   -0.00732   0.00040   0.00431   0.02259   0.03313
 Alpha virt. eigenvalues --    0.03656   0.03951   0.04019   0.04425   0.04611

 Mulliken charges:
               1
     1  C    0.042557
     2  C   -0.067202
     3  C   -0.149543
     4  C   -0.065252
     5  N   -0.156488
     6  C   -0.098264
     7  C   -0.051509
     8  C   -0.012461
     9  C    0.046009
    10  C    0.109672
    11  C    0.039213
    12  C   -0.008535
    13  C    0.170584
    14  O   -0.185424
    15  O   -0.302452
    16  N   -0.080187
    17  C    0.052264
    18  C   -0.123704
    19  C    0.007095
    20  C    0.015658
    21  C    0.083571
    22  C   -0.064984
    23  C   -0.037159
    24  N   -0.213133
    25  C    0.213735
    26  C   -0.165487
    27  C   -0.118932
    28  C    0.078773
    29  C    0.060916
    30  C   -0.024133
    31  C    0.104598
    32  N   -0.016044
    33  C    0.044999
    34  C   -0.136494
    35  C   -0.059237
    36  C    0.034757
    37  C    0.044911
    38  C    0.054485
    39  O   -0.127869
    40  C   -0.019256
    41  C    0.187844
    42  O   -0.276131
    43  O   -0.283550
    44  C    0.145218
    45  C    0.278027
    46  C   -0.107712
    47  C   -0.095906
    48  C    0.034063
    49  C   -0.053665
    50  C   -0.014654
    51  C    0.153236
    52  C   -0.111241
    53  C   -0.050646
    54  C    0.040658
    55  C   -0.008321
    56  C    0.046176
    57  C   -0.017353
    58  C    0.036693
    59  C   -0.050057
    60  C    0.010764
    61  C   -0.012353
    62  C   -0.012019
    63  C   -0.038795
    64  C    0.001445
    65  H    0.003523
    66  H   -0.003792
    67  H   -0.043772
    68  H    0.019220
    69  H   -0.023235
    70  H   -0.014944
    71  H    0.008493
    72  H    0.022675
    73  H    0.012683
    74  H   -0.022628
    75  H    0.043950
    76  H    0.061341
    77  H    0.061208
    78  H   -0.020101
    79  H    0.035089
    80  H    0.033812
    81  H   -0.012690
    82  H    0.030611
    83  H    0.033468
    84  H    0.046593
    85  H    0.015124
    86  H    0.018824
    87  H    0.026625
    88  H    0.021471
    89  H   -0.033101
    90  H    0.005914
    91  H    0.061179
    92  H    0.046382
    93  H    0.042821
    94  H    0.072238
    95  H    0.051046
    96  H    0.018030
    97  H    0.064252
    98  H    0.025407
    99  H    0.022972
   100  H   -0.010970
   101  H    0.029301
   102  H    0.045949
   103  H    0.012910
   104  H    0.022872
   105  H    0.020193
   106  H    0.004739
   107  H   -0.002005
   108  H   -0.033585
   109  H   -0.054581
   110  H    0.002510
   111  H    0.053462
   112  H    0.042147
   113  H    0.007685
   114  H    0.000432
   115  H   -0.011115
   116  H   -0.007989
   117  H    0.004078
   118  H   -0.012658
   119  H   -0.017299
   120  H   -0.010233
   121  H    0.014420
   122  H    0.014427
   123  H   -0.009979
   124  H   -0.002719
   125  H   -0.011652
   126  H    0.014871
   127  H    0.022266
   128  H   -0.002485
   129  H   -0.011800
   130  H   -0.017443
   131  H    0.015795
   132  H    0.027461
   133  H    0.032656
   134  H    0.002878
   135  H   -0.010552
   136  H    0.024955
   137  H    0.158966
   138  H    0.199638
 Sum of Mulliken charges =  -0.00000

 Dipole moment (field-independent basis, Debye):
    X=              2.6271    Y=              3.0454    Z=             -0.0141  Tot=              4.0220
 Quadrupole moment (field-independent basis, Debye-Ang):
   XX=           -347.3383   YY=           -391.7430   ZZ=           -395.7376
   XY=            -22.7220   XZ=             15.2620   YZ=             -0.5600

 Normal termination of Gaussian 16 at Mon Aug 26 22:43:31 2019.
