 Gaussian 16, Revision A.03,
 Gaussian 16:  ES64L-G16RevA.03 25-Dec-2016

 --------------------------
 # td=(NStates=1) B3LYP/SVP
 --------------------------

 --
 TD
 --
 Symbolic Z-matrix:
 Charge =  0 Multiplicity = 1

                         Standard orientation:
 ---------------------------------------------------------------------
 Center     Atomic      Atomic             Coordinates (Angstroms)
 Number     Number       Type             X           Y           Z
 ---------------------------------------------------------------------
      1          6           0       -5.179108   -1.932191    0.646918
      2          6           0       -4.808292    2.853478    1.377885
      3          6           0       -9.458555    3.334911   -0.206329
      4          6           0       -9.813313   -1.462633   -0.852089
      5          7           0       -5.215927    0.500325    0.919781
      6          6           0       -4.550022   -0.683319    0.869558
      7          6           0       -3.144820   -0.447342    1.283818
      8          6           0       -3.191251    0.990919    1.933813
      9          6           0       -4.463443    1.454729    1.419737
     10          6           0       -2.986499    0.933423    3.410933
     11          6           0       -2.108390   -0.651599    0.132897
     12          6           0       -0.567894   -0.726463    0.657171
     13          6           0        0.373759   -0.976304   -0.502491
     14          8           0        0.099364   -1.507941   -1.518339
     15          8           0        1.525197   -0.729616   -0.163154
     16          7           0       -7.099667    2.791614    0.518864
     17          6           0       -5.900212    3.497419    0.979674
     18          6           0       -6.335274    4.909006    1.123382
     19          6           0       -7.566317    4.980212    0.542649
     20          6           0       -8.197783    3.618086    0.184440
     21          6           0       -5.421950    5.918070    1.573573
     22          6           0       -8.219405    6.265708    0.264974
     23          6           0       -9.040356    6.605514   -0.781221
     24          7           0       -9.168847    0.848106   -0.410474
     25          6           0       -9.918298    2.009574   -0.538421
     26          6           0      -11.249712    1.774823   -1.143752
     27          6           0      -11.372788    0.468469   -1.230981
     28          6           0      -10.033433   -0.132568   -0.849882
     29          6           0      -12.315080    2.812780   -1.289127
     30          6           0      -12.578945   -0.349848   -1.713531
     31          6           0      -12.301778   -0.687356   -3.299853
     32          7           0       -7.525779   -1.304734   -0.138767
     33          6           0       -8.523753   -2.091364   -0.515349
     34          6           0       -8.075201   -3.413354   -0.681246
     35          6           0       -6.779433   -3.421993   -0.215938
     36          6           0       -6.361948   -2.092906    0.126870
     37          6           0       -9.012265   -4.583232   -0.868986
     38          6           0       -5.569982   -4.253205    0.017753
     39          8           0       -5.497895   -5.467032   -0.069537
     40          6           0       -4.460159   -3.291386    0.424744
     41          6           0       -3.914743   -3.911410    1.688224
     42          8           0       -4.144763   -3.513486    2.850633
     43          8           0       -3.040180   -4.695403    1.471651
     44          6           0       -2.423493   -5.442744    2.640273
     45          6           0        2.574776   -1.063762   -1.046948
     46          6           0        3.993993   -0.696718   -0.592224
     47          6           0        4.955683    0.029171   -1.135576
     48          6           0        4.729755    0.660119   -2.530958
     49          6           0        6.236065    0.328132   -0.398216
     50          6           0        7.518787   -0.301842   -1.085941
     51          6           0        8.716707   -0.259771   -0.224242
     52          6           0       10.148692   -0.767038   -0.868042
     53          6           0       10.054853   -2.216114   -1.236512
     54          6           0       11.238842   -0.457826    0.057856
     55          6           0       12.673447   -0.593978   -0.649357
     56          6           0       13.824745   -0.054987    0.256993
     57          6           0       15.276722   -0.261148   -0.327072
     58          6           0       15.583839   -1.743803   -0.293084
     59          6           0       16.182974    0.799182    0.531274
     60          6           0       17.670958    0.860119   -0.036351
     61          6           0       18.625420    1.677011    0.671247
     62          6           0       20.093485    1.590971    0.072486
     63          6           0       20.345178    1.969765   -1.320546
     64          6           0       21.031795    2.590210    0.948028
     65          1           0       -4.024419    3.474446    1.822508
     66          1           0      -10.330720    4.059249   -0.445021
     67          1           0      -10.742882   -2.140768   -0.851795
     68          1           0       -2.754280   -1.211698    2.001688
     69          1           0       -2.249162    1.463616    1.488288
     70          1           0       -1.982720    0.740627    3.444171
     71          1           0       -3.513569    1.843276    3.767800
     72          1           0       -3.749654    0.257973    3.926176
     73          1           0       -2.446322   -1.379919   -0.411174
     74          1           0       -2.179423    0.130670   -0.701889
     75          1           0       -0.394538    0.254577    1.125408
     76          1           0       -0.338182   -1.420634    1.437170
     77          1           0       -4.747938    6.372450    0.692169
     78          1           0       -6.000621    6.697654    2.200786
     79          1           0       -4.732711    5.409792    2.386400
     80          1           0       -7.687372    7.124811    0.916995
     81          1           0       -9.356531    5.983814   -1.513792
     82          1           0       -9.516461    7.503715   -1.079424
     83          1           0      -12.073678    3.495554   -0.487881
     84          1           0      -12.358392    3.296410   -2.230259
     85          1           0      -13.337234    2.296953   -1.349571
     86          1           0      -12.788632   -1.319801   -1.380669
     87          1           0      -13.614349    0.134422   -1.420990
     88          1           0      -12.332604    0.393806   -3.713896
     89          1           0      -11.503239   -1.175453   -3.707221
     90          1           0      -13.265716   -1.073539   -3.768467
     91          1           0       -9.833081   -4.534389   -0.222936
     92          1           0       -9.614088   -4.535589   -1.830508
     93          1           0       -8.650847   -5.588341   -0.819735
     94          1           0       -3.313004   -3.351194   -0.284614
     95          1           0       -1.845721   -6.389316    2.211426
     96          1           0       -2.004771   -4.586180    3.209710
     97          1           0       -3.233177   -5.894724    3.218962
     98          1           0        2.515476   -2.082551   -1.207716
     99          1           0        2.315128   -0.557713   -2.155849
    100          1           0        4.151624   -1.046068    0.433510
    101          1           0        5.121575    1.764930   -2.483282
    102          1           0        5.570033    0.202771   -3.110801
    103          1           0        3.793278    0.633229   -3.075199
    104          1           0        6.521752    1.511732   -0.227369
    105          1           0        6.217221   -0.048960    0.645435
    106          1           0        7.368893   -1.274485   -1.418191
    107          1           0        7.601578    0.206924   -2.113817
    108          1           0        9.019114    0.809358   -0.046275
    109          1           0        8.664059   -0.730333    0.744076
    110          1           0       10.029398   -0.248119   -1.883169
    111          1           0        9.305232   -2.467087   -1.978270
    112          1           0       11.066953   -2.744160   -1.631343
    113          1           0        9.819776   -2.931764   -0.484687
    114          1           0       10.915152    0.676970    0.240659
    115          1           0       11.087157   -0.954928    0.954350
    116          1           0       12.819412   -1.549999   -0.963636
    117          1           0       12.797805    0.057099   -1.538734
    118          1           0       13.503561    1.040291    0.296371
    119          1           0       13.885244   -0.348389    1.057546
    120          1           0       14.959306    0.053838   -1.331850
    121          1           0       14.987357   -2.526455   -0.748968
    122          1           0       16.469006   -1.891455   -0.830226
    123          1           0       15.634693   -2.145671    0.872806
    124          1           0       15.713888    1.851827    0.685556
    125          1           0       16.320547    0.342170    1.548009
    126          1           0       18.278203   -0.164921    0.173802
    127          1           0       17.713866    1.168375   -1.118218
    128          1           0       18.137046    2.742374    0.511957
    129          1           0       18.640459    1.427846    1.772968
    130          1           0       20.517543    0.552065    0.279329
    131          1           0       20.176047    3.087976   -1.571371
    132          1           0       21.505847    1.918030   -1.355299
    133          1           0       19.819189    1.354338   -2.207379
    134          1           0       21.194237    2.063767    2.105692
    135          1           0       22.084937    2.510815    0.700455
    136          1           0       20.589610    3.655740    1.166533
    137          1           0       -7.242209    1.665431    0.301317
    138          1           0       -7.574690   -0.238051    0.148155
 ---------------------------------------------------------------------

 SCF Done:  E(RB3LYP) =  -2732.94019141     A.U. after   17 cycles

 Excitation energies and oscillator strengths:

 Excited State   1:      Singlet-A      2.0494 eV  604.97 nm  f=0.2147  <S**2>=0.000
     235 -> 238       -0.28181
     236 -> 237        0.64111
 This state for optimization and/or second-order correction.
 Total Energy, E(TD-HF/TD-DFT) =  -2732.86487583
 Copying the excited state density for this state as the 1-particle RhoCI density.

 The electronic state is 1-A.
 Alpha  occ. eigenvalues --  -19.18775 -19.18464 -19.11280 -19.10650 -19.08918
 Alpha  occ. eigenvalues --  -14.36551 -14.36392 -14.32065 -14.30705 -10.30206
 Alpha  occ. eigenvalues --  -10.29733 -10.27106 -10.26829 -10.25978 -10.24358
 Alpha  occ. eigenvalues --  -10.24073 -10.22815 -10.22552 -10.22526 -10.22228
 Alpha  occ. eigenvalues --  -10.22178 -10.21900 -10.21647 -10.21541 -10.21262
 Alpha  occ. eigenvalues --  -10.21159 -10.21148 -10.20776 -10.20727 -10.20556
 Alpha  occ. eigenvalues --  -10.20418 -10.20381 -10.20279 -10.20212 -10.20143
 Alpha  occ. eigenvalues --  -10.20018 -10.19959 -10.19956 -10.19931 -10.19650
 Alpha  occ. eigenvalues --  -10.19436 -10.19435 -10.19305 -10.19254 -10.19163
 Alpha  occ. eigenvalues --  -10.19133 -10.19120 -10.19103 -10.18843 -10.18756
 Alpha  occ. eigenvalues --  -10.18744 -10.18716 -10.18681 -10.18667 -10.18654
 Alpha  occ. eigenvalues --  -10.18621 -10.18614 -10.18364 -10.18234 -10.18185
 Alpha  occ. eigenvalues --  -10.18008 -10.17953 -10.17747 -10.15474  -1.15186
 Alpha  occ. eigenvalues --   -1.13949  -1.01707  -1.01699  -0.97559  -0.96628
 Alpha  occ. eigenvalues --   -0.95585  -0.93980  -0.92623  -0.85585  -0.82875
 Alpha  occ. eigenvalues --   -0.81843  -0.81543  -0.81013  -0.80575  -0.80458
 Alpha  occ. eigenvalues --   -0.79830  -0.79737  -0.79223  -0.78705  -0.78254
 Alpha  occ. eigenvalues --   -0.76997  -0.76283  -0.75783  -0.75020  -0.74465
 Alpha  occ. eigenvalues --   -0.73885  -0.73729  -0.72444  -0.71914  -0.70353
 Alpha  occ. eigenvalues --   -0.69880  -0.69489  -0.68719  -0.68389  -0.67974
 Alpha  occ. eigenvalues --   -0.67865  -0.66898  -0.66114  -0.65558  -0.65362
 Alpha  occ. eigenvalues --   -0.64337  -0.63395  -0.62326  -0.62146  -0.61851
 Alpha  occ. eigenvalues --   -0.60982  -0.59207  -0.58553  -0.57768  -0.57593
 Alpha  occ. eigenvalues --   -0.57025  -0.56591  -0.56228  -0.55780  -0.55515
 Alpha  occ. eigenvalues --   -0.55168  -0.54317  -0.53886  -0.53668  -0.53025
 Alpha  occ. eigenvalues --   -0.52626  -0.52130  -0.51831  -0.51816  -0.50851
 Alpha  occ. eigenvalues --   -0.50435  -0.49760  -0.49248  -0.48819  -0.48729
 Alpha  occ. eigenvalues --   -0.47819  -0.47556  -0.47495  -0.47360  -0.47258
 Alpha  occ. eigenvalues --   -0.47130  -0.46890  -0.46455  -0.45675  -0.45431
 Alpha  occ. eigenvalues --   -0.45187  -0.44583  -0.44567  -0.44286  -0.44227
 Alpha  occ. eigenvalues --   -0.44204  -0.44074  -0.43610  -0.43459  -0.43327
 Alpha  occ. eigenvalues --   -0.43022  -0.42909  -0.42652  -0.42582  -0.42414
 Alpha  occ. eigenvalues --   -0.42331  -0.42089  -0.41686  -0.41495  -0.41316
 Alpha  occ. eigenvalues --   -0.41192  -0.41140  -0.40776  -0.40447  -0.40223
 Alpha  occ. eigenvalues --   -0.39909  -0.39628  -0.39557  -0.39339  -0.39252
 Alpha  occ. eigenvalues --   -0.39082  -0.38907  -0.38826  -0.38527  -0.38355
 Alpha  occ. eigenvalues --   -0.38198  -0.38123  -0.37955  -0.37836  -0.37626
 Alpha  occ. eigenvalues --   -0.37512  -0.37247  -0.37179  -0.37142  -0.36610
 Alpha  occ. eigenvalues --   -0.36534  -0.36416  -0.36178  -0.35904  -0.35600
 Alpha  occ. eigenvalues --   -0.35562  -0.35443  -0.35037  -0.34638  -0.34223
 Alpha  occ. eigenvalues --   -0.34181  -0.34139  -0.33743  -0.33677  -0.33282
 Alpha  occ. eigenvalues --   -0.33052  -0.32881  -0.32782  -0.32371  -0.32082
 Alpha  occ. eigenvalues --   -0.31905  -0.31849  -0.31519  -0.31457  -0.31392
 Alpha  occ. eigenvalues --   -0.31120  -0.30890  -0.30535  -0.30221  -0.29392
 Alpha  occ. eigenvalues --   -0.29176  -0.29128  -0.28472  -0.27633  -0.27470
 Alpha  occ. eigenvalues --   -0.27317  -0.26739  -0.26198  -0.25499  -0.25331
 Alpha  occ. eigenvalues --   -0.25185  -0.24157  -0.23536  -0.23168  -0.20172
 Alpha  occ. eigenvalues --   -0.17890
 Alpha virt. eigenvalues --   -0.09396  -0.07776  -0.04402  -0.02433  -0.00195
 Alpha virt. eigenvalues --    0.00229   0.01190   0.02486   0.03136   0.03703
 Alpha virt. eigenvalues --    0.03851   0.04043   0.04204   0.04379   0.04800

 Mulliken charges:
               1
     1  C    0.028474
     2  C   -0.063216
     3  C   -0.127121
     4  C   -0.126303
     5  N   -0.135087
     6  C   -0.050706
     7  C   -0.066549
     8  C   -0.072446
     9  C   -0.042105
    10  C    0.156338
    11  C    0.122008
    12  C    0.042319
    13  C    0.100812
    14  O   -0.230215
    15  O   -0.189879
    16  N   -0.253216
    17  C    0.189556
    18  C   -0.091611
    19  C   -0.003856
    20  C    0.230189
    21  C    0.003149
    22  C   -0.047776
    23  C   -0.011750
    24  N   -0.275382
    25  C    0.005500
    26  C   -0.135182
    27  C   -0.053945
    28  C    0.111351
    29  C    0.125484
    30  C    0.035767
    31  C   -0.019478
    32  N   -0.104112
    33  C    0.048959
    34  C   -0.153482
    35  C    0.018178
    36  C    0.124692
    37  C    0.129859
    38  C    0.086362
    39  O   -0.181274
    40  C   -0.167812
    41  C    0.142360
    42  O   -0.313844
    43  O   -0.192537
    44  C    0.164301
    45  C    0.243433
    46  C   -0.104536
    47  C   -0.091949
    48  C    0.055930
    49  C    0.025555
    50  C    0.037557
    51  C    0.013841
    52  C   -0.099666
    53  C    0.014319
    54  C    0.077104
    55  C    0.083391
    56  C    0.148716
    57  C   -0.069196
    58  C    0.034702
    59  C    0.040001
    60  C   -0.032021
    61  C    0.031945
    62  C   -0.094548
    63  C   -0.015802
    64  C   -0.055181
    65  H   -0.028511
    66  H    0.007345
    67  H    0.015762
    68  H    0.004481
    69  H    0.003873
    70  H    0.005063
    71  H   -0.011846
    72  H    0.022566
    73  H   -0.068202
    74  H   -0.005606
    75  H    0.008572
    76  H    0.020922
    77  H    0.071537
    78  H    0.042942
    79  H    0.034767
    80  H    0.017761
    81  H   -0.010392
    82  H    0.010569
    83  H    0.037409
    84  H    0.002232
    85  H    0.010572
    86  H   -0.010041
    87  H    0.024583
    88  H    0.010105
    89  H    0.022750
    90  H    0.009634
    91  H   -0.002007
    92  H    0.000697
    93  H    0.023590
    94  H    0.124852
    95  H    0.073513
    96  H    0.060021
    97  H    0.048353
    98  H    0.000934
    99  H    0.036858
   100  H   -0.016597
   101  H    0.019799
   102  H    0.018155
   103  H    0.029887
   104  H    0.029864
   105  H    0.001765
   106  H   -0.022263
   107  H    0.002632
   108  H   -0.008697
   109  H   -0.008704
   110  H   -0.001446
   111  H   -0.003557
   112  H    0.008622
   113  H   -0.021219
   114  H   -0.000704
   115  H   -0.019432
   116  H   -0.034050
   117  H   -0.005820
   118  H   -0.008869
   119  H   -0.152128
   120  H   -0.014543
   121  H    0.007960
   122  H   -0.001960
   123  H    0.015043
   124  H    0.021951
   125  H   -0.000565
   126  H    0.001262
   127  H    0.009683
   128  H   -0.014560
   129  H    0.002005
   130  H    0.012150
   131  H    0.016280
   132  H    0.015817
   133  H    0.038216
   134  H   -0.000513
   135  H    0.013961
   136  H    0.046040
   137  H    0.212453
   138  H    0.196054
 Sum of Mulliken charges =  -0.00000

 Dipole moment (field-independent basis, Debye):
    X=              3.7428    Y=              3.2608    Z=              0.6140  Tot=              5.0019
 Quadrupole moment (field-independent basis, Debye-Ang):
   XX=           -346.0570   YY=           -381.5266   ZZ=           -396.8676
   XY=            -27.1786   XZ=             11.3801   YZ=             -6.8750

 Normal termination of Gaussian 16 at Tue Aug 13 06:49:32 2019.
