 Gaussian 16, Revision A.03,
 Gaussian 16:  ES64L-G16RevA.03 25-Dec-2016

 --------------------------
 # td=(NStates=1) B3LYP/SVP
 --------------------------

 --
 TD
 --
 Symbolic Z-matrix:
 Charge =  0 Multiplicity = 1

                         Standard orientation:
 ---------------------------------------------------------------------
 Center     Atomic      Atomic             Coordinates (Angstroms)
 Number     Number       Type             X           Y           Z
 ---------------------------------------------------------------------
      1          6           0       -5.144995   -1.927989    0.461990
      2          6           0       -4.773316    2.725498    1.359557
      3          6           0       -9.387505    3.347648   -0.200017
      4          6           0       -9.790553   -1.446200   -1.240129
      5          7           0       -5.171251    0.347329    0.833927
      6          6           0       -4.506246   -0.760428    0.809944
      7          6           0       -3.071453   -0.692584    1.311840
      8          6           0       -3.127899    0.715354    1.892245
      9          6           0       -4.440179    1.416648    1.242347
     10          6           0       -3.119726    0.882422    3.402572
     11          6           0       -2.065812   -0.886443    0.187917
     12          6           0       -0.638028   -0.725395    0.693322
     13          6           0        0.370373   -0.980353   -0.401813
     14          8           0        0.034021   -1.533373   -1.400348
     15          8           0        1.639793   -0.639347    0.001488
     16          7           0       -7.079035    2.774216    0.479302
     17          6           0       -5.968846    3.405270    0.962614
     18          6           0       -6.158729    4.809081    0.988260
     19          6           0       -7.476132    4.963951    0.521344
     20          6           0       -8.041463    3.663008    0.171763
     21          6           0       -5.240109    5.764803    1.561837
     22          6           0       -8.084153    6.280334    0.427865
     23          6           0       -9.051903    6.665965   -0.385112
     24          7           0       -9.228556    0.825248   -0.459547
     25          6           0       -9.866564    2.127732   -0.451440
     26          6           0      -11.297883    1.857918   -0.940835
     27          6           0      -11.471361    0.563132   -1.250984
     28          6           0      -10.063481   -0.114505   -0.906241
     29          6           0      -12.282662    2.985448   -1.047866
     30          6           0      -12.687753   -0.097488   -1.813195
     31          6           0      -12.644158   -0.430414   -3.319778
     32          7           0       -7.581337   -1.291583   -0.295940
     33          6           0       -8.578600   -2.077571   -0.765798
     34          6           0       -8.094688   -3.425598   -0.805897
     35          6           0       -6.812940   -3.396435   -0.370367
     36          6           0       -6.456525   -2.057060    0.021861
     37          6           0       -8.957719   -4.618079   -1.325181
     38          6           0       -5.625029   -4.245482   -0.001634
     39          8           0       -5.623009   -5.455375   -0.079088
     40          6           0       -4.473937   -3.323310    0.454843
     41          6           0       -3.958274   -3.831398    1.788900
     42          8           0       -4.307795   -3.352798    2.845874
     43          8           0       -3.164235   -4.843460    1.561168
     44          6           0       -2.662037   -5.597665    2.661867
     45          6           0        2.591727   -0.939074   -1.003365
     46          6           0        4.048435   -0.546032   -0.481478
     47          6           0        5.048360    0.161463   -0.999994
     48          6           0        4.870378    0.803165   -2.341050
     49          6           0        6.291504    0.393817   -0.307739
     50          6           0        7.470014   -0.389506   -0.786559
     51          6           0        8.776891   -0.141645    0.006689
     52          6           0       10.081426   -0.730338   -0.641351
     53          6           0        9.931084   -2.261253   -0.952939
     54          6           0       11.347522   -0.280979    0.073504
     55          6           0       12.646048   -0.635589   -0.584427
     56          6           0       13.851318   -0.164243    0.215903
     57          6           0       15.339344   -0.343017   -0.321395
     58          6           0       15.600949   -1.822934   -0.170282
     59          6           0       16.412272    0.519786    0.415595
     60          6           0       17.835389    0.743110   -0.255272
     61          6           0       18.726899    1.773849    0.455126
     62          6           0       20.063630    1.745381   -0.017102
     63          6           0       20.046239    1.975026   -1.641956
     64          6           0       20.971661    2.719790    0.765149
     65          1           0       -4.073070    3.302301    2.020424
     66          1           0      -10.254651    4.172953   -0.536814
     67          1           0      -10.671710   -2.188006   -1.688613
     68          1           0       -2.676393   -1.362329    2.115557
     69          1           0       -2.191793    1.196011    1.536697
     70          1           0       -2.220966    0.459507    3.832482
     71          1           0       -3.227893    1.893483    3.937108
     72          1           0       -3.902830    0.217550    3.956798
     73          1           0       -2.244353   -1.932330   -0.184446
     74          1           0       -2.175162   -0.122024   -0.654803
     75          1           0       -0.384244    0.222829    1.182138
     76          1           0       -0.168099   -1.612989    1.258543
     77          1           0       -4.412252    6.108546    0.924693
     78          1           0       -5.777491    6.614677    1.651369
     79          1           0       -4.869460    5.470116    2.457227
     80          1           0       -7.604023    7.059580    1.077738
     81          1           0       -9.637664    6.105505   -1.189505
     82          1           0       -9.369181    7.762373   -0.290050
     83          1           0      -12.502461    3.410315   -0.091802
     84          1           0      -12.115912    3.873270   -1.626321
     85          1           0      -13.181916    2.642262   -1.605242
     86          1           0      -12.859080   -0.972695   -1.419273
     87          1           0      -13.550054    0.589430   -1.709189
     88          1           0      -12.176017    0.334550   -3.965338
     89          1           0      -11.798073   -1.035458   -3.240802
     90          1           0      -13.597698   -0.890451   -3.631590
     91          1           0       -9.750729   -4.835538   -0.673434
     92          1           0       -9.248551   -4.649186   -2.222642
     93          1           0       -8.277645   -5.586865   -1.159814
     94          1           0       -3.746878   -3.572040   -0.396406
     95          1           0       -2.286418   -6.728337    2.236666
     96          1           0       -1.506494   -4.979480    2.937569
     97          1           0       -3.397826   -5.453770    3.584168
     98          1           0        2.526168   -2.082939   -1.230983
     99          1           0        2.642440   -0.252079   -2.169450
    100          1           0        4.277327   -1.166093    0.489714
    101          1           0        5.369148    1.894469   -2.273425
    102          1           0        5.403854    0.441152   -3.211213
    103          1           0        3.868716    0.742226   -2.871899
    104          1           0        6.686642    1.369866   -0.247251
    105          1           0        6.178113    0.234052    0.789156
    106          1           0        7.135213   -1.405269   -0.745047
    107          1           0        7.821944    0.038320   -1.937637
    108          1           0        8.696138    1.088314    0.303782
    109          1           0        8.690546   -0.721687    0.820657
    110          1           0       10.207232   -0.333607   -1.580413
    111          1           0        9.025487   -2.474622   -1.472178
    112          1           0       10.696222   -2.360887   -1.805667
    113          1           0       10.138982   -3.056176   -0.063679
    114          1           0       11.124639    0.775997    0.228293
    115          1           0       11.341897   -0.617163    1.185434
    116          1           0       12.773460   -1.562837   -0.795476
    117          1           0       12.878509   -0.170190   -1.542912
    118          1           0       13.648856    0.945863    0.658786
    119          1           0       13.924418   -0.528853    1.137704
    120          1           0       15.449479    0.012408   -1.425055
    121          1           0       14.995981   -2.577539   -0.558643
    122          1           0       16.737877   -2.083934   -0.382421
    123          1           0       15.703507   -2.086471    0.848992
    124          1           0       15.995986    1.608265    0.551189
    125          1           0       16.471328    0.068288    1.215262
    126          1           0       18.231484   -0.319869   -0.251457
    127          1           0       17.713159    0.891871   -1.337222
    128          1           0       18.184180    2.868410    0.392604
    129          1           0       18.569370    1.631756    1.676226
    130          1           0       20.500981    0.753759    0.252818
    131          1           0       19.726289    2.885112   -1.809953
    132          1           0       21.067873    1.944985   -2.130222
    133          1           0       19.443963    1.014007   -2.059364
    134          1           0       20.789101    2.578975    1.883472
    135          1           0       22.021595    2.433545    0.369101
    136          1           0       20.828599    3.844867    0.695411
    137          1           0       -6.886611    1.783005    0.122295
    138          1           0       -7.756873   -0.278260   -0.221314
 ---------------------------------------------------------------------

 SCF Done:  E(RB3LYP) =  -2732.99806781     A.U. after   16 cycles

 Excitation energies and oscillator strengths:

 Excited State   1:      Singlet-A      2.0646 eV  600.54 nm  f=0.2395  <S**2>=0.000
     235 -> 238       -0.26617
     236 -> 237        0.65382
 This state for optimization and/or second-order correction.
 Total Energy, E(TD-HF/TD-DFT) =  -2732.92219673
 Copying the excited state density for this state as the 1-particle RhoCI density.

 The electronic state is 1-A.
 Alpha  occ. eigenvalues --  -19.19580 -19.19089 -19.12995 -19.12847 -19.12588
 Alpha  occ. eigenvalues --  -14.37405 -14.36285 -14.31907 -14.30717 -10.32360
 Alpha  occ. eigenvalues --  -10.31652 -10.29281 -10.28310 -10.27615 -10.23917
 Alpha  occ. eigenvalues --  -10.23547 -10.23413 -10.22739 -10.22631 -10.22305
 Alpha  occ. eigenvalues --  -10.22282 -10.22173 -10.21803 -10.21292 -10.21168
 Alpha  occ. eigenvalues --  -10.20949 -10.20873 -10.20536 -10.20286 -10.20256
 Alpha  occ. eigenvalues --  -10.19980 -10.19973 -10.19928 -10.19911 -10.19810
 Alpha  occ. eigenvalues --  -10.19801 -10.19756 -10.19746 -10.19717 -10.19696
 Alpha  occ. eigenvalues --  -10.19541 -10.19338 -10.19272 -10.19271 -10.19074
 Alpha  occ. eigenvalues --  -10.19032 -10.19024 -10.18923 -10.18823 -10.18731
 Alpha  occ. eigenvalues --  -10.18699 -10.18574 -10.18544 -10.18538 -10.18433
 Alpha  occ. eigenvalues --  -10.18305 -10.18268 -10.17925 -10.17847 -10.17576
 Alpha  occ. eigenvalues --  -10.17546 -10.17444 -10.17097 -10.16967  -1.11755
 Alpha  occ. eigenvalues --   -1.10312  -1.03215  -1.02642  -1.01891  -0.98754
 Alpha  occ. eigenvalues --   -0.98111  -0.95350  -0.91440  -0.85083  -0.83517
 Alpha  occ. eigenvalues --   -0.82177  -0.82104  -0.81810  -0.81395  -0.80746
 Alpha  occ. eigenvalues --   -0.80080  -0.79907  -0.79598  -0.78559  -0.77586
 Alpha  occ. eigenvalues --   -0.77148  -0.76543  -0.76263  -0.75015  -0.74622
 Alpha  occ. eigenvalues --   -0.73646  -0.73167  -0.72369  -0.71788  -0.71524
 Alpha  occ. eigenvalues --   -0.70123  -0.69312  -0.68783  -0.68186  -0.68011
 Alpha  occ. eigenvalues --   -0.67507  -0.67156  -0.66935  -0.66584  -0.65463
 Alpha  occ. eigenvalues --   -0.63630  -0.62862  -0.62081  -0.61753  -0.61537
 Alpha  occ. eigenvalues --   -0.61212  -0.59598  -0.58360  -0.58214  -0.57118
 Alpha  occ. eigenvalues --   -0.57015  -0.56456  -0.55703  -0.55637  -0.55446
 Alpha  occ. eigenvalues --   -0.55046  -0.54962  -0.54615  -0.53379  -0.52941
 Alpha  occ. eigenvalues --   -0.52789  -0.52315  -0.51827  -0.51221  -0.50639
 Alpha  occ. eigenvalues --   -0.50576  -0.49881  -0.49487  -0.49207  -0.48601
 Alpha  occ. eigenvalues --   -0.48097  -0.47859  -0.47717  -0.47531  -0.47079
 Alpha  occ. eigenvalues --   -0.46706  -0.46375  -0.46240  -0.46192  -0.45931
 Alpha  occ. eigenvalues --   -0.45834  -0.45350  -0.45237  -0.44859  -0.44642
 Alpha  occ. eigenvalues --   -0.44602  -0.44364  -0.43915  -0.43672  -0.43631
 Alpha  occ. eigenvalues --   -0.43404  -0.43285  -0.43202  -0.42913  -0.42798
 Alpha  occ. eigenvalues --   -0.42269  -0.42167  -0.42080  -0.41821  -0.41668
 Alpha  occ. eigenvalues --   -0.41535  -0.41147  -0.40980  -0.40733  -0.40258
 Alpha  occ. eigenvalues --   -0.40211  -0.39960  -0.39835  -0.39566  -0.39482
 Alpha  occ. eigenvalues --   -0.39355  -0.38973  -0.38838  -0.38723  -0.38515
 Alpha  occ. eigenvalues --   -0.38340  -0.38179  -0.38069  -0.37787  -0.37758
 Alpha  occ. eigenvalues --   -0.37313  -0.37227  -0.37091  -0.36931  -0.36676
 Alpha  occ. eigenvalues --   -0.36419  -0.36361  -0.36160  -0.36052  -0.35883
 Alpha  occ. eigenvalues --   -0.35548  -0.35438  -0.35315  -0.35110  -0.34581
 Alpha  occ. eigenvalues --   -0.34513  -0.34160  -0.34005  -0.33746  -0.33710
 Alpha  occ. eigenvalues --   -0.33529  -0.33332  -0.33101  -0.32518  -0.32377
 Alpha  occ. eigenvalues --   -0.32261  -0.32003  -0.31820  -0.31348  -0.31259
 Alpha  occ. eigenvalues --   -0.30944  -0.30496  -0.30365  -0.30306  -0.30138
 Alpha  occ. eigenvalues --   -0.29604  -0.29511  -0.28906  -0.28713  -0.28142
 Alpha  occ. eigenvalues --   -0.27870  -0.27349  -0.26540  -0.25902  -0.25567
 Alpha  occ. eigenvalues --   -0.25105  -0.25020  -0.23676  -0.23271  -0.19837
 Alpha  occ. eigenvalues --   -0.18920
 Alpha virt. eigenvalues --   -0.10540  -0.06712  -0.03887  -0.01373  -0.00305
 Alpha virt. eigenvalues --   -0.00275   0.00392   0.00918   0.02349   0.02837
 Alpha virt. eigenvalues --    0.03507   0.04061   0.04369   0.04569   0.04980

 Mulliken charges:
               1
     1  C    0.017791
     2  C   -0.053326
     3  C   -0.131242
     4  C   -0.120177
     5  N   -0.128372
     6  C   -0.089859
     7  C   -0.053542
     8  C   -0.020436
     9  C   -0.004792
    10  C    0.030849
    11  C    0.063719
    12  C    0.012304
    13  C    0.156121
    14  O   -0.207516
    15  O   -0.300644
    16  N   -0.044599
    17  C    0.028887
    18  C   -0.161126
    19  C    0.026831
    20  C    0.090278
    21  C    0.260250
    22  C   -0.044212
    23  C   -0.077750
    24  N   -0.286839
    25  C    0.094197
    26  C   -0.110867
    27  C   -0.133159
    28  C    0.069511
    29  C    0.105165
    30  C    0.151500
    31  C    0.031841
    32  N   -0.057252
    33  C    0.043822
    34  C   -0.184588
    35  C    0.007536
    36  C    0.148563
    37  C    0.169782
    38  C    0.040046
    39  O   -0.160788
    40  C   -0.033653
    41  C    0.199002
    42  O   -0.220343
    43  O   -0.247689
    44  C    0.038699
    45  C    0.156192
    46  C   -0.127985
    47  C   -0.041733
    48  C    0.018429
    49  C    0.119952
    50  C   -0.057711
    51  C    0.046311
    52  C   -0.032696
    53  C   -0.014754
    54  C    0.034775
    55  C    0.218706
    56  C   -0.002758
    57  C   -0.062042
    58  C    0.054975
    59  C    0.087595
    60  C    0.003134
    61  C   -0.032606
    62  C   -0.070625
    63  C    0.027131
    64  C   -0.004921
    65  H   -0.006466
    66  H    0.034730
    67  H    0.047834
    68  H    0.011654
    69  H   -0.020139
    70  H   -0.005388
    71  H    0.024470
    72  H    0.024155
    73  H    0.021171
    74  H    0.022218
    75  H    0.036166
    76  H    0.038201
    77  H    0.014431
    78  H   -0.057746
    79  H   -0.001614
    80  H    0.009633
    81  H    0.041137
    82  H    0.023861
    83  H    0.014158
    84  H    0.004597
    85  H    0.003988
    86  H   -0.052363
    87  H   -0.005450
    88  H    0.003849
    89  H   -0.034191
    90  H    0.030638
    91  H    0.006021
    92  H   -0.026394
    93  H    0.034910
    94  H    0.082740
    95  H    0.091833
    96  H    0.043430
    97  H    0.091819
    98  H    0.048738
    99  H    0.044810
   100  H    0.005401
   101  H    0.021958
   102  H    0.016385
   103  H    0.014697
   104  H   -0.032642
   105  H   -0.013543
   106  H    0.002744
   107  H    0.011455
   108  H    0.016289
   109  H   -0.036102
   110  H   -0.040657
   111  H    0.005221
   112  H    0.012977
   113  H    0.036322
   114  H   -0.015179
   115  H   -0.009616
   116  H   -0.079029
   117  H   -0.020007
   118  H   -0.022988
   119  H   -0.063014
   120  H   -0.004130
   121  H    0.004446
   122  H   -0.004585
   123  H   -0.025036
   124  H    0.005553
   125  H   -0.083271
   126  H   -0.010380
   127  H    0.007737
   128  H    0.007774
   129  H    0.009424
   130  H    0.003018
   131  H   -0.018129
   132  H    0.007065
   133  H    0.047476
   134  H    0.011819
   135  H    0.023091
   136  H    0.011194
   137  H    0.186241
   138  H    0.135288
 Sum of Mulliken charges =  -0.00000

 Dipole moment (field-independent basis, Debye):
    X=              3.1543    Y=              2.2672    Z=              0.2398  Tot=              3.8920
 Quadrupole moment (field-independent basis, Debye-Ang):
   XX=           -363.4051   YY=           -377.8258   ZZ=           -394.9985
   XY=            -22.0919   XZ=             12.4531   YZ=             -2.1464

 Normal termination of Gaussian 16 at Mon Aug 12 04:29:00 2019.
