 Gaussian 16, Revision A.03,
 Gaussian 16:  ES64L-G16RevA.03 25-Dec-2016

 --------------------------
 # td=(NStates=1) B3LYP/SVP
 --------------------------

 --
 TD
 --
 Symbolic Z-matrix:
 Charge =  0 Multiplicity = 1

                         Standard orientation:
 ---------------------------------------------------------------------
 Center     Atomic      Atomic             Coordinates (Angstroms)
 Number     Number       Type             X           Y           Z
 ---------------------------------------------------------------------
      1          6           0       -5.160163   -1.925729    0.415176
      2          6           0       -4.702376    2.790892    1.280016
      3          6           0       -9.363716    3.252065   -0.184670
      4          6           0       -9.794323   -1.491700   -1.008342
      5          7           0       -5.080682    0.473716    0.656194
      6          6           0       -4.475365   -0.688104    0.784116
      7          6           0       -2.964644   -0.549168    1.347787
      8          6           0       -3.004082    0.897404    1.809990
      9          6           0       -4.305626    1.424797    1.220539
     10          6           0       -2.996326    1.026628    3.316166
     11          6           0       -2.003704   -0.814845    0.272590
     12          6           0       -0.590175   -0.857705    0.653755
     13          6           0        0.445864   -1.131859   -0.562562
     14          8           0        0.120108   -1.410712   -1.628508
     15          8           0        1.666047   -0.869736   -0.162144
     16          7           0       -7.137835    2.705665    0.532053
     17          6           0       -5.970543    3.330509    1.022677
     18          6           0       -6.355847    4.804988    1.058997
     19          6           0       -7.632224    4.930698    0.602486
     20          6           0       -8.080790    3.659364    0.190116
     21          6           0       -5.422262    5.914082    1.538961
     22          6           0       -8.272596    6.180608    0.494439
     23          6           0       -9.277170    6.595601   -0.368286
     24          7           0       -9.159908    0.784905   -0.575914
     25          6           0       -9.881831    1.996499   -0.556637
     26          6           0      -11.291906    1.776427   -1.027346
     27          6           0      -11.430009    0.409109   -1.225152
     28          6           0      -10.101380   -0.117583   -0.940815
     29          6           0      -12.318507    2.834651   -1.199489
     30          6           0      -12.656724   -0.265324   -1.790009
     31          6           0      -12.750793   -0.268759   -3.288940
     32          7           0       -7.508845   -1.239258   -0.248022
     33          6           0       -8.570829   -2.092762   -0.693407
     34          6           0       -8.101173   -3.485932   -0.656283
     35          6           0       -6.787809   -3.385485   -0.283825
     36          6           0       -6.390768   -2.074113   -0.033923
     37          6           0       -8.990040   -4.633392   -1.020021
     38          6           0       -5.677909   -4.298507   -0.015726
     39          8           0       -5.625507   -5.479231   -0.127560
     40          6           0       -4.487321   -3.301217    0.476583
     41          6           0       -3.917038   -3.690294    1.818950
     42          8           0       -4.281107   -3.295215    2.900383
     43          8           0       -3.016777   -4.591705    1.596595
     44          6           0       -2.482682   -5.111932    2.895557
     45          6           0        2.753813   -1.232177   -1.221008
     46          6           0        4.027299   -0.749198   -0.562398
     47          6           0        5.036207   -0.072963   -1.197801
     48          6           0        4.920259    0.551905   -2.600336
     49          6           0        6.281356    0.220375   -0.350383
     50          6           0        7.587238   -0.392014   -0.929141
     51          6           0        8.727896   -0.273803    0.051820
     52          6           0       10.052572   -0.723166   -0.512297
     53          6           0       10.020361   -2.321536   -0.526259
     54          6           0       11.276269   -0.306264    0.250084
     55          6           0       12.629051   -0.561075   -0.423369
     56          6           0       13.839657    0.007988    0.297260
     57          6           0       15.180331   -0.190174   -0.358417
     58          6           0       15.586940   -1.740291   -0.351889
     59          6           0       16.278516    0.674185    0.363006
     60          6           0       17.718908    0.914961   -0.404264
     61          6           0       18.751183    1.645667    0.500815
     62          6           0       20.164081    1.675545   -0.044661
     63          6           0       20.212276    2.119239   -1.527580
     64          6           0       20.930814    2.668316    0.788802
     65          1           0       -4.009277    3.461381    1.648679
     66          1           0      -10.261434    3.953846   -0.385344
     67          1           0      -10.682058   -2.253725   -1.174472
     68          1           0       -2.653799   -1.412487    2.046731
     69          1           0       -2.035659    1.417172    1.260395
     70          1           0       -2.005405    0.645111    3.750851
     71          1           0       -3.203064    2.169528    3.712700
     72          1           0       -3.804946    0.445002    3.687200
     73          1           0       -2.043487   -1.938643   -0.113904
     74          1           0       -2.069067   -0.166855   -0.796516
     75          1           0       -0.333725   -0.050644    1.269781
     76          1           0       -0.361262   -1.731089    1.316074
     77          1           0       -4.622184    5.908438    0.934124
     78          1           0       -5.942066    6.897754    1.498715
     79          1           0       -5.183264    5.857498    2.702266
     80          1           0       -7.628149    7.254567    0.778472
     81          1           0       -9.907074    5.837923   -1.067225
     82          1           0       -9.622101    7.634428   -0.260619
     83          1           0      -12.728575    3.336629   -0.398987
     84          1           0      -12.045951    3.457168   -2.091284
     85          1           0      -13.214914    2.120342   -1.305510
     86          1           0      -12.818891   -1.190254   -1.124634
     87          1           0      -13.496523    0.342794   -1.447596
     88          1           0      -12.985289    1.061267   -3.470160
     89          1           0      -11.908064   -0.755611   -3.938065
     90          1           0      -13.655633   -0.824620   -3.756692
     91          1           0       -9.890316   -4.556647   -0.289407
     92          1           0       -9.403033   -4.372948   -1.936712
     93          1           0       -8.354180   -5.549592   -1.091976
     94          1           0       -3.628269   -3.125901   -0.375919
     95          1           0       -1.752340   -5.977906    2.739826
     96          1           0       -2.002388   -4.162530    3.426515
     97          1           0       -3.362814   -5.529617    3.492816
     98          1           0        2.628628   -2.217154   -1.372593
     99          1           0        2.586449   -0.618587   -2.057167
    100          1           0        4.182786   -1.463851    0.289246
    101          1           0        5.309043    1.608960   -2.626100
    102          1           0        5.496066   -0.195520   -3.432574
    103          1           0        3.831892    0.496103   -2.761129
    104          1           0        6.264927    1.439402   -0.237481
    105          1           0        6.105427    0.012841    0.667982
    106          1           0        7.405422   -1.506321   -1.063975
    107          1           0        7.795419   -0.006693   -1.970936
    108          1           0        8.838521    0.782731    0.441300
    109          1           0        8.453861   -0.999803    0.988092
    110          1           0       10.166933   -0.365702   -1.580311
    111          1           0        8.951391   -2.490512   -0.993485
    112          1           0       10.884674   -2.831395   -1.048540
    113          1           0        9.962996   -2.611310    0.508735
    114          1           0       11.212150    0.760053    0.515341
    115          1           0       11.398758   -0.850206    1.155206
    116          1           0       12.638208   -1.531110   -0.511279
    117          1           0       12.529443   -0.100391   -1.496470
    118          1           0       13.653473    1.137350    0.437330
    119          1           0       13.748840   -0.227226    1.413869
    120          1           0       15.089128    0.005015   -1.436171
    121          1           0       14.576413   -2.350483   -0.653012
    122          1           0       16.357569   -1.935787   -1.285525
    123          1           0       15.890880   -2.137380    0.723362
    124          1           0       16.026309    1.711046    0.680417
    125          1           0       16.535883    0.173287    1.565521
    126          1           0       18.282683   -0.075103   -0.619583
    127          1           0       17.527428    1.401323   -1.371930
    128          1           0       18.413769    2.642579    0.666668
    129          1           0       18.769907    1.044724    1.321759
    130          1           0       20.528504    0.557603    0.215567
    131          1           0       19.434911    3.216968   -1.755403
    132          1           0       21.074895    2.459121   -2.115647
    133          1           0       20.074264    1.284410   -2.234280
    134          1           0       21.214727    2.377260    1.935372
    135          1           0       22.057378    2.712186    0.548392
    136          1           0       20.667432    3.735464    0.883249
    137          1           0       -7.257777    1.634392    0.146024
    138          1           0       -7.659087   -0.115074   -0.412995
 ---------------------------------------------------------------------

 SCF Done:  E(RB3LYP) =  -2733.04561475     A.U. after   16 cycles

 Excitation energies and oscillator strengths:

 Excited State   1:      Singlet-A      2.0616 eV  601.41 nm  f=0.1215  <S**2>=0.000
     235 -> 238       -0.35308
     236 -> 237        0.61033
 This state for optimization and/or second-order correction.
 Total Energy, E(TD-HF/TD-DFT) =  -2732.96985338
 Copying the excited state density for this state as the 1-particle RhoCI density.

 The electronic state is 1-A.
 Alpha  occ. eigenvalues --  -19.18747 -19.16813 -19.12787 -19.12007 -19.11811
 Alpha  occ. eigenvalues --  -14.37345 -14.35109 -14.32306 -14.30671 -10.30990
 Alpha  occ. eigenvalues --  -10.30424 -10.27892 -10.26596 -10.24309 -10.24195
 Alpha  occ. eigenvalues --  -10.23309 -10.23155 -10.22841 -10.22757 -10.21971
 Alpha  occ. eigenvalues --  -10.21852 -10.21848 -10.21844 -10.21393 -10.21392
 Alpha  occ. eigenvalues --  -10.21346 -10.21314 -10.21260 -10.21220 -10.20891
 Alpha  occ. eigenvalues --  -10.20884 -10.20871 -10.20776 -10.20525 -10.20441
 Alpha  occ. eigenvalues --  -10.20286 -10.20269 -10.20178 -10.20166 -10.20095
 Alpha  occ. eigenvalues --  -10.19988 -10.19953 -10.19937 -10.19904 -10.19820
 Alpha  occ. eigenvalues --  -10.19778 -10.19701 -10.19697 -10.19447 -10.19424
 Alpha  occ. eigenvalues --  -10.19310 -10.19124 -10.19071 -10.19040 -10.18994
 Alpha  occ. eigenvalues --  -10.18968 -10.18946 -10.18921 -10.18829 -10.18571
 Alpha  occ. eigenvalues --  -10.18276 -10.17431 -10.17296 -10.16868  -1.11007
 Alpha  occ. eigenvalues --   -1.10284  -1.04379  -1.01474  -1.00541  -0.96367
 Alpha  occ. eigenvalues --   -0.95434  -0.94726  -0.92546  -0.84477  -0.83002
 Alpha  occ. eigenvalues --   -0.82149  -0.81815  -0.81614  -0.81118  -0.80333
 Alpha  occ. eigenvalues --   -0.79863  -0.79833  -0.79488  -0.78233  -0.77290
 Alpha  occ. eigenvalues --   -0.76659  -0.75168  -0.75053  -0.74406  -0.73821
 Alpha  occ. eigenvalues --   -0.73006  -0.72849  -0.72126  -0.71478  -0.70486
 Alpha  occ. eigenvalues --   -0.69693  -0.69095  -0.67998  -0.67700  -0.67192
 Alpha  occ. eigenvalues --   -0.66943  -0.66190  -0.65244  -0.64944  -0.64713
 Alpha  occ. eigenvalues --   -0.63983  -0.62019  -0.61494  -0.61033  -0.60755
 Alpha  occ. eigenvalues --   -0.60424  -0.59046  -0.57931  -0.57304  -0.56698
 Alpha  occ. eigenvalues --   -0.56415  -0.55853  -0.55367  -0.54891  -0.54820
 Alpha  occ. eigenvalues --   -0.54651  -0.54417  -0.53281  -0.52652  -0.52382
 Alpha  occ. eigenvalues --   -0.51766  -0.51247  -0.51156  -0.50472  -0.50325
 Alpha  occ. eigenvalues --   -0.49712  -0.49028  -0.49026  -0.48759  -0.48216
 Alpha  occ. eigenvalues --   -0.47828  -0.47674  -0.47525  -0.47319  -0.46813
 Alpha  occ. eigenvalues --   -0.46622  -0.46505  -0.46131  -0.45945  -0.45253
 Alpha  occ. eigenvalues --   -0.45146  -0.45114  -0.44969  -0.44589  -0.44447
 Alpha  occ. eigenvalues --   -0.44219  -0.44119  -0.43818  -0.43567  -0.43366
 Alpha  occ. eigenvalues --   -0.42884  -0.42739  -0.42701  -0.42443  -0.42292
 Alpha  occ. eigenvalues --   -0.42205  -0.42110  -0.42030  -0.41864  -0.41658
 Alpha  occ. eigenvalues --   -0.41216  -0.40754  -0.40478  -0.40284  -0.40136
 Alpha  occ. eigenvalues --   -0.39816  -0.39630  -0.39405  -0.39299  -0.39180
 Alpha  occ. eigenvalues --   -0.39073  -0.38711  -0.38580  -0.38452  -0.37946
 Alpha  occ. eigenvalues --   -0.37916  -0.37905  -0.37820  -0.37640  -0.37479
 Alpha  occ. eigenvalues --   -0.37041  -0.36977  -0.36942  -0.36555  -0.36500
 Alpha  occ. eigenvalues --   -0.36427  -0.36394  -0.36370  -0.35877  -0.35444
 Alpha  occ. eigenvalues --   -0.35210  -0.35039  -0.34788  -0.34636  -0.34516
 Alpha  occ. eigenvalues --   -0.34178  -0.34098  -0.33799  -0.33624  -0.33288
 Alpha  occ. eigenvalues --   -0.33253  -0.32575  -0.32546  -0.32424  -0.31860
 Alpha  occ. eigenvalues --   -0.31713  -0.31689  -0.31597  -0.31505  -0.31377
 Alpha  occ. eigenvalues --   -0.31244  -0.31026  -0.30896  -0.30381  -0.30182
 Alpha  occ. eigenvalues --   -0.30170  -0.29907  -0.29413  -0.28251  -0.28118
 Alpha  occ. eigenvalues --   -0.27698  -0.27528  -0.26929  -0.26011  -0.25517
 Alpha  occ. eigenvalues --   -0.25323  -0.24869  -0.23125  -0.23018  -0.19451
 Alpha  occ. eigenvalues --   -0.18233
 Alpha virt. eigenvalues --   -0.09299  -0.07903  -0.04221  -0.02129  -0.02014
 Alpha virt. eigenvalues --    0.00117   0.01127   0.01974   0.02902   0.03162
 Alpha virt. eigenvalues --    0.03580   0.03722   0.03815   0.03957   0.04157

 Mulliken charges:
               1
     1  C   -0.049228
     2  C   -0.018601
     3  C   -0.084703
     4  C   -0.140491
     5  N   -0.113516
     6  C   -0.069972
     7  C   -0.010188
     8  C   -0.015417
     9  C   -0.027174
    10  C    0.042313
    11  C   -0.079317
    12  C    0.038433
    13  C    0.133378
    14  O   -0.175841
    15  O   -0.333104
    16  N   -0.163551
    17  C    0.126706
    18  C   -0.182699
    19  C    0.133637
    20  C    0.112641
    21  C    0.131067
    22  C   -0.134321
    23  C   -0.094737
    24  N   -0.298247
    25  C    0.023072
    26  C   -0.144833
    27  C   -0.111936
    28  C    0.087127
    29  C    0.126009
    30  C    0.103872
    31  C   -0.068982
    32  N   -0.196719
    33  C    0.072402
    34  C   -0.163724
    35  C   -0.020724
    36  C    0.191658
    37  C    0.144757
    38  C    0.082264
    39  O   -0.128460
    40  C   -0.137603
    41  C    0.195808
    42  O   -0.235413
    43  O   -0.269099
    44  C    0.118942
    45  C    0.330786
    46  C   -0.102232
    47  C   -0.153533
    48  C    0.036931
    49  C    0.073822
    50  C    0.003854
    51  C    0.002399
    52  C   -0.083543
    53  C   -0.005455
    54  C    0.066685
    55  C    0.081195
    56  C    0.006780
    57  C    0.017307
    58  C   -0.081332
    59  C   -0.039143
    60  C   -0.006755
    61  C    0.094938
    62  C   -0.066848
    63  C   -0.024536
    64  C   -0.024046
    65  H   -0.060403
    66  H   -0.007966
    67  H   -0.001072
    68  H    0.018274
    69  H    0.030342
    70  H    0.026414
    71  H    0.029715
    72  H    0.024312
    73  H    0.027954
    74  H    0.037779
    75  H   -0.011412
    76  H    0.006621
    77  H    0.009675
    78  H    0.000587
    79  H    0.042139
    80  H    0.042715
    81  H    0.052493
    82  H    0.032738
    83  H    0.007181
    84  H    0.047472
    85  H   -0.009440
    86  H    0.011416
    87  H   -0.007665
    88  H    0.031405
    89  H    0.044670
    90  H    0.029475
    91  H    0.043229
    92  H    0.006249
    93  H    0.051505
    94  H    0.097427
    95  H    0.054277
    96  H    0.061165
    97  H    0.061658
    98  H    0.003026
    99  H   -0.001424
   100  H    0.010960
   101  H    0.041748
   102  H    0.062153
   103  H    0.017321
   104  H    0.015265
   105  H   -0.020408
   106  H    0.017100
   107  H    0.012432
   108  H    0.003000
   109  H    0.012144
   110  H   -0.006124
   111  H    0.009401
   112  H    0.038678
   113  H    0.000867
   114  H   -0.022200
   115  H   -0.031876
   116  H   -0.064235
   117  H   -0.008124
   118  H   -0.011891
   119  H   -0.008835
   120  H   -0.005920
   121  H    0.022501
   122  H    0.040231
   123  H    0.036619
   124  H    0.006320
   125  H    0.002315
   126  H   -0.002753
   127  H    0.010758
   128  H   -0.013849
   129  H   -0.028469
   130  H    0.020019
   131  H    0.021430
   132  H    0.006350
   133  H    0.010436
   134  H    0.002591
   135  H   -0.000613
   136  H    0.017491
   137  H    0.215939
   138  H    0.215934
 Sum of Mulliken charges =  -0.00000

 Dipole moment (field-independent basis, Debye):
    X=              3.9945    Y=              2.4498    Z=             -0.0894  Tot=              4.6868
 Quadrupole moment (field-independent basis, Debye-Ang):
   XX=           -349.1177   YY=           -383.8880   ZZ=           -395.7458
   XY=            -14.6221   XZ=              4.1410   YZ=             -2.9811

 Normal termination of Gaussian 16 at Sat Aug 10 16:39:00 2019.
