 Gaussian 16, Revision A.03,
 Gaussian 16:  ES64L-G16RevA.03 25-Dec-2016

 --------------------------
 # td=(NStates=1) B3LYP/SVP
 --------------------------

 --
 TD
 --
 Symbolic Z-matrix:
 Charge =  0 Multiplicity = 1

                         Standard orientation:
 ---------------------------------------------------------------------
 Center     Atomic      Atomic             Coordinates (Angstroms)
 Number     Number       Type             X           Y           Z
 ---------------------------------------------------------------------
      1          6           0       -5.296186   -1.922867    0.393480
      2          6           0       -4.689501    2.632226    1.675449
      3          6           0       -9.192921    3.440231   -0.167901
      4          6           0       -9.797498   -1.241749   -1.111116
      5          7           0       -5.190090    0.383478    0.866587
      6          6           0       -4.577762   -0.826864    0.837988
      7          6           0       -3.133048   -0.647779    1.306097
      8          6           0       -2.997565    0.745555    1.919462
      9          6           0       -4.431004    1.281806    1.390182
     10          6           0       -3.059941    0.598243    3.496092
     11          6           0       -2.131171   -0.775536    0.098629
     12          6           0       -0.668643   -0.884864    0.628552
     13          6           0        0.301734   -1.090516   -0.531915
     14          8           0       -0.020141   -1.504389   -1.629980
     15          8           0        1.607894   -0.949147   -0.165407
     16          7           0       -6.913614    2.831910    0.646630
     17          6           0       -5.823296    3.460109    1.186427
     18          6           0       -6.017145    4.774701    1.192781
     19          6           0       -7.333135    5.029526    0.639993
     20          6           0       -7.825136    3.751259    0.250376
     21          6           0       -5.142112    5.759803    1.782001
     22          6           0       -7.899362    6.288326    0.447340
     23          6           0       -8.772871    6.738078   -0.531604
     24          7           0       -9.109055    1.017477   -0.498051
     25          6           0       -9.751043    2.199027   -0.564053
     26          6           0      -11.134587    2.172840   -1.075349
     27          6           0      -11.308055    0.837782   -1.443269
     28          6           0       -9.968455    0.190594   -1.091695
     29          6           0      -12.172350    3.238510   -1.239987
     30          6           0      -12.446112    0.094148   -2.029937
     31          6           0      -12.224928   -0.300670   -3.603403
     32          7           0       -7.423488   -1.199184   -0.330263
     33          6           0       -8.544194   -1.883854   -0.800095
     34          6           0       -8.267309   -3.358898   -0.781224
     35          6           0       -6.909524   -3.371525   -0.363146
     36          6           0       -6.503064   -2.041794   -0.097587
     37          6           0       -9.297627   -4.457026   -1.017386
     38          6           0       -5.862839   -4.275831    0.076778
     39          8           0       -5.981275   -5.472156    0.053033
     40          6           0       -4.623261   -3.413121    0.619507
     41          6           0       -4.114700   -3.893793    1.918471
     42          8           0       -4.415466   -3.416289    2.930038
     43          8           0       -3.285410   -4.907920    1.681460
     44          6           0       -2.928946   -5.606077    2.921877
     45          6           0        2.619937   -1.169065   -1.276586
     46          6           0        4.036329   -1.016818   -0.552168
     47          6           0        4.942526   -0.267121   -0.979224
     48          6           0        4.952965    0.653062   -2.283981
     49          6           0        6.314304   -0.131398   -0.220925
     50          6           0        7.577004   -0.554596   -0.943347
     51          6           0        8.794057   -0.531490   -0.218865
     52          6           0       10.069326   -0.912419   -0.899030
     53          6           0       10.146111   -2.389241   -1.163995
     54          6           0       11.315636   -0.374895   -0.118295
     55          6           0       12.615170   -0.653945   -0.634839
     56          6           0       13.759028   -0.127818    0.047705
     57          6           0       15.200105   -0.240692   -0.528252
     58          6           0       15.717992   -1.618822   -0.607264
     59          6           0       16.205782    0.632436    0.255984
     60          6           0       17.625692    0.890492   -0.147585
     61          6           0       18.572983    1.733952    0.760978
     62          6           0       20.070914    1.879323    0.115465
     63          6           0       20.166721    2.758677   -1.132446
     64          6           0       20.830367    2.487905    1.199295
     65          1           0       -3.887945    3.139534    2.141142
     66          1           0       -9.673245    4.255813   -0.391728
     67          1           0      -10.808831   -1.853410   -1.183449
     68          1           0       -2.866373   -1.435008    2.031628
     69          1           0       -2.204744    1.354436    1.530635
     70          1           0       -2.058067    0.263707    3.683924
     71          1           0       -3.222035    1.609770    3.962642
     72          1           0       -3.810546   -0.115796    3.927528
     73          1           0       -2.413981   -1.564629   -0.642111
     74          1           0       -2.159719    0.027804   -0.765218
     75          1           0       -0.385383    0.006202    1.051524
     76          1           0       -0.623470   -1.622295    1.393888
     77          1           0       -3.948961    5.465591    1.402050
     78          1           0       -5.649988    6.735818    1.494946
     79          1           0       -5.299799    5.799802    2.913543
     80          1           0       -7.682117    7.051666    1.317005
     81          1           0       -9.127927    6.112742   -1.383159
     82          1           0       -9.259503    7.599669   -0.300795
     83          1           0      -12.269514    3.721975   -0.318156
     84          1           0      -11.724829    3.979797   -1.755436
     85          1           0      -13.110589    3.185896   -1.763448
     86          1           0      -12.652655   -0.805698   -1.488917
     87          1           0      -13.396666    0.778103   -1.725554
     88          1           0      -12.248725    0.556120   -4.316273
     89          1           0      -11.299709   -0.830982   -3.735905
     90          1           0      -13.045805   -1.005808   -4.080695
     91          1           0      -10.036431   -4.699875   -0.162926
     92          1           0       -9.928467   -4.573012   -2.146515
     93          1           0       -8.821488   -5.455743   -1.016120
     94          1           0       -3.778932   -3.730401   -0.136391
     95          1           0       -2.213750   -6.323569    2.674748
     96          1           0       -2.536663   -4.800401    3.363375
     97          1           0       -3.902666   -5.856074    3.584858
     98          1           0        2.450784   -2.207122   -1.649046
     99          1           0        2.373301   -0.371559   -1.953088
    100          1           0        3.937400   -1.420712    0.452149
    101          1           0        5.418898    1.592621   -2.025849
    102          1           0        5.344220    0.056642   -3.053784
    103          1           0        3.945670    0.812752   -2.648746
    104          1           0        6.519934    0.877654   -0.077408
    105          1           0        6.107537   -0.597698    0.819493
    106          1           0        7.530953   -1.694667   -1.397062
    107          1           0        7.702413   -0.160359   -2.002322
    108          1           0        8.793820    0.602799    0.240268
    109          1           0        8.737950   -1.197895    0.665000
    110          1           0       10.038722   -0.396269   -1.746901
    111          1           0        9.373761   -2.748171   -1.795857
    112          1           0       11.050794   -2.837464   -1.669793
    113          1           0        9.916858   -3.271162   -0.380336
    114          1           0       10.911383    0.827623    0.163278
    115          1           0       11.269810   -0.989969    0.753450
    116          1           0       12.727611   -1.721780   -0.928516
    117          1           0       12.580071   -0.417772   -1.761649
    118          1           0       13.676672    0.955070    0.214568
    119          1           0       14.136003   -0.439599    1.102084
    120          1           0       15.430369    0.101221   -1.532379
    121          1           0       14.861013   -2.128913   -1.229162
    122          1           0       16.594046   -1.831156   -1.328314
    123          1           0       15.811268   -2.063676    0.338927
    124          1           0       15.759465    1.651402    0.251961
    125          1           0       16.088680    0.323132    1.419169
    126          1           0       18.097722   -0.103868   -0.347735
    127          1           0       17.696589    1.304345   -1.126251
    128          1           0       18.404103    2.753824    0.766327
    129          1           0       18.563282    1.422308    1.814038
    130          1           0       20.527019    0.871105    0.029213
    131          1           0       19.674294    3.744898   -0.832182
    132          1           0       21.295630    2.748270   -1.510146
    133          1           0       19.720571    2.236624   -1.907416
    134          1           0       20.620820    1.902829    2.150275
    135          1           0       21.947678    2.649997    0.805657
    136          1           0       20.596280    3.621450    1.437213
    137          1           0       -7.224251    1.822998    0.670276
    138          1           0       -7.687057   -0.213214   -0.124145
 ---------------------------------------------------------------------

 SCF Done:  E(RB3LYP) =  -2733.03595078     A.U. after   17 cycles

 Excitation energies and oscillator strengths:

 Excited State   1:      Singlet-A      2.0163 eV  614.92 nm  f=0.1834  <S**2>=0.000
     235 -> 237       -0.26610
     235 -> 238       -0.26622
     236 -> 237        0.57474
     236 -> 238       -0.15279
 This state for optimization and/or second-order correction.
 Total Energy, E(TD-HF/TD-DFT) =  -2732.96185452
 Copying the excited state density for this state as the 1-particle RhoCI density.

 The electronic state is 1-A.
 Alpha  occ. eigenvalues --  -19.17816 -19.17007 -19.12614 -19.12007 -19.11966
 Alpha  occ. eigenvalues --  -14.37095 -14.36197 -14.31417 -14.31122 -10.31158
 Alpha  occ. eigenvalues --  -10.30932 -10.27563 -10.25342 -10.24263 -10.24238
 Alpha  occ. eigenvalues --  -10.23164 -10.22926 -10.22903 -10.22656 -10.22396
 Alpha  occ. eigenvalues --  -10.22191 -10.22028 -10.22004 -10.21908 -10.21461
 Alpha  occ. eigenvalues --  -10.21184 -10.21046 -10.20825 -10.20770 -10.20266
 Alpha  occ. eigenvalues --  -10.20007 -10.19990 -10.19980 -10.19941 -10.19652
 Alpha  occ. eigenvalues --  -10.19642 -10.19637 -10.19562 -10.19555 -10.19495
 Alpha  occ. eigenvalues --  -10.19315 -10.19227 -10.19205 -10.19015 -10.18971
 Alpha  occ. eigenvalues --  -10.18949 -10.18941 -10.18896 -10.18863 -10.18828
 Alpha  occ. eigenvalues --  -10.18725 -10.18722 -10.18636 -10.18609 -10.18548
 Alpha  occ. eigenvalues --  -10.18543 -10.18475 -10.18370 -10.18340 -10.18278
 Alpha  occ. eigenvalues --  -10.18031 -10.17957 -10.17949 -10.17745  -1.11141
 Alpha  occ. eigenvalues --   -1.07569  -1.03248  -1.02976  -1.00667  -0.99037
 Alpha  occ. eigenvalues --   -0.98319  -0.95175  -0.94903  -0.84667  -0.84105
 Alpha  occ. eigenvalues --   -0.82554  -0.81795  -0.81623  -0.80767  -0.80620
 Alpha  occ. eigenvalues --   -0.80521  -0.79932  -0.79576  -0.78521  -0.78168
 Alpha  occ. eigenvalues --   -0.76902  -0.76264  -0.75857  -0.75295  -0.74135
 Alpha  occ. eigenvalues --   -0.73643  -0.73306  -0.72192  -0.71825  -0.70226
 Alpha  occ. eigenvalues --   -0.69708  -0.69431  -0.69019  -0.68844  -0.67991
 Alpha  occ. eigenvalues --   -0.67745  -0.67663  -0.66531  -0.66049  -0.65833
 Alpha  occ. eigenvalues --   -0.64253  -0.63757  -0.62780  -0.62409  -0.62390
 Alpha  occ. eigenvalues --   -0.61485  -0.59164  -0.58111  -0.58019  -0.56975
 Alpha  occ. eigenvalues --   -0.56853  -0.56564  -0.56223  -0.55397  -0.55131
 Alpha  occ. eigenvalues --   -0.55032  -0.54853  -0.54240  -0.53215  -0.53164
 Alpha  occ. eigenvalues --   -0.52704  -0.52072  -0.51629  -0.50995  -0.50479
 Alpha  occ. eigenvalues --   -0.49808  -0.49563  -0.49396  -0.48951  -0.48460
 Alpha  occ. eigenvalues --   -0.48190  -0.48112  -0.47581  -0.47243  -0.47150
 Alpha  occ. eigenvalues --   -0.46655  -0.46490  -0.46333  -0.45864  -0.45812
 Alpha  occ. eigenvalues --   -0.45385  -0.45299  -0.45164  -0.45100  -0.44671
 Alpha  occ. eigenvalues --   -0.44533  -0.44174  -0.44150  -0.44108  -0.43785
 Alpha  occ. eigenvalues --   -0.43660  -0.43317  -0.43060  -0.42949  -0.42704
 Alpha  occ. eigenvalues --   -0.42585  -0.42231  -0.42002  -0.41707  -0.41673
 Alpha  occ. eigenvalues --   -0.41481  -0.41166  -0.41031  -0.40757  -0.40659
 Alpha  occ. eigenvalues --   -0.40290  -0.40097  -0.39877  -0.39705  -0.39467
 Alpha  occ. eigenvalues --   -0.39192  -0.39125  -0.39023  -0.38890  -0.38676
 Alpha  occ. eigenvalues --   -0.38504  -0.38198  -0.38077  -0.38028  -0.37763
 Alpha  occ. eigenvalues --   -0.37750  -0.37616  -0.37400  -0.36958  -0.36814
 Alpha  occ. eigenvalues --   -0.36472  -0.36454  -0.36300  -0.36129  -0.36003
 Alpha  occ. eigenvalues --   -0.35884  -0.35648  -0.35435  -0.35245  -0.34886
 Alpha  occ. eigenvalues --   -0.34791  -0.34656  -0.34467  -0.34401  -0.33901
 Alpha  occ. eigenvalues --   -0.33736  -0.33595  -0.33293  -0.33098  -0.32697
 Alpha  occ. eigenvalues --   -0.32075  -0.31485  -0.31082  -0.30931  -0.30723
 Alpha  occ. eigenvalues --   -0.30648  -0.30443  -0.30105  -0.29834  -0.29637
 Alpha  occ. eigenvalues --   -0.29108  -0.28501  -0.28388  -0.28283  -0.27880
 Alpha  occ. eigenvalues --   -0.27757  -0.27474  -0.26803  -0.26792  -0.26206
 Alpha  occ. eigenvalues --   -0.25890  -0.24605  -0.23277  -0.22701  -0.19445
 Alpha  occ. eigenvalues --   -0.18959
 Alpha virt. eigenvalues --   -0.10636  -0.07553  -0.04300  -0.01993   0.00149
 Alpha virt. eigenvalues --    0.00443   0.01202   0.01915   0.02686   0.04038
 Alpha virt. eigenvalues --    0.04242   0.04431   0.04473   0.04579   0.04926

 Mulliken charges:
               1
     1  C    0.022216
     2  C   -0.036698
     3  C    0.023131
     4  C   -0.111737
     5  N   -0.115434
     6  C   -0.136984
     7  C    0.037437
     8  C   -0.067279
     9  C   -0.041941
    10  C    0.057204
    11  C   -0.041242
    12  C    0.139476
    13  C    0.168320
    14  O   -0.247956
    15  O   -0.362169
    16  N   -0.061674
    17  C    0.108371
    18  C   -0.129453
    19  C    0.065388
    20  C    0.011502
    21  C    0.030945
    22  C   -0.146029
    23  C    0.005765
    24  N   -0.216031
    25  C    0.085751
    26  C   -0.165304
    27  C   -0.111947
    28  C    0.039886
    29  C    0.241102
    30  C    0.047645
    31  C   -0.023221
    32  N    0.055312
    33  C    0.026665
    34  C   -0.077410
    35  C    0.011523
    36  C    0.113655
    37  C   -0.017468
    38  C    0.024231
    39  O   -0.155779
    40  C   -0.082988
    41  C    0.173042
    42  O   -0.176570
    43  O   -0.320003
    44  C    0.239538
    45  C    0.257524
    46  C   -0.102140
    47  C   -0.119007
    48  C    0.122535
    49  C    0.126181
    50  C   -0.022726
    51  C   -0.007382
    52  C    0.060640
    53  C   -0.014748
    54  C    0.011393
    55  C    0.113108
    56  C    0.063094
    57  C   -0.068186
    58  C    0.029866
    59  C   -0.025307
    60  C    0.101402
    61  C    0.030753
    62  C   -0.128937
    63  C    0.051058
    64  C   -0.012753
    65  H   -0.049890
    66  H   -0.139531
    67  H    0.039873
    68  H   -0.000733
    69  H    0.003262
    70  H    0.002644
    71  H    0.013667
    72  H    0.049027
    73  H    0.019911
    74  H    0.011384
    75  H   -0.012084
    76  H    0.021561
    77  H    0.062585
    78  H    0.015500
    79  H    0.037000
    80  H    0.027650
    81  H    0.039995
    82  H   -0.003442
    83  H   -0.012790
    84  H   -0.033542
    85  H    0.013583
    86  H    0.001174
    87  H    0.018377
    88  H    0.022297
    89  H    0.020713
    90  H    0.018789
    91  H    0.050848
    92  H    0.056537
    93  H    0.027785
    94  H    0.073048
    95  H    0.026887
    96  H   -0.013181
    97  H    0.060367
    98  H    0.045668
    99  H    0.021163
   100  H    0.003739
   101  H    0.027793
   102  H    0.020320
   103  H   -0.010827
   104  H   -0.024010
   105  H    0.008797
   106  H   -0.020217
   107  H   -0.006774
   108  H   -0.008209
   109  H   -0.006728
   110  H   -0.059795
   111  H   -0.018535
   112  H    0.012670
   113  H    0.010445
   114  H    0.018715
   115  H   -0.021620
   116  H   -0.014483
   117  H   -0.030945
   118  H   -0.015579
   119  H   -0.003350
   120  H   -0.033524
   121  H   -0.004198
   122  H    0.021736
   123  H   -0.009647
   124  H   -0.015168
   125  H   -0.009751
   126  H   -0.022326
   127  H   -0.031648
   128  H   -0.035014
   129  H   -0.002221
   130  H   -0.000619
   131  H    0.032418
   132  H    0.023079
   133  H   -0.007490
   134  H    0.019340
   135  H    0.007072
   136  H    0.001681
   137  H    0.168360
   138  H    0.151254
 Sum of Mulliken charges =  -0.00000

 Dipole moment (field-independent basis, Debye):
    X=              1.4392    Y=              2.2194    Z=              0.2795  Tot=              2.6599
 Quadrupole moment (field-independent basis, Debye-Ang):
   XX=           -355.3014   YY=           -386.8911   ZZ=           -391.7543
   XY=            -20.4677   XZ=             -7.9411   YZ=             -3.6056

 Normal termination of Gaussian 16 at Wed Aug 14 21:38:20 2019.
