 Gaussian 16, Revision A.03,
 Gaussian 16:  ES64L-G16RevA.03 25-Dec-2016

 --------------------------
 # td=(NStates=1) B3LYP/SVP
 --------------------------

 --
 TD
 --
 Symbolic Z-matrix:
 Charge =  0 Multiplicity = 1

                         Standard orientation:
 ---------------------------------------------------------------------
 Center     Atomic      Atomic             Coordinates (Angstroms)
 Number     Number       Type             X           Y           Z
 ---------------------------------------------------------------------
      1          6           0       -5.183741   -1.963444    0.563421
      2          6           0       -4.745201    2.633803    1.703792
      3          6           0       -9.176351    3.429856   -0.295871
      4          6           0       -9.761924   -1.383232   -1.117351
      5          7           0       -5.178270    0.437116    0.893652
      6          6           0       -4.522245   -0.787573    0.947502
      7          6           0       -3.089469   -0.669282    1.341355
      8          6           0       -3.032366    0.816466    2.017825
      9          6           0       -4.475788    1.362763    1.558341
     10          6           0       -3.006670    0.764709    3.526689
     11          6           0       -2.135963   -0.839341    0.226068
     12          6           0       -0.648450   -0.853939    0.700383
     13          6           0        0.448485   -0.964090   -0.452013
     14          8           0        0.153638   -1.076210   -1.594431
     15          8           0        1.653612   -0.930515    0.084490
     16          7           0       -6.972595    2.825150    0.328361
     17          6           0       -5.970164    3.337614    1.090622
     18          6           0       -6.134516    4.753160    1.224227
     19          6           0       -7.343807    4.991010    0.553925
     20          6           0       -7.970630    3.820876    0.183072
     21          6           0       -5.112486    5.676504    1.756277
     22          6           0       -7.892085    6.313268    0.460079
     23          6           0       -8.784563    6.665834   -0.463870
     24          7           0       -9.185927    0.929997   -0.497543
     25          6           0       -9.721780    2.166272   -0.654585
     26          6           0      -11.067466    2.048871   -1.212207
     27          6           0      -11.305381    0.679679   -1.293112
     28          6           0      -10.015075    0.035888   -0.948226
     29          6           0      -12.074617    3.143241   -1.492971
     30          6           0      -12.506887   -0.132435   -1.715614
     31          6           0      -12.595382   -0.236116   -3.243709
     32          7           0       -7.546451   -1.282946   -0.333600
     33          6           0       -8.567143   -2.066005   -0.861579
     34          6           0       -8.209168   -3.443694   -0.905594
     35          6           0       -6.822933   -3.387460   -0.458865
     36          6           0       -6.502803   -2.033120   -0.020796
     37          6           0       -9.080976   -4.582960   -1.163936
     38          6           0       -5.831079   -4.266849   -0.085567
     39          8           0       -5.767560   -5.492704   -0.153759
     40          6           0       -4.629001   -3.318798    0.443392
     41          6           0       -4.018988   -3.928860    1.743126
     42          8           0       -4.220732   -3.542311    2.851905
     43          8           0       -3.154926   -4.928041    1.364024
     44          6           0       -2.677594   -5.649759    2.550620
     45          6           0        2.696702   -1.150490   -0.907595
     46          6           0        3.962613   -0.931732   -0.364093
     47          6           0        4.876206    0.078780   -0.768343
     48          6           0        4.729816    0.954054   -1.917440
     49          6           0        6.202782    0.183951   -0.135138
     50          6           0        7.397761   -0.442667   -0.830847
     51          6           0        8.717348   -0.236048   -0.075814
     52          6           0       10.022818   -0.752913   -0.832772
     53          6           0       10.039320   -2.223383   -1.190383
     54          6           0       11.316456   -0.458620    0.004397
     55          6           0       12.573991   -0.668486   -0.662021
     56          6           0       13.826710   -0.075334    0.155269
     57          6           0       15.217855   -0.326191   -0.440210
     58          6           0       15.577678   -1.799619   -0.445058
     59          6           0       16.254877    0.467589    0.382995
     60          6           0       17.581413    0.643200   -0.220573
     61          6           0       18.606658    1.693242    0.484051
     62          6           0       19.977745    1.815419   -0.086212
     63          6           0       19.969076    2.415314   -1.523015
     64          6           0       20.852898    2.640501    0.885085
     65          1           0       -4.203803    3.201944    2.179342
     66          1           0       -9.862965    4.336158   -0.409415
     67          1           0      -10.666420   -1.974253   -1.430806
     68          1           0       -2.774332   -1.343926    2.123558
     69          1           0       -2.146138    1.334077    1.584254
     70          1           0       -2.108241    0.606068    3.859389
     71          1           0       -3.190706    1.762958    4.115764
     72          1           0       -3.681709   -0.178479    3.944998
     73          1           0       -2.420201   -1.733624   -0.450454
     74          1           0       -2.185077    0.125537   -0.331148
     75          1           0       -0.188437   -0.010849    1.358973
     76          1           0       -0.333658   -1.777476    1.349051
     77          1           0       -4.177544    5.725983    1.181912
     78          1           0       -5.518732    6.643598    1.850639
     79          1           0       -4.792629    5.548803    2.752497
     80          1           0       -7.441941    7.139313    1.150983
     81          1           0       -9.414190    6.063284   -1.264077
     82          1           0       -9.210720    7.610456   -0.469615
     83          1           0      -12.511329    3.785491   -0.696807
     84          1           0      -11.609488    4.060753   -2.149581
     85          1           0      -12.917426    3.011144   -2.184133
     86          1           0      -12.418760   -0.959106   -1.139576
     87          1           0      -13.494417    0.470041   -1.650344
     88          1           0      -12.572393    0.608798   -3.979174
     89          1           0      -11.605766   -0.925702   -3.592630
     90          1           0      -13.425615   -0.991325   -3.558378
     91          1           0       -9.858163   -4.705371   -0.414954
     92          1           0       -9.503379   -4.604812   -2.258794
     93          1           0       -8.511800   -5.501786   -0.883189
     94          1           0       -4.028924   -3.339390   -0.422066
     95          1           0       -1.982006   -6.391478    2.218978
     96          1           0       -2.102654   -5.044904    3.277791
     97          1           0       -3.591846   -6.142513    2.964237
     98          1           0        2.740966   -2.161387   -1.191235
     99          1           0        2.541279   -0.737579   -1.881943
    100          1           0        4.022676   -1.432947    0.669555
    101          1           0        4.963144    2.070302   -1.922407
    102          1           0        5.374988    0.646492   -2.748734
    103          1           0        3.837326    0.954118   -2.448503
    104          1           0        6.667563    1.158463   -0.107263
    105          1           0        6.099696   -0.396725    0.858638
    106          1           0        7.075734   -1.544107   -1.049194
    107          1           0        7.497776   -0.090562   -1.898775
    108          1           0        8.786101    0.853087    0.235741
    109          1           0        8.608952   -0.850289    0.872583
    110          1           0       10.344152   -0.049787   -1.875733
    111          1           0        9.040665   -2.551663   -1.644802
    112          1           0       10.868503   -2.568613   -1.898130
    113          1           0       10.213439   -2.842673   -0.162099
    114          1           0       11.360931    0.788208    0.350701
    115          1           0       11.382233   -0.999185    0.937531
    116          1           0       12.801797   -1.762680   -0.741156
    117          1           0       12.567988   -0.074993   -1.530148
    118          1           0       13.645677    1.072015    0.424313
    119          1           0       13.983242   -0.576128    1.025262
    120          1           0       15.137134    0.077572   -1.378469
    121          1           0       14.936586   -2.418028   -0.957738
    122          1           0       16.430186   -1.882752   -0.986298
    123          1           0       15.768005   -2.171790    0.521654
    124          1           0       15.757817    1.487224    0.510496
    125          1           0       16.344805    0.056103    1.386468
    126          1           0       18.008798   -0.341772   -0.236931
    127          1           0       17.561997    0.933350   -1.272935
    128          1           0       17.958336    2.686836    0.343026
    129          1           0       18.806966    1.219908    1.439117
    130          1           0       20.356852    0.731949   -0.096842
    131          1           0       19.645260    3.530652   -1.408031
    132          1           0       21.158290    2.319736   -1.935511
    133          1           0       19.604096    1.857955   -2.416704
    134          1           0       20.651137    2.158397    1.936422
    135          1           0       21.947247    2.929288    0.763519
    136          1           0       20.419100    3.645819    1.067198
    137          1           0       -7.083468    1.914203    0.264410
    138          1           0       -7.931252   -0.410927    0.098999
 ---------------------------------------------------------------------

 SCF Done:  E(RB3LYP) =  -2733.09458352     A.U. after   17 cycles

 Excitation energies and oscillator strengths:

 Excited State   1:      Singlet-A      2.0164 eV  614.87 nm  f=0.1592  <S**2>=0.000
     235 -> 237       -0.41182
     235 -> 238        0.21171
     236 -> 237        0.46758
     236 -> 238        0.25343
 This state for optimization and/or second-order correction.
 Total Energy, E(TD-HF/TD-DFT) =  -2733.02048169
 Copying the excited state density for this state as the 1-particle RhoCI density.

 The electronic state is 1-A.
 Alpha  occ. eigenvalues --  -19.18497 -19.17210 -19.12730 -19.12050 -19.11320
 Alpha  occ. eigenvalues --  -14.36675 -14.36025 -14.31320 -14.30090 -10.31237
 Alpha  occ. eigenvalues --  -10.31029 -10.26532 -10.24233 -10.24029 -10.23868
 Alpha  occ. eigenvalues --  -10.23307 -10.23250 -10.23041 -10.23000 -10.22462
 Alpha  occ. eigenvalues --  -10.22040 -10.21602 -10.21551 -10.21454 -10.21342
 Alpha  occ. eigenvalues --  -10.21272 -10.21201 -10.21079 -10.20754 -10.20416
 Alpha  occ. eigenvalues --  -10.20383 -10.20277 -10.20267 -10.20247 -10.20234
 Alpha  occ. eigenvalues --  -10.20121 -10.20109 -10.20023 -10.19978 -10.19966
 Alpha  occ. eigenvalues --  -10.19943 -10.19943 -10.19703 -10.19537 -10.19450
 Alpha  occ. eigenvalues --  -10.19389 -10.19349 -10.19235 -10.19059 -10.18977
 Alpha  occ. eigenvalues --  -10.18977 -10.18931 -10.18920 -10.18816 -10.18747
 Alpha  occ. eigenvalues --  -10.18633 -10.18502 -10.17635 -10.17625 -10.17522
 Alpha  occ. eigenvalues --  -10.17453 -10.17438 -10.17358 -10.15724  -1.10641
 Alpha  occ. eigenvalues --   -1.08390  -1.01829  -1.01112  -1.00672  -0.98975
 Alpha  occ. eigenvalues --   -0.98678  -0.94923  -0.92982  -0.84960  -0.83397
 Alpha  occ. eigenvalues --   -0.83158  -0.82410  -0.81299  -0.80955  -0.80668
 Alpha  occ. eigenvalues --   -0.80490  -0.79936  -0.79325  -0.78921  -0.78662
 Alpha  occ. eigenvalues --   -0.77133  -0.76134  -0.75957  -0.74750  -0.74331
 Alpha  occ. eigenvalues --   -0.73913  -0.73049  -0.72528  -0.72416  -0.72072
 Alpha  occ. eigenvalues --   -0.70304  -0.69203  -0.68531  -0.68301  -0.67773
 Alpha  occ. eigenvalues --   -0.67454  -0.66683  -0.66517  -0.65832  -0.64863
 Alpha  occ. eigenvalues --   -0.64361  -0.63229  -0.62489  -0.62145  -0.61180
 Alpha  occ. eigenvalues --   -0.60777  -0.58771  -0.58476  -0.58125  -0.57576
 Alpha  occ. eigenvalues --   -0.57352  -0.56590  -0.56416  -0.56306  -0.55176
 Alpha  occ. eigenvalues --   -0.54466  -0.54312  -0.54195  -0.53968  -0.53559
 Alpha  occ. eigenvalues --   -0.53257  -0.52464  -0.51903  -0.50920  -0.50498
 Alpha  occ. eigenvalues --   -0.50101  -0.49614  -0.49309  -0.48572  -0.48536
 Alpha  occ. eigenvalues --   -0.48002  -0.47823  -0.47595  -0.47542  -0.47191
 Alpha  occ. eigenvalues --   -0.46724  -0.46538  -0.46416  -0.46120  -0.45964
 Alpha  occ. eigenvalues --   -0.45712  -0.45554  -0.45331  -0.44844  -0.44511
 Alpha  occ. eigenvalues --   -0.44298  -0.44195  -0.43968  -0.43812  -0.43672
 Alpha  occ. eigenvalues --   -0.43246  -0.43221  -0.43002  -0.42692  -0.42489
 Alpha  occ. eigenvalues --   -0.42179  -0.42031  -0.41748  -0.41603  -0.41558
 Alpha  occ. eigenvalues --   -0.41261  -0.41157  -0.41053  -0.40903  -0.40526
 Alpha  occ. eigenvalues --   -0.40458  -0.40299  -0.40091  -0.40029  -0.39679
 Alpha  occ. eigenvalues --   -0.39460  -0.39364  -0.39205  -0.38680  -0.38621
 Alpha  occ. eigenvalues --   -0.38499  -0.38035  -0.37919  -0.37768  -0.37633
 Alpha  occ. eigenvalues --   -0.37495  -0.37262  -0.37203  -0.36855  -0.36710
 Alpha  occ. eigenvalues --   -0.36608  -0.36477  -0.35956  -0.35735  -0.35627
 Alpha  occ. eigenvalues --   -0.35526  -0.35380  -0.35305  -0.35160  -0.34936
 Alpha  occ. eigenvalues --   -0.34607  -0.34373  -0.33888  -0.33863  -0.33617
 Alpha  occ. eigenvalues --   -0.33564  -0.33190  -0.32911  -0.32318  -0.32062
 Alpha  occ. eigenvalues --   -0.31920  -0.31878  -0.31471  -0.31303  -0.31163
 Alpha  occ. eigenvalues --   -0.30856  -0.30813  -0.30632  -0.30485  -0.30356
 Alpha  occ. eigenvalues --   -0.30176  -0.29501  -0.28580  -0.28494  -0.27745
 Alpha  occ. eigenvalues --   -0.27232  -0.26761  -0.26234  -0.25977  -0.25640
 Alpha  occ. eigenvalues --   -0.24220  -0.24120  -0.23701  -0.22620  -0.19809
 Alpha  occ. eigenvalues --   -0.19273
 Alpha virt. eigenvalues --   -0.11056  -0.08027  -0.04349  -0.02271  -0.01228
 Alpha virt. eigenvalues --    0.00465   0.00994   0.01960   0.02418   0.03823
 Alpha virt. eigenvalues --    0.04026   0.04285   0.04692   0.04930   0.05095

 Mulliken charges:
               1
     1  C    0.009074
     2  C    0.069752
     3  C   -0.103521
     4  C   -0.078193
     5  N   -0.180085
     6  C   -0.043176
     7  C    0.001472
     8  C   -0.095520
     9  C    0.096022
    10  C    0.071058
    11  C    0.093622
    12  C   -0.069766
    13  C    0.153086
    14  O   -0.210665
    15  O   -0.291756
    16  N    0.007218
    17  C    0.038702
    18  C   -0.161301
    19  C    0.087295
    20  C    0.073519
    21  C    0.176049
    22  C   -0.066671
    23  C   -0.054101
    24  N   -0.172396
    25  C    0.080726
    26  C   -0.079845
    27  C   -0.113943
    28  C   -0.001362
    29  C    0.024270
    30  C    0.138488
    31  C   -0.082614
    32  N   -0.014096
    33  C    0.056523
    34  C   -0.080028
    35  C   -0.007879
    36  C    0.072266
    37  C    0.080450
    38  C    0.004904
    39  O   -0.195704
    40  C   -0.048286
    41  C    0.222768
    42  O   -0.198732
    43  O   -0.326786
    44  C    0.189370
    45  C    0.346309
    46  C   -0.154022
    47  C   -0.070415
    48  C    0.073747
    49  C    0.091686
    50  C   -0.050329
    51  C    0.055752
    52  C   -0.092475
    53  C   -0.023666
    54  C   -0.031087
    55  C    0.101328
    56  C   -0.020538
    57  C   -0.025977
    58  C    0.152476
    59  C    0.032104
    60  C    0.042167
    61  C    0.008817
    62  C   -0.070370
    63  C   -0.042376
    64  C    0.013979
    65  H   -0.177381
    66  H   -0.008284
    67  H   -0.002225
    68  H   -0.006594
    69  H    0.008166
    70  H   -0.044818
    71  H    0.016740
    72  H    0.055143
    73  H    0.045087
    74  H    0.010569
    75  H    0.041870
    76  H    0.032062
    77  H    0.032132
    78  H   -0.024548
    79  H    0.002759
    80  H    0.027489
    81  H    0.051646
    82  H   -0.002094
    83  H    0.024032
    84  H    0.002112
    85  H    0.009337
    86  H   -0.009268
    87  H    0.014731
    88  H    0.046849
    89  H   -0.001497
    90  H    0.020915
    91  H    0.025118
    92  H    0.058376
    93  H    0.033736
    94  H    0.042729
    95  H    0.016953
    96  H    0.034803
    97  H    0.042963
    98  H   -0.008146
    99  H   -0.003261
   100  H    0.014321
   101  H    0.025277
   102  H    0.009839
   103  H   -0.025565
   104  H   -0.014112
   105  H    0.007756
   106  H    0.001588
   107  H   -0.002588
   108  H    0.012189
   109  H    0.004971
   110  H    0.009164
   111  H    0.026888
   112  H    0.036369
   113  H    0.018956
   114  H   -0.003869
   115  H   -0.017188
   116  H    0.008711
   117  H   -0.024609
   118  H    0.004220
   119  H   -0.047013
   120  H   -0.051685
   121  H   -0.023818
   122  H   -0.035047
   123  H   -0.012651
   124  H   -0.017588
   125  H   -0.017866
   126  H   -0.030396
   127  H   -0.020591
   128  H    0.015656
   129  H   -0.004729
   130  H    0.001153
   131  H    0.033032
   132  H    0.007043
   133  H    0.029745
   134  H    0.006454
   135  H    0.027283
   136  H   -0.006063
   137  H    0.066005
   138  H    0.173239
 Sum of Mulliken charges =  -0.00000

 Dipole moment (field-independent basis, Debye):
    X=              1.9785    Y=              3.9203    Z=              0.6136  Tot=              4.4340
 Quadrupole moment (field-independent basis, Debye-Ang):
   XX=           -341.1534   YY=           -376.9381   ZZ=           -394.9482
   XY=            -31.8833   XZ=              4.8204   YZ=             -0.0915

 Normal termination of Gaussian 16 at Sat Aug 17 22:50:38 2019.
