 Gaussian 16, Revision A.03,
 Gaussian 16:  ES64L-G16RevA.03 25-Dec-2016

 --------------------------
 # td=(NStates=1) B3LYP/SVP
 --------------------------

 --
 TD
 --
 Symbolic Z-matrix:
 Charge =  0 Multiplicity = 1

                         Standard orientation:
 ---------------------------------------------------------------------
 Center     Atomic      Atomic             Coordinates (Angstroms)
 Number     Number       Type             X           Y           Z
 ---------------------------------------------------------------------
      1          6           0       -5.047621   -1.918511    0.528448
      2          6           0       -4.805389    2.846413    1.339963
      3          6           0       -9.355967    3.124224   -0.250674
      4          6           0       -9.779827   -1.639048   -0.988377
      5          7           0       -5.260591    0.480278    0.779102
      6          6           0       -4.416616   -0.681985    0.783591
      7          6           0       -3.031953   -0.324628    1.186672
      8          6           0       -3.200485    1.027413    1.852839
      9          6           0       -4.470084    1.535965    1.238585
     10          6           0       -3.164486    0.948899    3.364702
     11          6           0       -2.073685   -0.450068    0.016880
     12          6           0       -0.569818   -0.497087    0.452309
     13          6           0        0.371197   -0.761146   -0.659085
     14          8           0        0.004490   -1.160218   -1.741447
     15          8           0        1.645899   -0.615701   -0.269081
     16          7           0       -7.073739    2.796556    0.433482
     17          6           0       -6.071529    3.383016    0.988399
     18          6           0       -6.435352    4.834899    1.001402
     19          6           0       -7.759741    4.896988    0.505211
     20          6           0       -8.130932    3.623684    0.164239
     21          6           0       -5.479775    5.890770    1.407009
     22          6           0       -8.572459    6.063966    0.295984
     23          6           0       -9.466587    6.478193   -0.681883
     24          7           0       -9.189647    0.778374   -0.626083
     25          6           0       -9.907554    1.859240   -0.556985
     26          6           0      -11.302418    1.627571   -0.921800
     27          6           0      -11.371911    0.341293   -1.092106
     28          6           0       -9.991857   -0.220500   -0.865856
     29          6           0      -12.423433    2.605804   -1.010033
     30          6           0      -12.575606   -0.473560   -1.563340
     31          6           0      -12.628732   -0.695446   -3.069986
     32          7           0       -7.460983   -1.363110   -0.192158
     33          6           0       -8.545347   -2.196333   -0.603631
     34          6           0       -8.080825   -3.473217   -0.696284
     35          6           0       -6.686329   -3.498179   -0.161210
     36          6           0       -6.424596   -2.105273    0.124743
     37          6           0       -8.822242   -4.835462   -1.006671
     38          6           0       -5.493866   -4.329508    0.158542
     39          8           0       -5.322254   -5.430195   -0.047868
     40          6           0       -4.301114   -3.236623    0.477203
     41          6           0       -3.646198   -3.600130    1.794381
     42          8           0       -4.170516   -3.228593    2.787834
     43          8           0       -2.822273   -4.645249    1.625057
     44          6           0       -2.225878   -5.228784    2.729759
     45          6           0        2.692402   -0.941853   -1.301323
     46          6           0        4.041318   -0.714001   -0.660245
     47          6           0        5.042218    0.167235   -1.019077
     48          6           0        4.900956    1.074216   -2.361489
     49          6           0        6.241411    0.249572   -0.174251
     50          6           0        7.471712   -0.427488   -0.813287
     51          6           0        8.775315   -0.100167   -0.085281
     52          6           0       10.089492   -0.697455   -0.755021
     53          6           0       10.026663   -2.364119   -0.845610
     54          6           0       11.213981   -0.294067    0.135149
     55          6           0       12.696350   -0.752663   -0.408778
     56          6           0       13.872060   -0.106088    0.330388
     57          6           0       15.242235   -0.301361   -0.344863
     58          6           0       15.621040   -1.849356   -0.590867
     59          6           0       16.242609    0.531132    0.486360
     60          6           0       17.601588    0.673492   -0.203960
     61          6           0       18.594579    1.631211    0.572114
     62          6           0       20.048974    1.621378   -0.020752
     63          6           0       20.119037    2.424125   -1.354482
     64          6           0       21.080130    2.368011    1.017512
     65          1           0       -4.015924    3.692340    1.452140
     66          1           0      -10.278682    4.045571   -0.152208
     67          1           0      -10.468789   -2.399549   -1.121596
     68          1           0       -2.739229   -1.107133    1.818763
     69          1           0       -2.330078    1.658637    1.605909
     70          1           0       -2.261816    0.611137    3.672085
     71          1           0       -3.194567    2.036207    3.839047
     72          1           0       -3.878304    0.449670    3.737093
     73          1           0       -2.325201   -1.348742   -0.493512
     74          1           0       -2.140969    0.279610   -0.861376
     75          1           0       -0.163359    0.480764    0.944035
     76          1           0       -0.392845   -1.242895    1.187765
     77          1           0       -4.608954    6.068913    0.779858
     78          1           0       -6.263249    6.800463    1.414479
     79          1           0       -5.059115    5.967443    2.405846
     80          1           0       -8.400295    6.794571    1.030433
     81          1           0       -9.716569    5.817231   -1.601439
     82          1           0      -10.110991    7.299464   -0.525250
     83          1           0      -12.860556    3.046605   -0.047371
     84          1           0      -12.019681    3.493042   -1.674156
     85          1           0      -13.368452    2.085110   -1.605181
     86          1           0      -12.565014   -1.571222   -1.005592
     87          1           0      -13.627536    0.128853   -1.146276
     88          1           0      -12.721980    0.185981   -3.647626
     89          1           0      -11.830263   -1.141553   -3.418233
     90          1           0      -13.519009   -1.278016   -3.619326
     91          1           0       -9.843049   -5.098287   -0.324695
     92          1           0       -9.102994   -5.006264   -2.054193
     93          1           0       -8.041770   -5.611336   -0.982395
     94          1           0       -3.666120   -3.657115   -0.363961
     95          1           0       -1.607726   -6.008421    2.367643
     96          1           0       -1.506076   -4.528594    3.291933
     97          1           0       -2.977012   -5.319558    3.607368
     98          1           0        2.558774   -2.000214   -1.416225
     99          1           0        2.556498   -0.224988   -2.269206
    100          1           0        4.129354   -1.157941    0.309006
    101          1           0        5.149915    2.134113   -2.079935
    102          1           0        5.732277    0.754092   -3.140818
    103          1           0        4.024749    1.075976   -2.739124
    104          1           0        6.636029    1.289682    0.087272
    105          1           0        6.006494   -0.161188    0.855104
    106          1           0        7.130345   -1.595569   -1.041229
    107          1           0        7.557960   -0.396818   -1.990386
    108          1           0        9.017801    0.861010    0.079994
    109          1           0        8.790069   -0.879969    0.767503
    110          1           0       10.053360   -0.270251   -1.755254
    111          1           0        9.071545   -2.590658   -1.377165
    112          1           0       10.767439   -3.071693   -1.303748
    113          1           0       10.047841   -2.823097    0.092280
    114          1           0       11.169343    0.936069    0.259996
    115          1           0       11.142404   -0.584706    1.242756
    116          1           0       12.407019   -1.845315   -0.511498
    117          1           0       12.863688   -0.262853   -1.413104
    118          1           0       13.658978    0.947738    0.414071
    119          1           0       13.955949   -0.349740    1.410393
    120          1           0       15.116889    0.085452   -1.395394
    121          1           0       14.706421   -2.055111   -1.340182
    122          1           0       16.582946   -1.875881   -1.108933
    123          1           0       15.773558   -2.446307    0.492936
    124          1           0       15.790141    1.687693    0.715568
    125          1           0       16.298824    0.225737    1.448319
    126          1           0       18.089752   -0.393596   -0.198224
    127          1           0       17.497998    0.787694   -1.274558
    128          1           0       18.268665    2.710065    0.474847
    129          1           0       18.682158    1.298887    1.673154
    130          1           0       20.556215    0.668644   -0.215478
    131          1           0       19.649103    3.367553   -1.288068
    132          1           0       21.111119    2.502991   -1.574890
    133          1           0       19.646056    1.837678   -2.254408
    134          1           0       20.982800    1.971504    2.056367
    135          1           0       22.020722    2.361585    0.603154
    136          1           0       20.798647    3.477967    1.103886
    137          1           0       -7.030016    1.736978    0.274690
    138          1           0       -7.502050   -0.248785   -0.090920
 ---------------------------------------------------------------------

 SCF Done:  E(RB3LYP) =  -2733.04480778     A.U. after   17 cycles

 Excitation energies and oscillator strengths:

 Excited State   1:      Singlet-A      2.0713 eV  598.59 nm  f=0.2105  <S**2>=0.000
     235 -> 237       -0.42000
     235 -> 238       -0.20575
     236 -> 237        0.48754
     236 -> 238       -0.19800
 This state for optimization and/or second-order correction.
 Total Energy, E(TD-HF/TD-DFT) =  -2732.96868945
 Copying the excited state density for this state as the 1-particle RhoCI density.

 The electronic state is 1-A.
 Alpha  occ. eigenvalues --  -19.18198 -19.17462 -19.12702 -19.12232 -19.11576
 Alpha  occ. eigenvalues --  -14.37213 -14.36816 -14.32399 -14.30372 -10.30956
 Alpha  occ. eigenvalues --  -10.30690 -10.27667 -10.26149 -10.24975 -10.23352
 Alpha  occ. eigenvalues --  -10.23295 -10.23213 -10.22952 -10.22795 -10.22328
 Alpha  occ. eigenvalues --  -10.21850 -10.21817 -10.21782 -10.21614 -10.21595
 Alpha  occ. eigenvalues --  -10.21451 -10.20974 -10.20949 -10.20881 -10.20866
 Alpha  occ. eigenvalues --  -10.20650 -10.20567 -10.20545 -10.20525 -10.20477
 Alpha  occ. eigenvalues --  -10.20459 -10.20395 -10.20343 -10.20314 -10.20235
 Alpha  occ. eigenvalues --  -10.20210 -10.20068 -10.19825 -10.19472 -10.19454
 Alpha  occ. eigenvalues --  -10.19434 -10.19375 -10.19364 -10.19345 -10.19263
 Alpha  occ. eigenvalues --  -10.19216 -10.19172 -10.19038 -10.18944 -10.18728
 Alpha  occ. eigenvalues --  -10.18522 -10.18424 -10.17937 -10.17871 -10.17724
 Alpha  occ. eigenvalues --  -10.17626 -10.17413 -10.17146 -10.16955  -1.10714
 Alpha  occ. eigenvalues --   -1.08434  -1.07668  -1.02620  -1.00478  -0.99841
 Alpha  occ. eigenvalues --   -0.97821  -0.96687  -0.92474  -0.83351  -0.82611
 Alpha  occ. eigenvalues --   -0.82336  -0.81193  -0.80973  -0.80440  -0.80160
 Alpha  occ. eigenvalues --   -0.79894  -0.79477  -0.78615  -0.78555  -0.77508
 Alpha  occ. eigenvalues --   -0.76448  -0.75628  -0.75469  -0.74723  -0.74236
 Alpha  occ. eigenvalues --   -0.73646  -0.73122  -0.72170  -0.71001  -0.70537
 Alpha  occ. eigenvalues --   -0.69911  -0.68902  -0.68752  -0.68178  -0.67315
 Alpha  occ. eigenvalues --   -0.67068  -0.66952  -0.66203  -0.65902  -0.65257
 Alpha  occ. eigenvalues --   -0.64395  -0.63569  -0.62641  -0.61795  -0.61152
 Alpha  occ. eigenvalues --   -0.60909  -0.58876  -0.58542  -0.58066  -0.57151
 Alpha  occ. eigenvalues --   -0.57041  -0.56586  -0.55764  -0.55689  -0.55376
 Alpha  occ. eigenvalues --   -0.54899  -0.54719  -0.54560  -0.53470  -0.53142
 Alpha  occ. eigenvalues --   -0.52693  -0.52658  -0.52006  -0.50953  -0.50154
 Alpha  occ. eigenvalues --   -0.49890  -0.49759  -0.48871  -0.48806  -0.48323
 Alpha  occ. eigenvalues --   -0.47927  -0.47537  -0.47195  -0.47091  -0.46822
 Alpha  occ. eigenvalues --   -0.46574  -0.46451  -0.45942  -0.45651  -0.45330
 Alpha  occ. eigenvalues --   -0.45050  -0.44964  -0.44881  -0.44728  -0.44601
 Alpha  occ. eigenvalues --   -0.44230  -0.43941  -0.43883  -0.43762  -0.43674
 Alpha  occ. eigenvalues --   -0.43335  -0.43308  -0.42948  -0.42639  -0.42279
 Alpha  occ. eigenvalues --   -0.42169  -0.41979  -0.41885  -0.41663  -0.41641
 Alpha  occ. eigenvalues --   -0.41160  -0.41101  -0.40882  -0.40482  -0.40425
 Alpha  occ. eigenvalues --   -0.40164  -0.39875  -0.39611  -0.39601  -0.39570
 Alpha  occ. eigenvalues --   -0.39399  -0.39322  -0.39165  -0.38793  -0.38701
 Alpha  occ. eigenvalues --   -0.38570  -0.38456  -0.38212  -0.37997  -0.37721
 Alpha  occ. eigenvalues --   -0.37575  -0.37419  -0.37143  -0.37028  -0.36853
 Alpha  occ. eigenvalues --   -0.36539  -0.36258  -0.36235  -0.36131  -0.35857
 Alpha  occ. eigenvalues --   -0.35668  -0.35458  -0.35039  -0.34975  -0.34844
 Alpha  occ. eigenvalues --   -0.34526  -0.34297  -0.34019  -0.33919  -0.33660
 Alpha  occ. eigenvalues --   -0.33420  -0.33114  -0.32647  -0.32589  -0.32348
 Alpha  occ. eigenvalues --   -0.32187  -0.32180  -0.31973  -0.31584  -0.31153
 Alpha  occ. eigenvalues --   -0.30620  -0.30464  -0.30423  -0.29919  -0.29898
 Alpha  occ. eigenvalues --   -0.29492  -0.28706  -0.28018  -0.27946  -0.27705
 Alpha  occ. eigenvalues --   -0.27574  -0.27282  -0.26835  -0.26213  -0.25339
 Alpha  occ. eigenvalues --   -0.24968  -0.24497  -0.24089  -0.23859  -0.19496
 Alpha  occ. eigenvalues --   -0.19264
 Alpha virt. eigenvalues --   -0.10784  -0.06958  -0.03838  -0.02219  -0.01320
 Alpha virt. eigenvalues --   -0.00860   0.00670   0.00962   0.02146   0.03456
 Alpha virt. eigenvalues --    0.03891   0.04246   0.04426   0.04776   0.04931

 Mulliken charges:
               1
     1  C    0.032778
     2  C   -0.106558
     3  C   -0.130102
     4  C   -0.041195
     5  N   -0.279092
     6  C   -0.058743
     7  C    0.070704
     8  C   -0.018147
     9  C    0.078303
    10  C    0.200365
    11  C    0.073767
    12  C    0.032009
    13  C    0.161600
    14  O   -0.244379
    15  O   -0.340372
    16  N   -0.010630
    17  C    0.013074
    18  C   -0.121016
    19  C    0.093692
    20  C    0.060641
    21  C    0.049468
    22  C   -0.087785
    23  C   -0.029401
    24  N   -0.120823
    25  C   -0.007582
    26  C   -0.080177
    27  C   -0.075035
    28  C    0.062802
    29  C   -0.008361
    30  C   -0.040437
    31  C    0.085935
    32  N   -0.091117
    33  C    0.085008
    34  C   -0.115227
    35  C   -0.090210
    36  C    0.084701
    37  C    0.038793
    38  C    0.060020
    39  O   -0.077415
    40  C   -0.138600
    41  C    0.183762
    42  O   -0.197820
    43  O   -0.272457
    44  C    0.168524
    45  C    0.289358
    46  C   -0.105667
    47  C   -0.143187
    48  C    0.122118
    49  C    0.094385
    50  C   -0.093164
    51  C    0.096577
    52  C   -0.054728
    53  C   -0.011009
    54  C   -0.061855
    55  C    0.027243
    56  C    0.074191
    57  C   -0.103488
    58  C   -0.032175
    59  C    0.039184
    60  C    0.027454
    61  C    0.046601
    62  C   -0.132079
    63  C    0.059477
    64  C    0.021375
    65  H    0.010997
    66  H    0.039830
    67  H   -0.044702
    68  H   -0.040725
    69  H   -0.027120
    70  H   -0.023341
    71  H    0.004665
    72  H   -0.036979
    73  H    0.002172
    74  H    0.012750
    75  H    0.034213
    76  H    0.012028
    77  H    0.035292
    78  H    0.019648
    79  H    0.022596
    80  H   -0.006685
    81  H    0.045150
    82  H    0.018363
    83  H    0.046444
    84  H    0.034197
    85  H    0.037300
    86  H    0.027040
    87  H    0.028026
    88  H   -0.012285
    89  H   -0.034666
    90  H    0.011197
    91  H    0.060272
    92  H    0.015276
    93  H    0.029554
    94  H    0.057857
    95  H    0.033801
    96  H    0.004625
    97  H    0.042159
    98  H    0.015800
    99  H    0.061635
   100  H   -0.013921
   101  H    0.020259
   102  H    0.040839
   103  H   -0.053103
   104  H    0.003131
   105  H    0.012250
   106  H    0.008710
   107  H    0.003007
   108  H   -0.018986
   109  H    0.019959
   110  H   -0.003438
   111  H    0.010886
   112  H    0.023175
   113  H   -0.007576
   114  H   -0.007754
   115  H    0.012374
   116  H    0.023547
   117  H   -0.003020
   118  H   -0.019220
   119  H   -0.021218
   120  H   -0.006509
   121  H    0.045793
   122  H    0.018260
   123  H    0.036539
   124  H   -0.009869
   125  H   -0.039403
   126  H   -0.004613
   127  H   -0.009737
   128  H    0.008623
   129  H    0.009695
   130  H   -0.001191
   131  H   -0.002242
   132  H   -0.020567
   133  H    0.013237
   134  H    0.015437
   135  H   -0.007741
   136  H    0.001164
   137  H    0.167285
   138  H    0.205681
 Sum of Mulliken charges =  -0.00000

 Dipole moment (field-independent basis, Debye):
    X=              3.6774    Y=              3.7804    Z=              0.8538  Tot=              5.3426
 Quadrupole moment (field-independent basis, Debye-Ang):
   XX=           -358.0994   YY=           -383.1566   ZZ=           -395.3952
   XY=            -21.8989   XZ=              5.9212   YZ=              0.6742

 Normal termination of Gaussian 16 at Tue Aug 13 05:33:41 2019.
