 Gaussian 16, Revision A.03,
 Gaussian 16:  ES64L-G16RevA.03 25-Dec-2016

 --------------------------
 # td=(NStates=1) B3LYP/SVP
 --------------------------

 --
 TD
 --
 Symbolic Z-matrix:
 Charge =  0 Multiplicity = 1

                         Standard orientation:
 ---------------------------------------------------------------------
 Center     Atomic      Atomic             Coordinates (Angstroms)
 Number     Number       Type             X           Y           Z
 ---------------------------------------------------------------------
      1          6           0       -5.142639   -2.001379    0.495560
      2          6           0       -4.618364    2.713563    1.440316
      3          6           0       -9.281586    3.339162   -0.166742
      4          6           0       -9.807601   -1.370978   -0.832673
      5          7           0       -5.119884    0.398938    0.839016
      6          6           0       -4.533830   -0.785395    0.836864
      7          6           0       -3.037356   -0.562053    1.220451
      8          6           0       -3.065820    0.790256    1.874047
      9          6           0       -4.323775    1.357535    1.316391
     10          6           0       -3.056136    0.787088    3.326015
     11          6           0       -2.082045   -0.858516    0.003297
     12          6           0       -0.682691   -0.761379    0.569156
     13          6           0        0.352665   -1.032791   -0.541560
     14          8           0        0.161165   -1.360400   -1.671716
     15          8           0        1.616231   -0.861896   -0.085989
     16          7           0       -6.942464    2.700127    0.593733
     17          6           0       -5.777770    3.368486    0.999489
     18          6           0       -6.036334    4.767320    0.991743
     19          6           0       -7.286970    4.952127    0.403738
     20          6           0       -7.901653    3.656179    0.232047
     21          6           0       -5.135288    5.771481    1.518893
     22          6           0       -8.018200    6.309668    0.346435
     23          6           0       -8.885648    6.591064   -0.519653
     24          7           0       -9.158565    0.939730   -0.404296
     25          6           0       -9.867781    2.166275   -0.470724
     26          6           0      -11.249896    1.976337   -0.944655
     27          6           0      -11.391499    0.641154   -1.111203
     28          6           0      -10.123734   -0.013471   -0.815727
     29          6           0      -12.204517    3.139250   -1.169036
     30          6           0      -12.669310   -0.030046   -1.620950
     31          6           0      -12.577348   -0.333681   -3.181465
     32          7           0       -7.555665   -1.284094   -0.040131
     33          6           0       -8.607308   -1.948683   -0.528242
     34          6           0       -8.185984   -3.367052   -0.613621
     35          6           0       -6.870757   -3.426834   -0.192862
     36          6           0       -6.490470   -2.056312    0.209071
     37          6           0       -8.966113   -4.539471   -1.130719
     38          6           0       -5.722032   -4.314496    0.073947
     39          8           0       -5.572917   -5.498481   -0.231771
     40          6           0       -4.518390   -3.422569    0.467103
     41          6           0       -3.884313   -3.776217    1.749795
     42          8           0       -4.092394   -3.496881    2.865415
     43          8           0       -3.106542   -4.862693    1.484791
     44          6           0       -2.627034   -5.558935    2.596337
     45          6           0        2.675279   -1.317365   -1.052130
     46          6           0        3.961761   -0.735449   -0.528129
     47          6           0        4.901117   -0.031068   -1.287414
     48          6           0        4.811634    0.251009   -2.794727
     49          6           0        6.213804    0.404986   -0.578578
     50          6           0        7.475797   -0.305479   -1.206882
     51          6           0        8.793831    0.043707   -0.549350
     52          6           0       10.040247   -0.727900   -0.906902
     53          6           0        9.961598   -2.232192   -0.667908
     54          6           0       11.216615   -0.077796   -0.259260
     55          6           0       12.611678   -0.599597   -0.637141
     56          6           0       13.731168    0.064096    0.143451
     57          6           0       15.179592   -0.198951   -0.397303
     58          6           0       15.514805   -1.668747   -0.243429
     59          6           0       16.133535    0.633997    0.450258
     60          6           0       17.570117    0.657434   -0.033357
     61          6           0       18.477589    1.729612    0.622259
     62          6           0       20.013553    1.590109    0.337916
     63          6           0       20.261605    1.863123   -1.150901
     64          6           0       20.795391    2.677665    1.240130
     65          1           0       -3.774089    3.469846    1.931951
     66          1           0       -9.983353    4.339414   -0.265200
     67          1           0      -10.654264   -2.220325   -1.078791
     68          1           0       -2.969856   -1.386162    1.985717
     69          1           0       -2.157787    1.254281    1.626391
     70          1           0       -1.992221    0.355335    3.740747
     71          1           0       -3.071257    1.821778    3.710441
     72          1           0       -3.858708    0.277092    3.820276
     73          1           0       -2.263647   -1.735842   -0.556044
     74          1           0       -2.245807    0.117701   -0.526589
     75          1           0       -0.357344    0.301626    1.282296
     76          1           0       -0.784443   -1.636779    1.411388
     77          1           0       -4.257790    5.959131    0.826016
     78          1           0       -5.762325    6.768441    1.745932
     79          1           0       -4.698249    5.243985    2.451600
     80          1           0       -7.661007    7.054149    0.971610
     81          1           0       -9.329560    6.054484   -1.535459
     82          1           0       -9.513691    7.492831   -0.545286
     83          1           0      -12.314975    3.635618   -0.104021
     84          1           0      -11.923857    3.952604   -1.896546
     85          1           0      -13.349010    2.722499   -1.430865
     86          1           0      -12.738798   -0.953354   -0.994405
     87          1           0      -13.546416    0.648898   -1.473953
     88          1           0      -12.932735    0.812411   -3.792878
     89          1           0      -11.666282   -0.777775   -3.515347
     90          1           0      -13.240076   -1.288397   -3.532488
     91          1           0      -10.034235   -4.579560   -0.739762
     92          1           0       -9.026009   -4.549427   -2.157688
     93          1           0       -8.342776   -5.483132   -0.848278
     94          1           0       -3.652344   -3.477177   -0.313700
     95          1           0       -1.902269   -6.443143    2.340874
     96          1           0       -2.145830   -4.852873    3.303653
     97          1           0       -3.601374   -5.914648    3.100500
     98          1           0        2.646693   -2.367388   -0.928148
     99          1           0        2.387827   -1.121322   -2.067484
    100          1           0        4.143305   -1.132430    0.354594
    101          1           0        5.300650    1.271762   -2.997713
    102          1           0        5.255286   -0.351579   -3.522299
    103          1           0        3.836580    0.231929   -3.444927
    104          1           0        6.314799    1.524239   -0.768956
    105          1           0        6.223419    0.402229    0.527759
    106          1           0        7.208690   -1.285640   -1.001965
    107          1           0        7.465610   -0.163066   -2.279920
    108          1           0        8.912988    1.092559   -0.424314
    109          1           0        8.668637   -0.144794    0.599826
    110          1           0       10.241530   -0.494280   -2.000353
    111          1           0        9.184335   -2.763200   -1.361625
    112          1           0       10.765100   -2.643979   -1.234905
    113          1           0        9.909224   -2.561422    0.495022
    114          1           0       11.081526    1.204844   -0.433668
    115          1           0       10.944838   -0.269599    1.015564
    116          1           0       12.661237   -1.615911   -0.531747
    117          1           0       12.709774   -0.279179   -1.692321
    118          1           0       13.682874    1.148424    0.135777
    119          1           0       13.608911   -0.322071    1.188205
    120          1           0       15.229449    0.215157   -1.454694
    121          1           0       14.818196   -2.129358   -0.933403
    122          1           0       16.563573   -2.004759   -0.642119
    123          1           0       15.256375   -1.903408    0.846728
    124          1           0       15.909012    1.629472    0.286505
    125          1           0       16.034948    0.218974    1.514196
    126          1           0       18.067219   -0.395271   -0.102578
    127          1           0       17.481000    1.139340   -1.208922
    128          1           0       18.123503    2.884911    0.565782
    129          1           0       18.262023    1.420873    1.725328
    130          1           0       20.534292    0.474011    0.541328
    131          1           0       19.773045    2.903152   -1.328879
    132          1           0       21.291707    1.875515   -1.396840
    133          1           0       19.688292    1.324365   -2.063601
    134          1           0       20.714436    2.481370    2.347542
    135          1           0       21.963804    2.707796    1.285725
    136          1           0       20.555508    3.694068    0.943206
    137          1           0       -7.074134    1.636085    0.499358
    138          1           0       -7.581105   -0.283339    0.213976
 ---------------------------------------------------------------------

 SCF Done:  E(RB3LYP) =  -2733.08907365     A.U. after   17 cycles

 Excitation energies and oscillator strengths:

 Excited State   1:      Singlet-A      2.0598 eV  601.93 nm  f=0.1842  <S**2>=0.000
     235 -> 238       -0.27723
     236 -> 237        0.63510
 This state for optimization and/or second-order correction.
 Total Energy, E(TD-HF/TD-DFT) =  -2733.01337800
 Copying the excited state density for this state as the 1-particle RhoCI density.

 The electronic state is 1-A.
 Alpha  occ. eigenvalues --  -19.16621 -19.16147 -19.13214 -19.12848 -19.12182
 Alpha  occ. eigenvalues --  -14.37722 -14.36989 -14.32010 -14.30430 -10.31475
 Alpha  occ. eigenvalues --  -10.31013 -10.28892 -10.24719 -10.24036 -10.23831
 Alpha  occ. eigenvalues --  -10.23723 -10.23458 -10.23267 -10.23081 -10.22790
 Alpha  occ. eigenvalues --  -10.22764 -10.22479 -10.22179 -10.22021 -10.21969
 Alpha  occ. eigenvalues --  -10.21750 -10.21649 -10.21305 -10.21305 -10.21291
 Alpha  occ. eigenvalues --  -10.21045 -10.20988 -10.20921 -10.20699 -10.20627
 Alpha  occ. eigenvalues --  -10.20345 -10.20284 -10.20187 -10.20092 -10.20011
 Alpha  occ. eigenvalues --  -10.19943 -10.19925 -10.19889 -10.19844 -10.19717
 Alpha  occ. eigenvalues --  -10.19711 -10.19608 -10.19592 -10.19588 -10.19302
 Alpha  occ. eigenvalues --  -10.19117 -10.19053 -10.19006 -10.18793 -10.18782
 Alpha  occ. eigenvalues --  -10.18762 -10.18585 -10.18526 -10.18441 -10.18046
 Alpha  occ. eigenvalues --  -10.17994 -10.17942 -10.17891 -10.17473  -1.11300
 Alpha  occ. eigenvalues --   -1.08657  -1.02410  -1.01963  -1.00080  -0.99592
 Alpha  occ. eigenvalues --   -0.96528  -0.95625  -0.91601  -0.85644  -0.82753
 Alpha  occ. eigenvalues --   -0.81925  -0.81708  -0.81593  -0.81038  -0.80584
 Alpha  occ. eigenvalues --   -0.80066  -0.79594  -0.78883  -0.78769  -0.78201
 Alpha  occ. eigenvalues --   -0.76998  -0.76487  -0.76297  -0.75054  -0.73645
 Alpha  occ. eigenvalues --   -0.73515  -0.72891  -0.72299  -0.71755  -0.70662
 Alpha  occ. eigenvalues --   -0.69765  -0.68848  -0.68420  -0.68045  -0.67252
 Alpha  occ. eigenvalues --   -0.66795  -0.66563  -0.66369  -0.65927  -0.64920
 Alpha  occ. eigenvalues --   -0.63859  -0.62882  -0.62461  -0.61249  -0.60973
 Alpha  occ. eigenvalues --   -0.60605  -0.58685  -0.58551  -0.57702  -0.57387
 Alpha  occ. eigenvalues --   -0.56670  -0.56175  -0.55502  -0.55367  -0.54391
 Alpha  occ. eigenvalues --   -0.54269  -0.54217  -0.54045  -0.53469  -0.53389
 Alpha  occ. eigenvalues --   -0.53175  -0.52316  -0.51564  -0.51299  -0.50861
 Alpha  occ. eigenvalues --   -0.49716  -0.49278  -0.49105  -0.48995  -0.48863
 Alpha  occ. eigenvalues --   -0.48307  -0.48083  -0.47939  -0.47509  -0.47170
 Alpha  occ. eigenvalues --   -0.46742  -0.46396  -0.46136  -0.46125  -0.45579
 Alpha  occ. eigenvalues --   -0.45329  -0.45219  -0.44819  -0.44498  -0.44446
 Alpha  occ. eigenvalues --   -0.44343  -0.44164  -0.44047  -0.43873  -0.43584
 Alpha  occ. eigenvalues --   -0.43219  -0.43051  -0.42907  -0.42840  -0.42658
 Alpha  occ. eigenvalues --   -0.42512  -0.41995  -0.41630  -0.41433  -0.41242
 Alpha  occ. eigenvalues --   -0.40928  -0.40857  -0.40262  -0.40239  -0.40095
 Alpha  occ. eigenvalues --   -0.39804  -0.39681  -0.39467  -0.39315  -0.39139
 Alpha  occ. eigenvalues --   -0.38962  -0.38877  -0.38735  -0.38328  -0.38160
 Alpha  occ. eigenvalues --   -0.37824  -0.37789  -0.37751  -0.37693  -0.37178
 Alpha  occ. eigenvalues --   -0.37096  -0.36929  -0.36894  -0.36381  -0.36373
 Alpha  occ. eigenvalues --   -0.36342  -0.36162  -0.35873  -0.35812  -0.35500
 Alpha  occ. eigenvalues --   -0.35362  -0.35278  -0.34766  -0.34728  -0.34603
 Alpha  occ. eigenvalues --   -0.34486  -0.33999  -0.33970  -0.33719  -0.33673
 Alpha  occ. eigenvalues --   -0.33477  -0.33143  -0.33085  -0.32825  -0.32494
 Alpha  occ. eigenvalues --   -0.32384  -0.32172  -0.32139  -0.31701  -0.31039
 Alpha  occ. eigenvalues --   -0.30880  -0.30641  -0.30311  -0.29894  -0.29799
 Alpha  occ. eigenvalues --   -0.29785  -0.29570  -0.28958  -0.28237  -0.28038
 Alpha  occ. eigenvalues --   -0.27970  -0.27360  -0.27141  -0.26845  -0.26125
 Alpha  occ. eigenvalues --   -0.25683  -0.24409  -0.24264  -0.23049  -0.19894
 Alpha  occ. eigenvalues --   -0.18853
 Alpha virt. eigenvalues --   -0.10324  -0.07471  -0.05169  -0.01427  -0.01272
 Alpha virt. eigenvalues --   -0.00509  -0.00215   0.00357   0.02211   0.02730
 Alpha virt. eigenvalues --    0.02958   0.03934   0.04005   0.04270   0.04577

 Mulliken charges:
               1
     1  C   -0.041021
     2  C   -0.127689
     3  C   -0.118479
     4  C   -0.133275
     5  N   -0.135323
     6  C   -0.106148
     7  C   -0.100039
     8  C    0.045050
     9  C    0.000106
    10  C    0.055354
    11  C    0.142547
    12  C   -0.131736
    13  C    0.214012
    14  O   -0.220193
    15  O   -0.348167
    16  N   -0.130116
    17  C    0.121737
    18  C   -0.134766
    19  C    0.003103
    20  C    0.075192
    21  C    0.031610
    22  C    0.057578
    23  C   -0.092969
    24  N   -0.318965
    25  C    0.092206
    26  C   -0.077791
    27  C   -0.097847
    28  C    0.103656
    29  C    0.001022
    30  C    0.075931
    31  C   -0.060842
    32  N    0.024324
    33  C    0.050050
    34  C   -0.157842
    35  C   -0.019278
    36  C    0.067971
    37  C    0.091215
    38  C    0.110079
    39  O   -0.177992
    40  C   -0.009250
    41  C    0.163097
    42  O   -0.176632
    43  O   -0.302729
    44  C    0.142264
    45  C    0.297498
    46  C   -0.025905
    47  C   -0.063529
    48  C    0.012735
    49  C    0.017940
    50  C    0.094859
    51  C    0.039862
    52  C   -0.021326
    53  C    0.033443
    54  C   -0.147924
    55  C    0.148305
    56  C    0.023161
    57  C   -0.116598
    58  C    0.027940
    59  C    0.100690
    60  C   -0.055642
    61  C   -0.016873
    62  C   -0.100518
    63  C   -0.007112
    64  C   -0.006948
    65  H    0.022316
    66  H    0.023638
    67  H    0.017906
    68  H    0.008439
    69  H   -0.049309
    70  H    0.017530
    71  H    0.000125
    72  H    0.017692
    73  H    0.015671
    74  H    0.013302
    75  H    0.082575
    76  H    0.054514
    77  H    0.046601
    78  H    0.043530
    79  H    0.041466
    80  H   -0.026909
    81  H    0.051025
    82  H    0.012554
    83  H    0.043926
    84  H    0.048326
    85  H    0.032193
    86  H    0.012019
    87  H    0.012782
    88  H    0.043758
    89  H    0.016255
    90  H    0.017515
    91  H    0.032530
    92  H    0.012899
    93  H    0.053493
    94  H    0.084455
    95  H    0.054808
    96  H    0.024612
    97  H    0.030464
    98  H   -0.004216
    99  H    0.019172
   100  H   -0.055034
   101  H    0.019610
   102  H    0.014230
   103  H    0.026378
   104  H    0.002757
   105  H    0.003624
   106  H   -0.019569
   107  H   -0.007189
   108  H   -0.034820
   109  H   -0.029638
   110  H   -0.016237
   111  H    0.010794
   112  H   -0.007310
   113  H    0.043636
   114  H    0.020776
   115  H   -0.006518
   116  H   -0.017996
   117  H   -0.014711
   118  H   -0.017217
   119  H   -0.006849
   120  H   -0.010613
   121  H    0.001580
   122  H    0.028777
   123  H    0.018586
   124  H   -0.031424
   125  H    0.000179
   126  H    0.023372
   127  H   -0.002641
   128  H    0.029284
   129  H    0.001688
   130  H    0.023304
   131  H   -0.002163
   132  H    0.007269
   133  H    0.031840
   134  H    0.016500
   135  H    0.006551
   136  H    0.012437
   137  H    0.175338
   138  H    0.150692
 Sum of Mulliken charges =  -0.00000

 Dipole moment (field-independent basis, Debye):
    X=              1.9639    Y=              3.3440    Z=              0.0855  Tot=              3.8790
 Quadrupole moment (field-independent basis, Debye-Ang):
   XX=           -355.3452   YY=           -383.3384   ZZ=           -396.2748
   XY=            -25.0551   XZ=              0.0602   YZ=              0.7277

 Normal termination of Gaussian 16 at Mon Aug 26 21:46:47 2019.
