 Gaussian 16, Revision A.03,
 Gaussian 16:  ES64L-G16RevA.03 25-Dec-2016

 --------------------------
 # td=(NStates=1) B3LYP/SVP
 --------------------------

 --
 TD
 --
 Symbolic Z-matrix:
 Charge =  0 Multiplicity = 1

                         Standard orientation:
 ---------------------------------------------------------------------
 Center     Atomic      Atomic             Coordinates (Angstroms)
 Number     Number       Type             X           Y           Z
 ---------------------------------------------------------------------
      1          6           0       -5.156559   -2.020045    0.465649
      2          6           0       -4.575168    2.798599    1.382633
      3          6           0       -9.291089    3.490106   -0.187290
      4          6           0       -9.894082   -1.326691   -0.825593
      5          7           0       -5.157817    0.480333    0.664586
      6          6           0       -4.509966   -0.764725    0.879924
      7          6           0       -2.975013   -0.644659    1.201032
      8          6           0       -2.996073    0.872107    1.724998
      9          6           0       -4.358434    1.421354    1.188223
     10          6           0       -2.978308    0.940152    3.246488
     11          6           0       -1.987136   -0.928151    0.184538
     12          6           0       -0.577915   -0.971750    0.548965
     13          6           0        0.433554   -1.263254   -0.596300
     14          8           0        0.160675   -1.795871   -1.712828
     15          8           0        1.712485   -0.866332   -0.290427
     16          7           0       -6.875535    2.849134    0.521512
     17          6           0       -5.782966    3.436800    0.931416
     18          6           0       -6.101206    4.811990    0.940889
     19          6           0       -7.277077    5.049002    0.532761
     20          6           0       -8.001819    3.697250    0.272475
     21          6           0       -5.122050    5.875021    1.275756
     22          6           0       -7.891160    6.369717    0.347657
     23          6           0       -8.857976    6.872692   -0.507111
     24          7           0       -9.115117    1.065719   -0.486732
     25          6           0       -9.741811    2.220176   -0.504277
     26          6           0      -11.176314    1.979897   -0.821974
     27          6           0      -11.396677    0.617192   -1.036116
     28          6           0      -10.152765    0.063958   -0.861829
     29          6           0      -12.120922    3.151655   -1.073124
     30          6           0      -12.584138   -0.054184   -1.447620
     31          6           0      -12.798928   -0.379079   -2.956343
     32          7           0       -7.524937   -1.281798   -0.314357
     33          6           0       -8.585380   -1.925905   -0.590264
     34          6           0       -8.294234   -3.364146   -0.592320
     35          6           0       -6.950602   -3.396936   -0.217869
     36          6           0       -6.529079   -2.034762   -0.009811
     37          6           0       -9.078613   -4.550102   -0.872797
     38          6           0       -5.796008   -4.360263   -0.059381
     39          8           0       -5.872330   -5.560071   -0.051587
     40          6           0       -4.571749   -3.403219    0.464553
     41          6           0       -3.974997   -3.853263    1.808657
     42          8           0       -4.295218   -3.435693    2.921013
     43          8           0       -3.221929   -4.949918    1.577790
     44          6           0       -2.573550   -5.595526    2.637379
     45          6           0        2.661124   -1.370784   -1.258172
     46          6           0        4.012922   -0.900243   -0.642979
     47          6           0        4.936413   -0.067419   -1.181079
     48          6           0        4.662080    0.616337   -2.538766
     49          6           0        6.211871    0.268216   -0.476034
     50          6           0        7.434066   -0.509794   -1.166381
     51          6           0        8.703776   -0.207903   -0.392458
     52          6           0       10.074907   -0.807215   -0.885055
     53          6           0       10.009674   -2.326776   -0.949799
     54          6           0       11.251017   -0.273957   -0.140465
     55          6           0       12.695760   -0.720883   -0.646604
     56          6           0       13.792840    0.003135    0.107023
     57          6           0       15.261538   -0.168944   -0.395853
     58          6           0       15.541230   -1.547258   -0.512154
     59          6           0       16.185797    0.640007    0.425229
     60          6           0       17.631996    0.822470   -0.044496
     61          6           0       18.474273    1.683156    0.784397
     62          6           0       19.944185    1.768471    0.388861
     63          6           0       20.137205    2.363697   -1.046529
     64          6           0       20.817854    2.532637    1.400758
     65          1           0       -3.766918    3.394863    1.869711
     66          1           0       -9.780956    4.322109   -0.295744
     67          1           0      -10.777891   -2.033463   -0.944808
     68          1           0       -2.886208   -1.360986    1.998520
     69          1           0       -2.128276    1.365652    1.389940
     70          1           0       -2.124746    0.419716    3.778830
     71          1           0       -2.852994    1.934203    3.762175
     72          1           0       -3.922715    0.585667    3.882100
     73          1           0       -2.171052   -1.868720   -0.252339
     74          1           0       -1.956829   -0.232128   -0.733824
     75          1           0       -0.174501    0.116615    0.959316
     76          1           0       -0.294949   -1.623690    1.421006
     77          1           0       -4.153154    5.903002    0.656118
     78          1           0       -5.536520    6.908781    1.556706
     79          1           0       -4.515108    5.460772    2.203201
     80          1           0       -7.425117    6.963590    0.846374
     81          1           0       -9.321175    6.118970   -1.170240
     82          1           0       -9.314671    7.817227   -0.551243
     83          1           0      -11.974435    4.008809   -0.253619
     84          1           0      -11.936897    3.539209   -2.187745
     85          1           0      -13.286049    2.698945   -0.816630
     86          1           0      -12.850439   -1.141220   -0.821249
     87          1           0      -13.555899    0.599714   -1.146037
     88          1           0      -13.100442    0.676142   -3.612805
     89          1           0      -12.011356   -1.061675   -3.416083
     90          1           0      -13.716202   -1.112509   -3.004024
     91          1           0      -10.014963   -4.417037   -0.044075
     92          1           0       -9.604880   -4.756850   -2.085872
     93          1           0       -8.465154   -5.483617   -0.665704
     94          1           0       -3.782522   -3.620128   -0.380725
     95          1           0       -1.874161   -6.209901    2.103498
     96          1           0       -1.875902   -4.859813    3.228945
     97          1           0       -3.258140   -6.112857    3.417391
     98          1           0        2.723299   -2.479728   -1.330033
     99          1           0        2.501513   -0.952431   -2.157660
    100          1           0        4.543196   -1.646750    0.240613
    101          1           0        5.096722    1.671550   -2.615545
    102          1           0        5.056102    0.193259   -3.351409
    103          1           0        3.552237    0.728273   -2.729852
    104          1           0        6.516821    1.260695   -0.653281
    105          1           0        6.205788    0.167119    0.620605
    106          1           0        7.164406   -1.624783   -1.335932
    107          1           0        7.491288   -0.284952   -2.204904
    108          1           0        8.810212    0.861073   -0.143789
    109          1           0        8.481366   -0.659614    0.543143
    110          1           0       10.006297   -0.252219   -1.884789
    111          1           0        9.144768   -2.456060   -1.796952
    112          1           0       10.889440   -2.872300   -1.431081
    113          1           0       10.005784   -2.564550    0.011527
    114          1           0       11.215545    0.925621   -0.066862
    115          1           0       11.178199   -0.908222    0.896473
    116          1           0       12.877446   -1.792918   -0.537041
    117          1           0       12.790425   -0.619773   -1.808780
    118          1           0       13.524611    1.124910    0.113081
    119          1           0       13.962033   -0.276402    1.194335
    120          1           0       15.390766    0.100728   -1.466070
    121          1           0       14.881108   -2.237489   -1.095679
    122          1           0       16.578082   -1.796015   -1.146750
    123          1           0       15.726663   -1.981025    0.532483
    124          1           0       15.812004    1.682497    0.750170
    125          1           0       16.316641    0.256161    1.279060
    126          1           0       18.161904   -0.180189   -0.314525
    127          1           0       17.398926    1.062915   -1.110313
    128          1           0       17.977706    2.617925    0.858795
    129          1           0       18.465339    1.407518    1.748272
    130          1           0       20.500658    0.736406    0.124052
    131          1           0       19.825002    3.421859   -0.970995
    132          1           0       21.218270    2.298582   -1.340681
    133          1           0       19.571652    1.872262   -1.960743
    134          1           0       20.881724    1.804874    2.295812
    135          1           0       21.911116    2.715694    1.007245
    136          1           0       20.402285    3.476869    1.688198
    137          1           0       -7.071719    1.838860    0.494918
    138          1           0       -7.715916   -0.277985   -0.103442
 ---------------------------------------------------------------------

 SCF Done:  E(RB3LYP) =  -2732.99391493     A.U. after   18 cycles

 Excitation energies and oscillator strengths:

 Excited State   1:      Singlet-A      2.0369 eV  608.69 nm  f=0.1807  <S**2>=0.000
     235 -> 237       -0.11291
     235 -> 238        0.27093
     236 -> 237        0.63873
 This state for optimization and/or second-order correction.
 Total Energy, E(TD-HF/TD-DFT) =  -2732.91906029
 Copying the excited state density for this state as the 1-particle RhoCI density.

 The electronic state is 1-A.
 Alpha  occ. eigenvalues --  -19.18428 -19.18407 -19.13396 -19.12933 -19.12888
 Alpha  occ. eigenvalues --  -14.37747 -14.37629 -14.32973 -14.30612 -10.32533
 Alpha  occ. eigenvalues --  -10.32345 -10.28979 -10.25535 -10.24625 -10.24483
 Alpha  occ. eigenvalues --  -10.24459 -10.24005 -10.23418 -10.23258 -10.23155
 Alpha  occ. eigenvalues --  -10.22749 -10.22359 -10.22293 -10.22042 -10.21750
 Alpha  occ. eigenvalues --  -10.21516 -10.21477 -10.21395 -10.21358 -10.21262
 Alpha  occ. eigenvalues --  -10.21222 -10.20855 -10.20540 -10.20489 -10.20423
 Alpha  occ. eigenvalues --  -10.20207 -10.20192 -10.20184 -10.19971 -10.19933
 Alpha  occ. eigenvalues --  -10.19819 -10.19714 -10.19470 -10.19346 -10.19289
 Alpha  occ. eigenvalues --  -10.19216 -10.19163 -10.19162 -10.19158 -10.19076
 Alpha  occ. eigenvalues --  -10.18999 -10.18979 -10.18946 -10.18873 -10.18808
 Alpha  occ. eigenvalues --  -10.18653 -10.18606 -10.18167 -10.18122 -10.18019
 Alpha  occ. eigenvalues --  -10.18009 -10.17847 -10.16882 -10.16521  -1.09785
 Alpha  occ. eigenvalues --   -1.08515  -1.04048  -1.03024  -1.00541  -0.99482
 Alpha  occ. eigenvalues --   -0.98551  -0.93078  -0.92846  -0.84208  -0.83586
 Alpha  occ. eigenvalues --   -0.83465  -0.82624  -0.82263  -0.81790  -0.80954
 Alpha  occ. eigenvalues --   -0.80386  -0.80167  -0.79553  -0.78226  -0.77490
 Alpha  occ. eigenvalues --   -0.76796  -0.76261  -0.76090  -0.75226  -0.74222
 Alpha  occ. eigenvalues --   -0.73683  -0.73241  -0.72501  -0.71905  -0.70313
 Alpha  occ. eigenvalues --   -0.69982  -0.69423  -0.68538  -0.68279  -0.68162
 Alpha  occ. eigenvalues --   -0.66856  -0.66640  -0.66451  -0.66059  -0.65075
 Alpha  occ. eigenvalues --   -0.63900  -0.63441  -0.62850  -0.62284  -0.61620
 Alpha  occ. eigenvalues --   -0.60924  -0.59580  -0.59065  -0.58058  -0.57919
 Alpha  occ. eigenvalues --   -0.57718  -0.56401  -0.56210  -0.56053  -0.55787
 Alpha  occ. eigenvalues --   -0.55416  -0.54854  -0.54804  -0.54556  -0.52968
 Alpha  occ. eigenvalues --   -0.52375  -0.51936  -0.51533  -0.50814  -0.50247
 Alpha  occ. eigenvalues --   -0.49999  -0.49397  -0.49031  -0.48686  -0.48408
 Alpha  occ. eigenvalues --   -0.48085  -0.47865  -0.47683  -0.47408  -0.47286
 Alpha  occ. eigenvalues --   -0.46929  -0.46756  -0.46576  -0.46182  -0.46093
 Alpha  occ. eigenvalues --   -0.45675  -0.45358  -0.44945  -0.44825  -0.44513
 Alpha  occ. eigenvalues --   -0.44292  -0.44095  -0.43957  -0.43826  -0.43742
 Alpha  occ. eigenvalues --   -0.43553  -0.43263  -0.42822  -0.42763  -0.42758
 Alpha  occ. eigenvalues --   -0.42685  -0.42416  -0.42263  -0.41813  -0.41646
 Alpha  occ. eigenvalues --   -0.41463  -0.41176  -0.40980  -0.40503  -0.40310
 Alpha  occ. eigenvalues --   -0.40210  -0.39893  -0.39670  -0.39467  -0.39308
 Alpha  occ. eigenvalues --   -0.39198  -0.39062  -0.38873  -0.38842  -0.38747
 Alpha  occ. eigenvalues --   -0.38591  -0.38237  -0.37863  -0.37736  -0.37419
 Alpha  occ. eigenvalues --   -0.37254  -0.37196  -0.37089  -0.36909  -0.36781
 Alpha  occ. eigenvalues --   -0.36641  -0.36028  -0.35862  -0.35815  -0.35723
 Alpha  occ. eigenvalues --   -0.35612  -0.35509  -0.35296  -0.35079  -0.34902
 Alpha  occ. eigenvalues --   -0.34605  -0.34391  -0.34134  -0.33669  -0.33334
 Alpha  occ. eigenvalues --   -0.33316  -0.33031  -0.32868  -0.32659  -0.32489
 Alpha  occ. eigenvalues --   -0.32401  -0.31883  -0.31755  -0.31159  -0.31139
 Alpha  occ. eigenvalues --   -0.30975  -0.30754  -0.30625  -0.30541  -0.29831
 Alpha  occ. eigenvalues --   -0.29437  -0.28975  -0.28632  -0.28492  -0.28077
 Alpha  occ. eigenvalues --   -0.27727  -0.27339  -0.26855  -0.26500  -0.25792
 Alpha  occ. eigenvalues --   -0.25255  -0.24617  -0.24414  -0.22598  -0.20363
 Alpha  occ. eigenvalues --   -0.18502
 Alpha virt. eigenvalues --   -0.09987  -0.08074  -0.04850  -0.02613  -0.01581
 Alpha virt. eigenvalues --   -0.01408  -0.00481   0.00099   0.01599   0.02614
 Alpha virt. eigenvalues --    0.03764   0.03805   0.03916   0.04507   0.04655

 Mulliken charges:
               1
     1  C   -0.028502
     2  C   -0.097320
     3  C    0.004675
     4  C   -0.080935
     5  N   -0.198872
     6  C   -0.038160
     7  C    0.030790
     8  C   -0.000318
     9  C    0.041740
    10  C   -0.025344
    11  C    0.144138
    12  C   -0.050730
    13  C    0.204587
    14  O   -0.284472
    15  O   -0.312895
    16  N   -0.050766
    17  C    0.106769
    18  C   -0.076591
    19  C    0.016167
    20  C    0.064371
    21  C    0.029301
    22  C    0.063527
    23  C    0.000391
    24  N   -0.289812
    25  C    0.146523
    26  C   -0.170654
    27  C    0.055563
    28  C    0.074999
    29  C   -0.030634
    30  C   -0.092577
    31  C   -0.047331
    32  N    0.177446
    33  C   -0.049650
    34  C   -0.095051
    35  C   -0.067315
    36  C    0.034747
    37  C   -0.073198
    38  C    0.112949
    39  O   -0.146512
    40  C   -0.101306
    41  C    0.226050
    42  O   -0.232782
    43  O   -0.282358
    44  C    0.149591
    45  C    0.334787
    46  C   -0.147270
    47  C   -0.138491
    48  C    0.071229
    49  C    0.118189
    50  C   -0.027221
    51  C    0.059799
    52  C   -0.058445
    53  C    0.051965
    54  C   -0.032244
    55  C    0.028756
    56  C   -0.002933
    57  C    0.007661
    58  C   -0.049635
    59  C    0.119035
    60  C   -0.034652
    61  C    0.204780
    62  C   -0.147209
    63  C   -0.024552
    64  C    0.013266
    65  H   -0.003997
    66  H   -0.127549
    67  H    0.006560
    68  H   -0.006036
    69  H   -0.019267
    70  H    0.013084
    71  H    0.003264
    72  H    0.036573
    73  H   -0.013452
    74  H    0.013830
    75  H    0.044012
    76  H    0.036862
    77  H    0.033908
    78  H    0.050315
    79  H    0.014711
    80  H   -0.145581
    81  H    0.024739
    82  H    0.020555
    83  H    0.049396
    84  H    0.064224
    85  H    0.039481
    86  H    0.026276
    87  H    0.020677
    88  H    0.047200
    89  H    0.031849
    90  H    0.020692
    91  H    0.053735
    92  H    0.058284
    93  H    0.062173
    94  H    0.082390
    95  H    0.029802
    96  H    0.026296
    97  H    0.059523
    98  H    0.032825
    99  H   -0.022668
   100  H    0.023751
   101  H    0.007552
   102  H   -0.003176
   103  H    0.030318
   104  H   -0.020832
   105  H    0.007025
   106  H    0.008786
   107  H   -0.027150
   108  H   -0.009759
   109  H   -0.032807
   110  H   -0.016140
   111  H    0.039356
   112  H    0.020875
   113  H   -0.022935
   114  H    0.023197
   115  H    0.004876
   116  H   -0.000861
   117  H    0.002266
   118  H   -0.000124
   119  H   -0.001188
   120  H   -0.023254
   121  H    0.023995
   122  H    0.009473
   123  H   -0.001941
   124  H   -0.013525
   125  H   -0.090995
   126  H   -0.008051
   127  H   -0.016094
   128  H   -0.032290
   129  H   -0.057121
   130  H    0.009786
   131  H   -0.001728
   132  H    0.008126
   133  H    0.027781
   134  H    0.023780
   135  H    0.022237
   136  H    0.008081
   137  H    0.153493
   138  H    0.153478
 Sum of Mulliken charges =  -0.00000

 Dipole moment (field-independent basis, Debye):
    X=              2.6984    Y=              3.9884    Z=              0.7975  Tot=              4.8810
 Quadrupole moment (field-independent basis, Debye-Ang):
   XX=           -371.3506   YY=           -381.7475   ZZ=           -397.9449
   XY=            -26.7549   XZ=              8.8268   YZ=              1.0973

 Normal termination of Gaussian 16 at Wed Aug 21 10:13:32 2019.
