 Gaussian 16, Revision A.03,
 Gaussian 16:  ES64L-G16RevA.03 25-Dec-2016

 --------------------------
 # td=(NStates=1) B3LYP/SVP
 --------------------------

 --
 TD
 --
 Symbolic Z-matrix:
 Charge =  0 Multiplicity = 1

                         Standard orientation:
 ---------------------------------------------------------------------
 Center     Atomic      Atomic             Coordinates (Angstroms)
 Number     Number       Type             X           Y           Z
 ---------------------------------------------------------------------
      1          6           0       -4.984748   -1.885309    0.503079
      2          6           0       -4.899144    2.825918    1.339527
      3          6           0       -9.535896    3.244204   -0.148786
      4          6           0       -9.784271   -1.580273   -0.920059
      5          7           0       -5.224048    0.443495    0.924040
      6          6           0       -4.447510   -0.657641    0.939123
      7          6           0       -3.065197   -0.376622    1.274806
      8          6           0       -3.142746    0.970344    1.848260
      9          6           0       -4.528496    1.483172    1.321300
     10          6           0       -2.990363    1.042667    3.438987
     11          6           0       -2.133346   -0.550476    0.083591
     12          6           0       -0.593967   -0.392381    0.537611
     13          6           0        0.343383   -0.749613   -0.637474
     14          8           0       -0.098088   -1.236932   -1.724839
     15          8           0        1.598969   -0.631075   -0.241711
     16          7           0       -7.192899    2.793662    0.471784
     17          6           0       -6.126272    3.420752    0.990108
     18          6           0       -6.510984    4.798483    1.071822
     19          6           0       -7.748273    4.937957    0.523001
     20          6           0       -8.181320    3.605048    0.084955
     21          6           0       -5.563269    5.910145    1.508906
     22          6           0       -8.442373    6.217079    0.284156
     23          6           0       -9.381175    6.557289   -0.523219
     24          7           0       -9.269515    0.747473   -0.430485
     25          6           0       -9.961425    1.945826   -0.522583
     26          6           0      -11.351283    1.611776   -0.968821
     27          6           0      -11.465920    0.335573   -1.264288
     28          6           0      -10.135804   -0.222548   -0.889981
     29          6           0      -12.333952    2.745502   -1.207803
     30          6           0      -12.596765   -0.518923   -1.785478
     31          6           0      -12.447929   -0.872193   -3.291395
     32          7           0       -7.447049   -1.327012   -0.076297
     33          6           0       -8.538980   -2.121869   -0.564541
     34          6           0       -8.030666   -3.511948   -0.603882
     35          6           0       -6.669052   -3.377875   -0.224716
     36          6           0       -6.379187   -2.112539    0.105890
     37          6           0       -8.744571   -4.742471   -0.932286
     38          6           0       -5.523517   -4.292298    0.142465
     39          8           0       -5.395847   -5.536435    0.035168
     40          6           0       -4.461954   -3.318466    0.513146
     41          6           0       -3.785294   -3.761494    1.787320
     42          8           0       -3.924799   -3.276110    2.902994
     43          8           0       -2.885118   -4.794806    1.591641
     44          6           0       -2.425722   -5.478957    2.675458
     45          6           0        2.680968   -0.958109   -1.271949
     46          6           0        4.026221   -0.442020   -0.660482
     47          6           0        4.959802    0.222366   -1.291292
     48          6           0        5.020575    0.697775   -2.726439
     49          6           0        6.294292    0.446584   -0.563326
     50          6           0        7.567001   -0.383169   -1.092125
     51          6           0        8.804608   -0.079437   -0.234731
     52          6           0       10.101679   -0.704119   -0.812523
     53          6           0        9.860837   -2.274942   -0.872708
     54          6           0       11.293692   -0.190385   -0.051655
     55          6           0       12.733419   -0.768586   -0.384034
     56          6           0       13.833195   -0.047435    0.327313
     57          6           0       15.172454   -0.150446   -0.236273
     58          6           0       15.707883   -1.572408   -0.266086
     59          6           0       16.264489    0.708270    0.538706
     60          6           0       17.668012    0.609492   -0.109695
     61          6           0       18.705462    1.568052    0.582611
     62          6           0       20.118317    1.531673    0.109258
     63          6           0       20.244370    2.032507   -1.254732
     64          6           0       21.097449    2.408823    1.026827
     65          1           0       -4.120015    3.576742    1.738363
     66          1           0      -10.256995    4.114124   -0.388405
     67          1           0      -10.656360   -2.313539   -0.856390
     68          1           0       -2.708812   -1.050241    2.036565
     69          1           0       -2.336604    1.637665    1.545286
     70          1           0       -1.923705    0.926326    3.843665
     71          1           0       -3.173684    2.101927    3.851579
     72          1           0       -3.551173    0.396082    4.154945
     73          1           0       -2.284898   -1.628546   -0.335691
     74          1           0       -2.062064    0.382161   -0.610097
     75          1           0       -0.308134    0.490830    1.038777
     76          1           0       -0.394798   -1.200726    1.243899
     77          1           0       -4.660121    5.942050    0.788466
     78          1           0       -5.988573    6.853008    1.566774
     79          1           0       -5.152939    5.668585    2.600863
     80          1           0       -8.041781    6.900299    0.966241
     81          1           0       -9.982452    5.823395   -1.229470
     82          1           0       -9.916150    7.496438   -0.602093
     83          1           0      -12.555309    3.341316   -0.325963
     84          1           0      -11.821080    3.474108   -1.941461
     85          1           0      -13.352031    2.648886   -1.726145
     86          1           0      -12.729407   -1.437601   -1.086584
     87          1           0      -13.460894    0.074080   -1.584548
     88          1           0      -12.543977    0.059940   -3.825898
     89          1           0      -11.559408   -1.327985   -3.566839
     90          1           0      -13.290167   -1.596033   -3.573440
     91          1           0       -9.906212   -4.558673   -0.722706
     92          1           0       -8.681792   -4.879656   -2.037968
     93          1           0       -8.199320   -5.680316   -0.355357
     94          1           0       -3.753504   -3.407498   -0.185216
     95          1           0       -1.714336   -6.455561    2.636475
     96          1           0       -1.976160   -4.813892    3.263696
     97          1           0       -3.292831   -5.819708    3.286748
     98          1           0        2.787368   -2.164658   -1.444192
     99          1           0        2.274188   -0.677384   -2.243324
    100          1           0        3.832390   -0.595318    0.526404
    101          1           0        5.154997    1.852779   -2.803963
    102          1           0        5.449223    0.061619   -3.510270
    103          1           0        3.842616    0.781054   -3.018211
    104          1           0        6.432298    1.621089   -0.476049
    105          1           0        6.297105   -0.033709    0.500405
    106          1           0        7.353157   -1.570781   -1.037701
    107          1           0        7.723352   -0.340571   -2.148133
    108          1           0        8.890449    1.038817   -0.381163
    109          1           0        8.869206   -0.349888    0.967683
    110          1           0       10.315361   -0.368333   -1.918356
    111          1           0        9.183401   -2.482292   -1.543713
    112          1           0       10.778120   -2.971142   -1.358707
    113          1           0        9.535669   -2.817171    0.031900
    114          1           0       11.269276    0.838227   -0.152764
    115          1           0       11.068538   -0.483020    0.990321
    116          1           0       12.889974   -1.890615   -0.608664
    117          1           0       12.870237   -0.372369   -1.431232
    118          1           0       13.532637    1.028949    0.333896
    119          1           0       13.871205   -0.537278    1.242803
    120          1           0       15.269497    0.419687   -1.165609
    121          1           0       14.984591   -2.288981   -0.774869
    122          1           0       16.796499   -1.607357   -0.875588
    123          1           0       15.783745   -1.981487    0.683359
    124          1           0       15.941396    1.629702    0.659113
    125          1           0       16.322851    0.102090    1.527815
    126          1           0       18.127768   -0.400435   -0.146795
    127          1           0       17.400086    0.844167   -1.142030
    128          1           0       18.222508    2.712167    0.405267
    129          1           0       18.730388    1.398192    1.764308
    130          1           0       20.517444    0.458012    0.187927
    131          1           0       20.128813    3.104815   -1.397428
    132          1           0       21.232286    2.036772   -1.911057
    133          1           0       19.490176    1.663084   -2.172206
    134          1           0       20.867491    2.123815    2.060549
    135          1           0       22.155473    2.316126    0.663865
    136          1           0       20.710403    3.327713    0.975964
    137          1           0       -6.996999    1.723096    0.331200
    138          1           0       -7.496273   -0.381571    0.002673
 ---------------------------------------------------------------------

 SCF Done:  E(RB3LYP) =  -2733.10750482     A.U. after   17 cycles

 Excitation energies and oscillator strengths:

 Excited State   1:      Singlet-A      2.0528 eV  603.97 nm  f=0.1774  <S**2>=0.000
     235 -> 237       -0.18010
     235 -> 238        0.28127
     236 -> 237        0.60834
     236 -> 238        0.12782
 This state for optimization and/or second-order correction.
 Total Energy, E(TD-HF/TD-DFT) =  -2733.03206563
 Copying the excited state density for this state as the 1-particle RhoCI density.

 The electronic state is 1-A.
 Alpha  occ. eigenvalues --  -19.19190 -19.17116 -19.12826 -19.12401 -19.11937
 Alpha  occ. eigenvalues --  -14.37570 -14.36213 -14.32317 -14.30234 -10.32321
 Alpha  occ. eigenvalues --  -10.31919 -10.28236 -10.27008 -10.23838 -10.23794
 Alpha  occ. eigenvalues --  -10.23633 -10.23408 -10.23046 -10.22966 -10.22813
 Alpha  occ. eigenvalues --  -10.21754 -10.21615 -10.21525 -10.21287 -10.21259
 Alpha  occ. eigenvalues --  -10.21127 -10.21073 -10.20977 -10.20977 -10.20906
 Alpha  occ. eigenvalues --  -10.20863 -10.20834 -10.20804 -10.20638 -10.20483
 Alpha  occ. eigenvalues --  -10.20413 -10.20387 -10.20376 -10.20275 -10.20198
 Alpha  occ. eigenvalues --  -10.20141 -10.20131 -10.20118 -10.19859 -10.19843
 Alpha  occ. eigenvalues --  -10.19727 -10.19705 -10.19589 -10.19527 -10.18909
 Alpha  occ. eigenvalues --  -10.18850 -10.18596 -10.18482 -10.18453 -10.18436
 Alpha  occ. eigenvalues --  -10.18234 -10.18190 -10.18177 -10.18036 -10.17969
 Alpha  occ. eigenvalues --  -10.17905 -10.17431 -10.17426 -10.17102  -1.09360
 Alpha  occ. eigenvalues --   -1.08517  -1.00696  -1.00448  -0.99871  -0.98064
 Alpha  occ. eigenvalues --   -0.97957  -0.96302  -0.92468  -0.85739  -0.82807
 Alpha  occ. eigenvalues --   -0.82348  -0.82275  -0.81680  -0.81035  -0.80876
 Alpha  occ. eigenvalues --   -0.80394  -0.80142  -0.79271  -0.78696  -0.77272
 Alpha  occ. eigenvalues --   -0.76915  -0.76300  -0.76094  -0.74890  -0.74270
 Alpha  occ. eigenvalues --   -0.73467  -0.73183  -0.72494  -0.71219  -0.70545
 Alpha  occ. eigenvalues --   -0.70157  -0.69399  -0.68875  -0.68175  -0.67660
 Alpha  occ. eigenvalues --   -0.67365  -0.67254  -0.66360  -0.65997  -0.65155
 Alpha  occ. eigenvalues --   -0.63830  -0.63173  -0.62649  -0.62435  -0.62181
 Alpha  occ. eigenvalues --   -0.61566  -0.59237  -0.58334  -0.58235  -0.58004
 Alpha  occ. eigenvalues --   -0.57123  -0.56712  -0.56292  -0.55620  -0.55366
 Alpha  occ. eigenvalues --   -0.54855  -0.54746  -0.54409  -0.54392  -0.52921
 Alpha  occ. eigenvalues --   -0.52799  -0.52301  -0.51833  -0.51362  -0.50834
 Alpha  occ. eigenvalues --   -0.49687  -0.49317  -0.48972  -0.48613  -0.48481
 Alpha  occ. eigenvalues --   -0.47882  -0.47724  -0.47514  -0.47352  -0.46843
 Alpha  occ. eigenvalues --   -0.46576  -0.46255  -0.46220  -0.45949  -0.45787
 Alpha  occ. eigenvalues --   -0.45366  -0.45141  -0.44869  -0.44666  -0.44507
 Alpha  occ. eigenvalues --   -0.44388  -0.44279  -0.44212  -0.43919  -0.43803
 Alpha  occ. eigenvalues --   -0.43649  -0.43398  -0.43072  -0.42738  -0.42616
 Alpha  occ. eigenvalues --   -0.42545  -0.42198  -0.42022  -0.41892  -0.41487
 Alpha  occ. eigenvalues --   -0.41246  -0.40781  -0.40622  -0.40335  -0.40331
 Alpha  occ. eigenvalues --   -0.40189  -0.39639  -0.39625  -0.39485  -0.39075
 Alpha  occ. eigenvalues --   -0.38986  -0.38708  -0.38601  -0.38527  -0.38318
 Alpha  occ. eigenvalues --   -0.38048  -0.37924  -0.37838  -0.37716  -0.37424
 Alpha  occ. eigenvalues --   -0.37397  -0.37224  -0.36753  -0.36575  -0.36392
 Alpha  occ. eigenvalues --   -0.36250  -0.36179  -0.36036  -0.35767  -0.35694
 Alpha  occ. eigenvalues --   -0.35624  -0.35548  -0.35365  -0.34993  -0.34621
 Alpha  occ. eigenvalues --   -0.34611  -0.34211  -0.34156  -0.33852  -0.33591
 Alpha  occ. eigenvalues --   -0.33474  -0.33344  -0.33270  -0.32593  -0.32526
 Alpha  occ. eigenvalues --   -0.32273  -0.32061  -0.32007  -0.31389  -0.31238
 Alpha  occ. eigenvalues --   -0.31108  -0.30835  -0.30439  -0.29968  -0.29821
 Alpha  occ. eigenvalues --   -0.29521  -0.29500  -0.28351  -0.28157  -0.27929
 Alpha  occ. eigenvalues --   -0.27554  -0.27080  -0.26456  -0.26334  -0.26250
 Alpha  occ. eigenvalues --   -0.25624  -0.25261  -0.24685  -0.23440  -0.19802
 Alpha  occ. eigenvalues --   -0.19071
 Alpha virt. eigenvalues --   -0.10540  -0.07425  -0.04446  -0.01452  -0.00790
 Alpha virt. eigenvalues --   -0.00625  -0.00147   0.00358   0.02110   0.03726
 Alpha virt. eigenvalues --    0.04048   0.04128   0.04343   0.04647   0.04724

 Mulliken charges:
               1
     1  C    0.021012
     2  C   -0.076787
     3  C   -0.073895
     4  C   -0.090201
     5  N   -0.148644
     6  C   -0.072562
     7  C    0.063231
     8  C   -0.029390
     9  C    0.008579
    10  C   -0.007792
    11  C    0.024526
    12  C    0.011152
    13  C    0.202583
    14  O   -0.296741
    15  O   -0.308686
    16  N   -0.049823
    17  C    0.038358
    18  C   -0.122775
    19  C   -0.014721
    20  C    0.068265
    21  C    0.084221
    22  C    0.055435
    23  C   -0.076677
    24  N   -0.251351
    25  C    0.056260
    26  C   -0.092733
    27  C   -0.096143
    28  C    0.023943
    29  C    0.027365
    30  C    0.073516
    31  C    0.048924
    32  N    0.010559
    33  C    0.076005
    34  C   -0.117076
    35  C   -0.056134
    36  C    0.047311
    37  C    0.021152
    38  C    0.092916
    39  O   -0.206721
    40  C    0.120526
    41  C    0.169655
    42  O   -0.227488
    43  O   -0.295777
    44  C    0.215882
    45  C    0.172902
    46  C   -0.097547
    47  C   -0.089125
    48  C    0.019602
    49  C    0.010891
    50  C   -0.006438
    51  C   -0.014970
    52  C   -0.109659
    53  C    0.042439
    54  C    0.097942
    55  C   -0.005024
    56  C    0.130972
    57  C   -0.093901
    58  C    0.007401
    59  C    0.065127
    60  C    0.029980
    61  C   -0.049168
    62  C   -0.042386
    63  C   -0.043348
    64  C    0.090772
    65  H   -0.001935
    66  H    0.011596
    67  H    0.018535
    68  H   -0.007755
    69  H   -0.017001
    70  H    0.010635
    71  H    0.006641
    72  H    0.034976
    73  H    0.048392
    74  H    0.033366
    75  H    0.016880
    76  H    0.020060
    77  H    0.045802
    78  H   -0.006703
    79  H    0.036792
    80  H   -0.031028
    81  H    0.034895
    82  H    0.020650
    83  H    0.019538
    84  H    0.025212
    85  H    0.018746
    86  H    0.014309
    87  H   -0.015778
    88  H    0.010852
    89  H    0.002967
    90  H    0.017093
    91  H    0.034644
    92  H    0.046290
    93  H    0.083599
    94  H    0.005079
    95  H    0.052305
    96  H   -0.029648
    97  H    0.006313
    98  H    0.057415
    99  H    0.038201
   100  H    0.055307
   101  H    0.042203
   102  H    0.058344
   103  H    0.009048
   104  H    0.026840
   105  H    0.015266
   106  H    0.013223
   107  H   -0.005975
   108  H    0.003250
   109  H    0.034338
   110  H   -0.003158
   111  H   -0.035041
   112  H    0.008503
   113  H    0.010096
   114  H   -0.026307
   115  H   -0.018844
   116  H    0.020420
   117  H   -0.032526
   118  H   -0.010333
   119  H   -0.036398
   120  H   -0.024024
   121  H    0.007108
   122  H    0.038339
   123  H   -0.011235
   124  H   -0.050526
   125  H   -0.011857
   126  H    0.008893
   127  H   -0.006278
   128  H    0.004852
   129  H    0.014631
   130  H    0.007769
   131  H   -0.012828
   132  H    0.003704
   133  H    0.012849
   134  H   -0.004772
   135  H    0.031070
   136  H   -0.032542
   137  H    0.195778
   138  H    0.073161
 Sum of Mulliken charges =  -0.00000

 Dipole moment (field-independent basis, Debye):
    X=              2.3858    Y=              5.0707    Z=             -0.1534  Tot=              5.6060
 Quadrupole moment (field-independent basis, Debye-Ang):
   XX=           -358.1941   YY=           -384.2620   ZZ=           -396.4554
   XY=            -22.1260   XZ=              7.8733   YZ=             -1.0759

 Normal termination of Gaussian 16 at Wed Aug 21 22:16:17 2019.
