 Gaussian 16, Revision A.03,
 Gaussian 16:  ES64L-G16RevA.03 25-Dec-2016

 --------------------------
 # td=(NStates=1) B3LYP/SVP
 --------------------------

 --
 TD
 --
 Symbolic Z-matrix:
 Charge =  0 Multiplicity = 1

                         Standard orientation:
 ---------------------------------------------------------------------
 Center     Atomic      Atomic             Coordinates (Angstroms)
 Number     Number       Type             X           Y           Z
 ---------------------------------------------------------------------
      1          6           0       -5.025149   -1.970988    0.389166
      2          6           0       -4.702511    2.752166    1.293843
      3          6           0       -9.360840    3.268321   -0.322142
      4          6           0       -9.796979   -1.619511   -0.819369
      5          7           0       -5.125779    0.504441    0.704603
      6          6           0       -4.506658   -0.709924    0.801990
      7          6           0       -3.025987   -0.549232    1.208567
      8          6           0       -3.053829    0.841585    1.751108
      9          6           0       -4.357013    1.434640    1.234605
     10          6           0       -3.049352    0.970020    3.364594
     11          6           0       -2.088645   -0.756806   -0.030180
     12          6           0       -0.546001   -0.687442    0.424613
     13          6           0        0.395870   -0.853351   -0.631365
     14          8           0       -0.060752   -1.148347   -1.727135
     15          8           0        1.698008   -0.699624   -0.343372
     16          7           0       -7.005388    2.737900    0.402253
     17          6           0       -5.934912    3.317037    0.971966
     18          6           0       -6.304825    4.814527    0.966821
     19          6           0       -7.612741    4.972824    0.459784
     20          6           0       -8.017833    3.636949    0.094898
     21          6           0       -5.267076    5.798382    1.390806
     22          6           0       -8.306587    6.191662    0.351248
     23          6           0       -9.246313    6.642611   -0.485576
     24          7           0       -9.203599    0.824464   -0.470667
     25          6           0       -9.881890    2.009673   -0.594717
     26          6           0      -11.381739    1.776312   -0.872744
     27          6           0      -11.419823    0.422121   -1.034637
     28          6           0      -10.085226   -0.166921   -0.716921
     29          6           0      -12.388607    2.847620   -0.909934
     30          6           0      -12.742648   -0.421807   -1.316366
     31          6           0      -12.920204   -0.594858   -2.865891
     32          7           0       -7.392151   -1.274041   -0.211348
     33          6           0       -8.534821   -2.058625   -0.572524
     34          6           0       -8.092150   -3.423223   -0.645761
     35          6           0       -6.781629   -3.352752   -0.292541
     36          6           0       -6.305048   -2.054920   -0.053286
     37          6           0       -9.010100   -4.599713   -0.941575
     38          6           0       -5.642882   -4.222155   -0.044000
     39          8           0       -5.616423   -5.515604    0.076298
     40          6           0       -4.476855   -3.311486    0.389530
     41          6           0       -3.894699   -3.853280    1.721587
     42          8           0       -4.192817   -3.413601    2.846098
     43          8           0       -3.008861   -4.914089    1.462812
     44          6           0       -2.399291   -5.415641    2.698912
     45          6           0        2.705590   -1.006119   -1.365966
     46          6           0        4.041939   -0.709033   -0.637869
     47          6           0        4.922398    0.160609   -1.083246
     48          6           0        4.785067    0.992438   -2.309027
     49          6           0        6.236569    0.368801   -0.354723
     50          6           0        7.537732   -0.228927   -0.992210
     51          6           0        8.773008   -0.157145    0.041405
     52          6           0       10.025747   -0.618748   -0.792270
     53          6           0        9.928269   -2.207470   -1.043958
     54          6           0       11.260146   -0.197765    0.013043
     55          6           0       12.624855   -0.366167   -0.737272
     56          6           0       13.839386   -0.048350    0.160103
     57          6           0       15.269049   -0.178403   -0.384720
     58          6           0       15.708591   -1.592672   -0.584242
     59          6           0       16.262120    0.643643    0.378252
     60          6           0       17.624759    0.705611   -0.286111
     61          6           0       18.574567    1.546777    0.662031
     62          6           0       20.101926    1.338540    0.263452
     63          6           0       20.435335    2.045898   -1.046364
     64          6           0       21.018861    2.081475    1.349935
     65          1           0       -4.024648    3.568146    1.702683
     66          1           0      -10.083497    4.058922   -0.485512
     67          1           0      -10.466097   -2.390112   -1.123205
     68          1           0       -2.500191   -1.199726    2.068823
     69          1           0       -2.156668    1.628396    1.330427
     70          1           0       -1.989226    0.657443    3.749865
     71          1           0       -3.458851    1.999087    3.845082
     72          1           0       -3.909797    0.422431    3.713387
     73          1           0       -2.032126   -1.621974   -0.693776
     74          1           0       -2.476834    0.161073   -0.610898
     75          1           0       -0.338474    0.242700    0.850080
     76          1           0       -0.266023   -1.380168    1.423511
     77          1           0       -4.365117    5.864837    0.756920
     78          1           0       -5.738896    6.857672    1.272879
     79          1           0       -4.668651    5.517022    2.329232
     80          1           0       -8.088469    7.082141    0.911184
     81          1           0       -9.784155    5.793959   -1.110206
     82          1           0       -9.722461    7.469648   -0.267720
     83          1           0      -12.732796    3.223744    0.034476
     84          1           0      -11.765953    3.614860   -1.608481
     85          1           0      -13.245523    2.570894   -1.725413
     86          1           0      -12.841202   -1.553681   -1.059019
     87          1           0      -13.572463    0.142291   -0.715567
     88          1           0      -13.103016    0.166317   -3.532651
     89          1           0      -12.156924   -1.281947   -3.260511
     90          1           0      -13.925656   -1.051407   -3.008616
     91          1           0       -9.845103   -4.842398   -0.399474
     92          1           0       -9.464991   -4.593176   -1.892217
     93          1           0       -8.397229   -5.517522   -0.990478
     94          1           0       -3.692942   -3.507769   -0.389204
     95          1           0       -1.849170   -6.308746    2.462570
     96          1           0       -1.658356   -4.552940    3.118477
     97          1           0       -3.073831   -5.637805    3.442814
     98          1           0        2.487951   -1.955365   -1.929169
     99          1           0        2.561459   -0.135744   -2.109734
    100          1           0        4.276977   -1.215851    0.391133
    101          1           0        4.932604    2.041230   -1.967453
    102          1           0        5.670438    0.919464   -3.198107
    103          1           0        3.948289    0.794500   -2.835332
    104          1           0        6.329752    1.377469   -0.123388
    105          1           0        6.019282   -0.233321    0.621348
    106          1           0        7.404871   -1.419781   -1.114156
    107          1           0        7.564304    0.249837   -1.918912
    108          1           0        8.982820    0.986447    0.039931
    109          1           0        8.571121   -0.577408    0.879432
    110          1           0       10.191753   -0.039955   -1.870588
    111          1           0        9.104742   -2.238268   -1.759859
    112          1           0       10.851743   -2.508351   -1.321038
    113          1           0        9.423807   -2.746439   -0.148012
    114          1           0       11.330624    0.845843    0.384747
    115          1           0       11.319048   -0.558304    1.086155
    116          1           0       12.821754   -1.499436   -1.266791
    117          1           0       12.446269    0.276516   -1.655936
    118          1           0       13.777677    1.026260    0.511666
    119          1           0       13.765948   -0.604565    1.172120
    120          1           0       15.097904    0.279084   -1.302512
    121          1           0       14.906861   -2.124449   -1.313984
    122          1           0       16.735087   -1.744916   -1.312050
    123          1           0       15.745627   -2.160056    0.291109
    124          1           0       15.695163    1.667733    0.787507
    125          1           0       16.477527    0.130933    1.408578
    126          1           0       18.251140   -0.264775   -0.152911
    127          1           0       17.438715    0.913527   -1.308161
    128          1           0       18.243158    2.537907    0.686287
    129          1           0       18.524032    1.138111    1.668876
    130          1           0       20.434580    0.302941    0.146424
    131          1           0       20.249476    3.211215   -1.079078
    132          1           0       21.581234    2.166252   -1.150998
    133          1           0       20.055447    1.446596   -1.927318
    134          1           0       20.884826    1.697408    2.320289
    135          1           0       22.188800    1.912668    1.174032
    136          1           0       20.564712    3.216175    1.594793
    137          1           0       -7.106531    1.727704    0.351344
    138          1           0       -7.286017   -0.341140   -0.069756
 ---------------------------------------------------------------------

 SCF Done:  E(RB3LYP) =  -2733.04421304     A.U. after   18 cycles

 Excitation energies and oscillator strengths:

 Excited State   1:      Singlet-A      2.0213 eV  613.38 nm  f=0.2094  <S**2>=0.000
     235 -> 238       -0.26952
     236 -> 237        0.63899
 This state for optimization and/or second-order correction.
 Total Energy, E(TD-HF/TD-DFT) =  -2732.96993067
 Copying the excited state density for this state as the 1-particle RhoCI density.

 The electronic state is 1-A.
 Alpha  occ. eigenvalues --  -19.17943 -19.17815 -19.13168 -19.11541 -19.11392
 Alpha  occ. eigenvalues --  -14.37733 -14.36626 -14.33029 -14.30268 -10.32408
 Alpha  occ. eigenvalues --  -10.30852 -10.27616 -10.26380 -10.24416 -10.24363
 Alpha  occ. eigenvalues --  -10.24235 -10.24091 -10.23702 -10.22862 -10.22824
 Alpha  occ. eigenvalues --  -10.22409 -10.21920 -10.21863 -10.21815 -10.21512
 Alpha  occ. eigenvalues --  -10.21387 -10.21332 -10.21099 -10.21083 -10.21078
 Alpha  occ. eigenvalues --  -10.20905 -10.20871 -10.20837 -10.20749 -10.20686
 Alpha  occ. eigenvalues --  -10.20602 -10.20410 -10.20346 -10.20253 -10.19987
 Alpha  occ. eigenvalues --  -10.19905 -10.19882 -10.19767 -10.19732 -10.19724
 Alpha  occ. eigenvalues --  -10.19686 -10.19445 -10.19290 -10.19265 -10.19025
 Alpha  occ. eigenvalues --  -10.18941 -10.18928 -10.18927 -10.18914 -10.18842
 Alpha  occ. eigenvalues --  -10.18792 -10.18631 -10.18618 -10.18574 -10.18540
 Alpha  occ. eigenvalues --  -10.18193 -10.18038 -10.17761 -10.17757  -1.08770
 Alpha  occ. eigenvalues --   -1.06769  -1.00023  -0.99340  -0.99128  -0.98404
 Alpha  occ. eigenvalues --   -0.97449  -0.95847  -0.92839  -0.86567  -0.82943
 Alpha  occ. eigenvalues --   -0.82613  -0.82211  -0.82078  -0.80890  -0.80439
 Alpha  occ. eigenvalues --   -0.79992  -0.79111  -0.79062  -0.78295  -0.77362
 Alpha  occ. eigenvalues --   -0.76814  -0.76112  -0.75832  -0.74747  -0.74146
 Alpha  occ. eigenvalues --   -0.73352  -0.73136  -0.72797  -0.71764  -0.71379
 Alpha  occ. eigenvalues --   -0.70408  -0.69161  -0.68772  -0.68356  -0.67649
 Alpha  occ. eigenvalues --   -0.67009  -0.66391  -0.66112  -0.65773  -0.65491
 Alpha  occ. eigenvalues --   -0.64385  -0.63373  -0.62717  -0.61646  -0.61185
 Alpha  occ. eigenvalues --   -0.60955  -0.59474  -0.59136  -0.58711  -0.57476
 Alpha  occ. eigenvalues --   -0.56754  -0.56619  -0.56091  -0.55855  -0.55655
 Alpha  occ. eigenvalues --   -0.55420  -0.55223  -0.54849  -0.54163  -0.52826
 Alpha  occ. eigenvalues --   -0.52287  -0.51841  -0.51451  -0.51072  -0.50353
 Alpha  occ. eigenvalues --   -0.49908  -0.49312  -0.48934  -0.48310  -0.48222
 Alpha  occ. eigenvalues --   -0.48065  -0.47469  -0.47429  -0.47109  -0.46973
 Alpha  occ. eigenvalues --   -0.46781  -0.46239  -0.46037  -0.45890  -0.45750
 Alpha  occ. eigenvalues --   -0.45483  -0.45418  -0.45224  -0.45092  -0.44770
 Alpha  occ. eigenvalues --   -0.44573  -0.44229  -0.43995  -0.43817  -0.43514
 Alpha  occ. eigenvalues --   -0.43462  -0.43303  -0.43116  -0.42948  -0.42764
 Alpha  occ. eigenvalues --   -0.42676  -0.42191  -0.42010  -0.41588  -0.41434
 Alpha  occ. eigenvalues --   -0.41179  -0.40889  -0.40565  -0.40483  -0.40249
 Alpha  occ. eigenvalues --   -0.40062  -0.39891  -0.39680  -0.39444  -0.39361
 Alpha  occ. eigenvalues --   -0.39239  -0.39050  -0.38934  -0.38825  -0.38390
 Alpha  occ. eigenvalues --   -0.38204  -0.37863  -0.37750  -0.37443  -0.37314
 Alpha  occ. eigenvalues --   -0.37193  -0.36971  -0.36826  -0.36704  -0.36425
 Alpha  occ. eigenvalues --   -0.36282  -0.36184  -0.35985  -0.35744  -0.35474
 Alpha  occ. eigenvalues --   -0.35331  -0.35182  -0.35061  -0.34882  -0.34558
 Alpha  occ. eigenvalues --   -0.34192  -0.34136  -0.34060  -0.33852  -0.33797
 Alpha  occ. eigenvalues --   -0.33126  -0.32998  -0.32894  -0.32572  -0.32367
 Alpha  occ. eigenvalues --   -0.32109  -0.31887  -0.31764  -0.31380  -0.31188
 Alpha  occ. eigenvalues --   -0.31084  -0.30815  -0.30171  -0.30094  -0.30056
 Alpha  occ. eigenvalues --   -0.29495  -0.29159  -0.28357  -0.28213  -0.27850
 Alpha  occ. eigenvalues --   -0.27826  -0.27373  -0.26822  -0.26508  -0.26070
 Alpha  occ. eigenvalues --   -0.25467  -0.24467  -0.23838  -0.22946  -0.20550
 Alpha  occ. eigenvalues --   -0.18710
 Alpha virt. eigenvalues --   -0.10444  -0.07947  -0.05129  -0.02488  -0.01020
 Alpha virt. eigenvalues --   -0.00395   0.00060   0.00113   0.01711   0.03393
 Alpha virt. eigenvalues --    0.03535   0.03721   0.04186   0.04536   0.04621

 Mulliken charges:
               1
     1  C    0.026633
     2  C   -0.047642
     3  C   -0.051813
     4  C   -0.062515
     5  N   -0.158975
     6  C   -0.029893
     7  C   -0.052351
     8  C   -0.104379
     9  C    0.015481
    10  C    0.016820
    11  C    0.049261
    12  C    0.006617
    13  C    0.182136
    14  O   -0.264814
    15  O   -0.324460
    16  N   -0.024833
    17  C    0.027667
    18  C   -0.125538
    19  C    0.136217
    20  C    0.091803
    21  C    0.049634
    22  C   -0.122123
    23  C   -0.008994
    24  N   -0.217875
    25  C    0.026474
    26  C   -0.122493
    27  C   -0.077581
    28  C    0.069411
    29  C    0.027913
    30  C   -0.004884
    31  C    0.019240
    32  N   -0.006936
    33  C    0.124535
    34  C   -0.133469
    35  C    0.027682
    36  C    0.048650
    37  C    0.157505
    38  C    0.050139
    39  O   -0.252292
    40  C    0.026083
    41  C    0.233045
    42  O   -0.243195
    43  O   -0.334097
    44  C    0.201946
    45  C    0.234108
    46  C   -0.082619
    47  C   -0.144661
    48  C    0.079208
    49  C    0.081577
    50  C   -0.012015
    51  C    0.108836
    52  C   -0.129473
    53  C    0.084847
    54  C    0.022726
    55  C   -0.020632
    56  C   -0.016798
    57  C    0.034851
    58  C   -0.009467
    59  C   -0.049576
    60  C    0.024465
    61  C    0.079238
    62  C   -0.096297
    63  C   -0.004458
    64  C   -0.023800
    65  H   -0.018507
    66  H   -0.045591
    67  H   -0.035867
    68  H    0.030818
    69  H    0.031182
    70  H    0.047456
    71  H    0.027860
    72  H    0.020063
    73  H    0.044658
    74  H    0.024272
    75  H   -0.005549
    76  H    0.050216
    77  H    0.019846
    78  H    0.033720
    79  H    0.034925
    80  H   -0.012937
    81  H    0.027907
    82  H   -0.017795
    83  H    0.049354
    84  H    0.045864
    85  H    0.037983
    86  H    0.020859
    87  H    0.028361
    88  H   -0.009680
    89  H    0.018694
    90  H   -0.006591
    91  H    0.002754
    92  H   -0.005677
    93  H    0.031229
    94  H    0.058369
    95  H    0.029959
    96  H    0.034021
    97  H    0.021725
    98  H    0.055379
    99  H    0.031788
   100  H    0.015816
   101  H    0.024805
   102  H    0.036030
   103  H   -0.025762
   104  H   -0.014833
   105  H   -0.012541
   106  H    0.013957
   107  H   -0.010586
   108  H    0.009647
   109  H   -0.043142
   110  H    0.016748
   111  H    0.011514
   112  H   -0.009031
   113  H    0.014491
   114  H   -0.020841
   115  H   -0.020278
   116  H    0.020136
   117  H    0.003331
   118  H   -0.011900
   119  H   -0.003879
   120  H   -0.040009
   121  H    0.011502
   122  H    0.030073
   123  H    0.000125
   124  H    0.011036
   125  H   -0.011498
   126  H    0.017286
   127  H   -0.001297
   128  H   -0.017232
   129  H   -0.007010
   130  H    0.004108
   131  H    0.013569
   132  H    0.000143
   133  H    0.021698
   134  H   -0.016801
   135  H    0.032967
   136  H    0.022948
   137  H    0.144224
   138  H    0.085620
 Sum of Mulliken charges =  -0.00000

 Dipole moment (field-independent basis, Debye):
    X=              2.4664    Y=              3.9855    Z=              0.8780  Tot=              4.7685
 Quadrupole moment (field-independent basis, Debye-Ang):
   XX=           -353.3883   YY=           -391.4886   ZZ=           -396.9902
   XY=            -21.5728   XZ=             11.0585   YZ=              3.2945

 Normal termination of Gaussian 16 at Wed Aug 14 09:02:45 2019.
