 Gaussian 16, Revision A.03,
 Gaussian 16:  ES64L-G16RevA.03 25-Dec-2016

 --------------------------
 # td=(NStates=1) B3LYP/SVP
 --------------------------

 --
 TD
 --
 Symbolic Z-matrix:
 Charge =  0 Multiplicity = 1

                         Standard orientation:
 ---------------------------------------------------------------------
 Center     Atomic      Atomic             Coordinates (Angstroms)
 Number     Number       Type             X           Y           Z
 ---------------------------------------------------------------------
      1          6           0       -5.094685   -1.998544    0.407389
      2          6           0       -4.699307    2.753263    1.481168
      3          6           0       -9.256029    3.389141   -0.122439
      4          6           0       -9.799593   -1.371302   -0.807947
      5          7           0       -5.125671    0.482565    0.695873
      6          6           0       -4.501099   -0.805378    0.755319
      7          6           0       -3.126695   -0.631002    1.282682
      8          6           0       -3.193252    0.831486    1.906228
      9          6           0       -4.395330    1.405106    1.346053
     10          6           0       -3.073544    0.608562    3.437363
     11          6           0       -2.055052   -0.636003    0.116632
     12          6           0       -0.659544   -0.652216    0.592175
     13          6           0        0.305019   -1.092031   -0.660783
     14          8           0       -0.023202   -1.532758   -1.699445
     15          8           0        1.592484   -0.797435   -0.295891
     16          7           0       -6.931092    2.816737    0.414315
     17          6           0       -5.780638    3.386747    0.962073
     18          6           0       -6.095147    4.789681    1.046997
     19          6           0       -7.384707    4.981757    0.608564
     20          6           0       -7.910600    3.750538    0.170572
     21          6           0       -5.122964    5.846050    1.505120
     22          6           0       -8.026215    6.248404    0.413563
     23          6           0       -8.899043    6.744435   -0.556724
     24          7           0       -9.134315    0.976471   -0.497857
     25          6           0       -9.707855    2.175614   -0.460597
     26          6           0      -11.148946    1.960769   -0.970907
     27          6           0      -11.333318    0.677161   -1.177155
     28          6           0      -10.115281    0.012930   -0.812791
     29          6           0      -12.105779    3.127010   -1.235754
     30          6           0      -12.589408   -0.070598   -1.693880
     31          6           0      -12.262427   -0.461757   -3.181128
     32          7           0       -7.448082   -1.286460   -0.066427
     33          6           0       -8.664253   -1.987945   -0.482620
     34          6           0       -8.245838   -3.361473   -0.479832
     35          6           0       -6.925660   -3.396345   -0.159905
     36          6           0       -6.511305   -2.153639    0.043757
     37          6           0       -9.265713   -4.452550   -0.755675
     38          6           0       -5.858373   -4.369728    0.056283
     39          8           0       -5.728278   -5.581913   -0.005996
     40          6           0       -4.558496   -3.457099    0.430429
     41          6           0       -3.948824   -3.886207    1.741144
     42          8           0       -4.226519   -3.617921    2.944303
     43          8           0       -3.018636   -4.834301    1.396209
     44          6           0       -2.508997   -5.541361    2.510015
     45          6           0        2.574271   -1.165139   -1.303069
     46          6           0        3.864031   -0.857745   -0.706944
     47          6           0        4.880165   -0.058309   -1.169756
     48          6           0        4.784540    0.597922   -2.584021
     49          6           0        6.086236    0.100963   -0.323869
     50          6           0        7.420189   -0.343873   -1.147374
     51          6           0        8.732764   -0.340767   -0.192041
     52          6           0        9.987868   -0.745478   -0.920776
     53          6           0       10.135496   -2.285097   -1.386159
     54          6           0       11.283832   -0.299725   -0.101065
     55          6           0       12.703717   -0.602239   -0.708437
     56          6           0       13.731381   -0.116123    0.289235
     57          6           0       15.209609   -0.128708   -0.272231
     58          6           0       15.590214   -1.589146   -0.534078
     59          6           0       16.176410    0.672135    0.479749
     60          6           0       17.572562    0.692785   -0.045052
     61          6           0       18.575034    1.688981    0.720959
     62          6           0       20.055193    1.728762    0.303602
     63          6           0       20.206079    2.302017   -1.061750
     64          6           0       20.840455    2.461695    1.331492
     65          1           0       -3.926856    3.333525    1.769916
     66          1           0       -9.965083    4.201431   -0.324028
     67          1           0      -10.763051   -1.961671   -1.101122
     68          1           0       -2.765050   -1.367416    1.864374
     69          1           0       -2.340339    1.605484    1.774966
     70          1           0       -1.970313    0.453116    3.949181
     71          1           0       -3.230581    1.590744    4.122405
     72          1           0       -3.857666   -0.184510    3.549616
     73          1           0       -2.193305   -1.449899   -0.494684
     74          1           0       -2.271178    0.328074   -0.518822
     75          1           0       -0.256652    0.140976    0.710153
     76          1           0       -0.262144   -1.028024    1.416303
     77          1           0       -4.287768    6.054951    0.738027
     78          1           0       -5.718458    6.881043    1.779015
     79          1           0       -4.514482    5.384388    2.501859
     80          1           0       -7.800480    6.903477    1.010650
     81          1           0       -9.155878    6.014063   -1.268735
     82          1           0       -9.384949    7.787991   -0.703986
     83          1           0      -12.604424    3.773828   -0.446148
     84          1           0      -11.788341    3.931265   -1.955953
     85          1           0      -13.108956    2.762792   -1.389512
     86          1           0      -12.786831   -0.727296   -0.928304
     87          1           0      -13.397443    0.647224   -1.740244
     88          1           0      -12.141413    0.415661   -3.794135
     89          1           0      -11.402195   -0.930887   -3.217523
     90          1           0      -13.238487   -0.872618   -3.701882
     91          1           0      -10.061341   -4.484403    0.042408
     92          1           0       -9.796760   -4.287057   -1.825498
     93          1           0       -8.687381   -5.356324   -0.895789
     94          1           0       -3.688783   -3.605633   -0.265103
     95          1           0       -1.910116   -6.328411    2.022928
     96          1           0       -2.143939   -4.955660    3.294055
     97          1           0       -3.245278   -5.962112    3.193708
     98          1           0        2.520271   -2.216100   -1.440683
     99          1           0        2.287087   -0.839008   -2.396072
    100          1           0        3.904588   -1.464762    0.113102
    101          1           0        5.233576    1.619659   -2.663970
    102          1           0        5.365840    0.046236   -3.271462
    103          1           0        3.856964    0.902973   -3.092168
    104          1           0        6.188911    1.161633    0.126171
    105          1           0        5.893768   -0.294394    0.610437
    106          1           0        7.215844   -1.270738   -1.770347
    107          1           0        7.595931    0.482296   -2.139931
    108          1           0        8.871403    0.719537    0.207478
    109          1           0        8.445986   -1.105714    0.538291
    110          1           0       10.128775   -0.285097   -1.877505
    111          1           0        9.439214   -2.495375   -2.300321
    112          1           0       11.198228   -2.514137   -1.687920
    113          1           0        9.855238   -3.019321   -0.434293
    114          1           0       10.999932    0.703003    0.113822
    115          1           0       11.393653   -0.777279    0.999372
    116          1           0       12.835481   -1.777678   -0.788495
    117          1           0       12.763074   -0.348839   -1.587632
    118          1           0       13.685949    1.045811    0.556281
    119          1           0       13.824630   -0.603938    1.236163
    120          1           0       15.401085    0.484153   -1.199647
    121          1           0       15.016725   -1.976651   -1.365393
    122          1           0       16.658380   -1.682944   -1.064885
    123          1           0       15.499184   -2.486564    0.342428
    124          1           0       16.035954    1.785474    0.671169
    125          1           0       16.209873    0.279944    1.563274
    126          1           0       18.139829   -0.249824   -0.047843
    127          1           0       17.928870    0.897437   -1.346011
    128          1           0       18.142512    2.731006    0.858377
    129          1           0       18.654552    1.571938    1.710363
    130          1           0       20.359165    0.754442    0.411751
    131          1           0       19.641641    3.245130   -1.090248
    132          1           0       21.275347    2.627597   -1.416579
    133          1           0       19.844949    1.482676   -1.747427
    134          1           0       20.809526    2.358964    2.409186
    135          1           0       21.989701    2.388441    1.315961
    136          1           0       20.474808    3.469654    1.150380
    137          1           0       -6.987289    1.701992    0.544941
    138          1           0       -7.572789   -0.228646    0.004203
 ---------------------------------------------------------------------

 SCF Done:  E(RB3LYP) =  -2732.92380528     A.U. after   17 cycles

 Excitation energies and oscillator strengths:

 Excited State   1:      Singlet-A      2.0347 eV  609.36 nm  f=0.2390  <S**2>=0.000
     235 -> 237       -0.16841
     235 -> 238       -0.21682
     236 -> 237        0.63770
     236 -> 238       -0.12293
 This state for optimization and/or second-order correction.
 Total Energy, E(TD-HF/TD-DFT) =  -2732.84903310
 Copying the excited state density for this state as the 1-particle RhoCI density.

 The electronic state is 1-A.
 Alpha  occ. eigenvalues --  -19.17984 -19.17415 -19.13332 -19.13089 -19.12709
 Alpha  occ. eigenvalues --  -14.36915 -14.36865 -14.32545 -14.30287 -10.31783
 Alpha  occ. eigenvalues --  -10.31328 -10.28959 -10.23973 -10.23808 -10.23507
 Alpha  occ. eigenvalues --  -10.23271 -10.23204 -10.22941 -10.22938 -10.22881
 Alpha  occ. eigenvalues --  -10.22835 -10.21892 -10.21766 -10.21660 -10.21438
 Alpha  occ. eigenvalues --  -10.21168 -10.21027 -10.20986 -10.20959 -10.20743
 Alpha  occ. eigenvalues --  -10.20685 -10.20667 -10.20584 -10.20419 -10.20209
 Alpha  occ. eigenvalues --  -10.20172 -10.20135 -10.19963 -10.19751 -10.19649
 Alpha  occ. eigenvalues --  -10.19595 -10.19494 -10.19376 -10.19329 -10.19205
 Alpha  occ. eigenvalues --  -10.19160 -10.19158 -10.19133 -10.19098 -10.19029
 Alpha  occ. eigenvalues --  -10.18976 -10.18928 -10.18730 -10.18693 -10.18470
 Alpha  occ. eigenvalues --  -10.18234 -10.18222 -10.18150 -10.18069 -10.17899
 Alpha  occ. eigenvalues --  -10.17762 -10.17381 -10.17319 -10.17301  -1.09595
 Alpha  occ. eigenvalues --   -1.08562  -1.02850  -1.01835  -0.99674  -0.98435
 Alpha  occ. eigenvalues --   -0.97686  -0.93845  -0.93319  -0.84609  -0.82550
 Alpha  occ. eigenvalues --   -0.82405  -0.81977  -0.81868  -0.81388  -0.81229
 Alpha  occ. eigenvalues --   -0.80813  -0.80119  -0.79839  -0.79367  -0.77675
 Alpha  occ. eigenvalues --   -0.76981  -0.76439  -0.75970  -0.74994  -0.74445
 Alpha  occ. eigenvalues --   -0.74068  -0.73675  -0.72454  -0.70988  -0.70705
 Alpha  occ. eigenvalues --   -0.70210  -0.69179  -0.68395  -0.68049  -0.67688
 Alpha  occ. eigenvalues --   -0.67474  -0.67023  -0.66265  -0.65654  -0.64787
 Alpha  occ. eigenvalues --   -0.64239  -0.63606  -0.63292  -0.63042  -0.62691
 Alpha  occ. eigenvalues --   -0.61995  -0.59965  -0.59320  -0.58314  -0.58310
 Alpha  occ. eigenvalues --   -0.57770  -0.56806  -0.56526  -0.56477  -0.55446
 Alpha  occ. eigenvalues --   -0.55395  -0.54811  -0.54501  -0.54307  -0.54087
 Alpha  occ. eigenvalues --   -0.53412  -0.52470  -0.52200  -0.50642  -0.50174
 Alpha  occ. eigenvalues --   -0.49624  -0.49533  -0.49050  -0.48811  -0.47955
 Alpha  occ. eigenvalues --   -0.47685  -0.47629  -0.47422  -0.47351  -0.47275
 Alpha  occ. eigenvalues --   -0.47048  -0.46716  -0.46656  -0.46410  -0.46303
 Alpha  occ. eigenvalues --   -0.45540  -0.45444  -0.45300  -0.45001  -0.44719
 Alpha  occ. eigenvalues --   -0.44536  -0.44458  -0.44134  -0.43906  -0.43807
 Alpha  occ. eigenvalues --   -0.43627  -0.43249  -0.43208  -0.42829  -0.42489
 Alpha  occ. eigenvalues --   -0.42257  -0.41877  -0.41854  -0.41651  -0.41446
 Alpha  occ. eigenvalues --   -0.41073  -0.40962  -0.40854  -0.40615  -0.40327
 Alpha  occ. eigenvalues --   -0.40229  -0.40023  -0.39723  -0.39617  -0.39174
 Alpha  occ. eigenvalues --   -0.39137  -0.39020  -0.38870  -0.38642  -0.38431
 Alpha  occ. eigenvalues --   -0.38289  -0.38102  -0.37963  -0.37949  -0.37754
 Alpha  occ. eigenvalues --   -0.37691  -0.37406  -0.37064  -0.36785  -0.36665
 Alpha  occ. eigenvalues --   -0.36483  -0.36206  -0.36033  -0.35981  -0.35852
 Alpha  occ. eigenvalues --   -0.35773  -0.35701  -0.35661  -0.35460  -0.35130
 Alpha  occ. eigenvalues --   -0.35040  -0.34868  -0.34103  -0.33946  -0.33903
 Alpha  occ. eigenvalues --   -0.33356  -0.33094  -0.32779  -0.32724  -0.32677
 Alpha  occ. eigenvalues --   -0.32041  -0.31456  -0.31363  -0.31235  -0.31111
 Alpha  occ. eigenvalues --   -0.30990  -0.30855  -0.30567  -0.30536  -0.30163
 Alpha  occ. eigenvalues --   -0.29640  -0.29024  -0.28636  -0.28228  -0.27936
 Alpha  occ. eigenvalues --   -0.27877  -0.27249  -0.26911  -0.26171  -0.25977
 Alpha  occ. eigenvalues --   -0.25556  -0.24230  -0.23727  -0.23519  -0.20630
 Alpha  occ. eigenvalues --   -0.18885
 Alpha virt. eigenvalues --   -0.10774  -0.07581  -0.04403  -0.02423  -0.01314
 Alpha virt. eigenvalues --   -0.00484  -0.00092   0.01484   0.02014   0.03613
 Alpha virt. eigenvalues --    0.03756   0.03895   0.04347   0.04568   0.04630

 Mulliken charges:
               1
     1  C    0.053984
     2  C   -0.041744
     3  C   -0.091294
     4  C   -0.100478
     5  N   -0.222275
     6  C   -0.036117
     7  C    0.019140
     8  C   -0.050202
     9  C    0.051847
    10  C   -0.042102
    11  C    0.076744
    12  C    0.257611
    13  C    0.114544
    14  O   -0.186142
    15  O   -0.336474
    16  N   -0.148730
    17  C    0.132753
    18  C   -0.084318
    19  C    0.086503
    20  C    0.081255
    21  C   -0.031058
    22  C    0.004588
    23  C   -0.028507
    24  N   -0.239956
    25  C    0.079853
    26  C   -0.091172
    27  C   -0.125400
    28  C   -0.009025
    29  C    0.044843
    30  C    0.152992
    31  C    0.068417
    32  N   -0.033909
    33  C    0.120794
    34  C   -0.154966
    35  C    0.016885
    36  C    0.032214
    37  C    0.068890
    38  C    0.105473
    39  O   -0.157318
    40  C   -0.063454
    41  C    0.213225
    42  O   -0.274588
    43  O   -0.300805
    44  C    0.230676
    45  C    0.258732
    46  C   -0.066716
    47  C   -0.104733
    48  C    0.061663
    49  C    0.140526
    50  C   -0.118545
    51  C    0.089994
    52  C   -0.043022
    53  C   -0.064955
    54  C   -0.016570
    55  C    0.153706
    56  C    0.027376
    57  C   -0.069629
    58  C   -0.029721
    59  C    0.067734
    60  C   -0.041594
    61  C    0.034565
    62  C   -0.014327
    63  C    0.028816
    64  C   -0.007780
    65  H   -0.072413
    66  H   -0.022428
    67  H    0.014196
    68  H   -0.039022
    69  H    0.006074
    70  H    0.038225
    71  H    0.012064
    72  H    0.056748
    73  H   -0.004212
    74  H    0.016570
    75  H   -0.107674
    76  H   -0.034852
    77  H    0.055245
    78  H    0.053243
    79  H    0.049421
    80  H   -0.111987
    81  H    0.007284
    82  H    0.054113
    83  H    0.009537
    84  H    0.034625
    85  H   -0.015910
    86  H   -0.002309
    87  H   -0.023368
    88  H   -0.000562
    89  H   -0.021149
    90  H    0.021586
    91  H    0.051619
    92  H    0.040254
    93  H    0.030629
    94  H    0.061502
    95  H    0.040190
    96  H   -0.004402
    97  H    0.003837
    98  H   -0.005820
    99  H    0.030447
   100  H   -0.040679
   101  H    0.000604
   102  H    0.012187
   103  H    0.019030
   104  H    0.006284
   105  H   -0.036455
   106  H    0.031613
   107  H    0.014688
   108  H    0.018455
   109  H    0.009727
   110  H   -0.017329
   111  H    0.027502
   112  H    0.021484
   113  H    0.023333
   114  H   -0.015599
   115  H   -0.000257
   116  H    0.023978
   117  H   -0.090398
   118  H    0.003746
   119  H   -0.004423
   120  H   -0.002853
   121  H    0.002587
   122  H    0.013368
   123  H    0.033303
   124  H    0.010797
   125  H   -0.011009
   126  H   -0.001148
   127  H   -0.000828
   128  H   -0.030162
   129  H   -0.059393
   130  H   -0.034924
   131  H    0.008074
   132  H    0.014446
   133  H    0.023037
   134  H   -0.005860
   135  H    0.008039
   136  H   -0.011021
   137  H    0.203380
   138  H    0.162658
 Sum of Mulliken charges =  -0.00000

 Dipole moment (field-independent basis, Debye):
    X=              1.7752    Y=              4.3772    Z=              0.3305  Tot=              4.7350
 Quadrupole moment (field-independent basis, Debye-Ang):
   XX=           -343.5133   YY=           -388.4454   ZZ=           -395.4907
   XY=            -29.5603   XZ=             13.7000   YZ=              1.6150

 Normal termination of Gaussian 16 at Fri Aug 30 23:53:04 2019.
