 Gaussian 16, Revision A.03,
 Gaussian 16:  ES64L-G16RevA.03 25-Dec-2016

 --------------------------
 # td=(NStates=1) B3LYP/SVP
 --------------------------

 --
 TD
 --
 Symbolic Z-matrix:
 Charge =  0 Multiplicity = 1

                         Standard orientation:
 ---------------------------------------------------------------------
 Center     Atomic      Atomic             Coordinates (Angstroms)
 Number     Number       Type             X           Y           Z
 ---------------------------------------------------------------------
      1          6           0       -5.135766   -2.054877    0.381387
      2          6           0       -4.733593    2.717087    1.339420
      3          6           0       -9.214488    3.467085   -0.198728
      4          6           0       -9.912612   -1.305566   -0.900577
      5          7           0       -5.198806    0.337334    0.754188
      6          6           0       -4.572620   -0.786693    0.886677
      7          6           0       -3.147966   -0.709001    1.234245
      8          6           0       -3.110571    0.717072    1.876104
      9          6           0       -4.410736    1.286844    1.303088
     10          6           0       -3.109634    0.878128    3.394672
     11          6           0       -2.143744   -0.818135    0.036701
     12          6           0       -0.561498   -0.850576    0.492396
     13          6           0        0.398912   -1.113672   -0.612314
     14          8           0        0.121416   -1.560339   -1.599880
     15          8           0        1.649151   -0.687738   -0.171146
     16          7           0       -6.960421    2.767094    0.519740
     17          6           0       -5.835733    3.431261    0.904533
     18          6           0       -6.009514    4.810318    0.875032
     19          6           0       -7.325011    5.024493    0.475890
     20          6           0       -7.898695    3.764167    0.108267
     21          6           0       -4.954443    5.741925    1.432322
     22          6           0       -7.863259    6.294757    0.353682
     23          6           0       -8.939956    6.779854   -0.496378
     24          7           0       -9.211434    0.945942   -0.425617
     25          6           0       -9.817886    2.220281   -0.411370
     26          6           0      -11.238033    2.090065   -0.845002
     27          6           0      -11.393589    0.718272   -1.158217
     28          6           0      -10.170484    0.072312   -0.827691
     29          6           0      -12.330093    3.156370   -0.914737
     30          6           0      -12.582763   -0.022464   -1.483976
     31          6           0      -12.736732   -0.425770   -2.945620
     32          7           0       -7.522580   -1.296334   -0.217399
     33          6           0       -8.677024   -1.994550   -0.634525
     34          6           0       -8.290007   -3.394703   -0.632207
     35          6           0       -6.983657   -3.400025   -0.272313
     36          6           0       -6.513222   -2.086671   -0.039327
     37          6           0       -9.178404   -4.596298   -1.063371
     38          6           0       -5.854881   -4.299674   -0.115895
     39          8           0       -5.756892   -5.507771   -0.245580
     40          6           0       -4.732669   -3.455258    0.414665
     41          6           0       -4.036446   -3.968134    1.637511
     42          8           0       -4.097766   -3.381534    2.768984
     43          8           0       -3.279107   -5.037802    1.427645
     44          6           0       -2.777070   -5.709066    2.600240
     45          6           0        2.686420   -1.017431   -1.143370
     46          6           0        3.985254   -0.820059   -0.577350
     47          6           0        4.938652   -0.007759   -1.018219
     48          6           0        4.935372    0.754316   -2.211470
     49          6           0        6.320048    0.147011   -0.362104
     50          6           0        7.557424   -0.440973   -0.865406
     51          6           0        8.845690   -0.241797   -0.108011
     52          6           0       10.126045   -0.694703   -0.865458
     53          6           0       10.128170   -2.219738   -1.200832
     54          6           0       11.368915   -0.211842   -0.096521
     55          6           0       12.717785   -0.524664   -0.679263
     56          6           0       13.783028    0.066939    0.168390
     57          6           0       15.217024   -0.105404   -0.383641
     58          6           0       15.512178   -1.634125   -0.505603
     59          6           0       16.277043    0.666221    0.449708
     60          6           0       17.626398    0.604815   -0.117336
     61          6           0       18.711285    1.398298    0.802036
     62          6           0       20.149371    1.630484    0.096181
     63          6           0       20.154386    2.556157   -1.105442
     64          6           0       21.070144    2.163470    1.206726
     65          1           0       -3.918088    3.247418    1.715249
     66          1           0       -9.924347    4.378172   -0.563243
     67          1           0      -10.722056   -1.947690   -1.122184
     68          1           0       -2.957573   -1.478261    1.998761
     69          1           0       -2.460961    1.395412    1.430034
     70          1           0       -2.209527    0.638436    3.943506
     71          1           0       -3.407571    2.090831    3.629045
     72          1           0       -3.803457    0.081984    3.871037
     73          1           0       -2.255198   -1.682010   -0.623674
     74          1           0       -2.368161    0.342617   -0.517768
     75          1           0       -0.410260    0.059776    1.002150
     76          1           0       -0.333206   -1.574775    1.253246
     77          1           0       -4.088334    5.672555    0.696068
     78          1           0       -5.275071    6.766654    1.286368
     79          1           0       -4.785209    5.728768    2.507108
     80          1           0       -7.492209    7.205663    0.895513
     81          1           0       -9.500037    6.155106   -1.242992
     82          1           0       -9.330732    7.912533   -0.585852
     83          1           0      -12.333969    3.678927    0.054213
     84          1           0      -12.008569    3.975967   -1.758566
     85          1           0      -13.368369    2.901223   -1.032667
     86          1           0      -12.625287   -1.007176   -0.913266
     87          1           0      -13.519772    0.494133   -1.213592
     88          1           0      -12.911786    0.369116   -3.696887
     89          1           0      -11.742484   -0.706424   -3.311221
     90          1           0      -13.685834   -1.229242   -3.049080
     91          1           0      -10.264426   -4.593641   -0.546197
     92          1           0       -9.476195   -4.563303   -2.156960
     93          1           0       -8.847607   -5.587758   -0.838559
     94          1           0       -3.792087   -3.580772   -0.303220
     95          1           0       -2.172083   -6.724099    2.354741
     96          1           0       -2.361446   -5.143961    3.356229
     97          1           0       -3.576705   -6.230816    2.892815
     98          1           0        2.353020   -2.239275   -1.474251
     99          1           0        2.587152   -0.120229   -1.947751
    100          1           0        4.263865   -1.207334    0.356277
    101          1           0        4.696952    2.242123   -1.975534
    102          1           0        6.001665    0.581280   -2.802890
    103          1           0        4.124715    0.448502   -2.943011
    104          1           0        6.627307    1.143536   -0.083713
    105          1           0        6.048625   -0.428808    0.622465
    106          1           0        7.392824   -1.379140   -0.880872
    107          1           0        7.954066   -0.099684   -1.834855
    108          1           0        8.775460    0.824276    0.164740
    109          1           0        8.950357   -0.739014    0.948843
    110          1           0       10.123286   -0.070320   -1.850921
    111          1           0        9.112823   -2.565555   -1.836312
    112          1           0       11.081708   -2.416911   -1.889096
    113          1           0       10.085735   -2.673643   -0.445290
    114          1           0       11.598534    0.989398   -0.074220
    115          1           0       11.195132   -0.426948    1.072034
    116          1           0       13.050133   -1.712350   -0.737512
    117          1           0       12.705437   -0.168916   -1.769801
    118          1           0       13.910091    1.175979    0.283928
    119          1           0       13.740008   -0.439117    1.060868
    120          1           0       15.145845    0.396409   -1.531526
    121          1           0       15.052371   -2.275142   -1.235938
    122          1           0       16.437330   -1.953928   -0.942706
    123          1           0       15.512022   -1.953098    0.709283
    124          1           0       15.983396    1.430164    0.611234
    125          1           0       16.251625    0.166956    1.440169
    126          1           0       17.911962   -0.512753   -0.236271
    127          1           0       17.679354    1.240092   -1.144225
    128          1           0       18.134035    2.344004    1.047966
    129          1           0       18.908241    0.927539    1.966395
    130          1           0       20.515760    0.588025   -0.285843
    131          1           0       19.645378    3.552473   -0.952297
    132          1           0       21.058937    2.574369   -1.708551
    133          1           0       19.600831    2.060349   -1.935400
    134          1           0       21.075594    1.406500    2.102910
    135          1           0       21.984459    2.412321    0.645401
    136          1           0       20.610930    3.142799    1.678015
    137          1           0       -7.150254    1.725294    0.569724
    138          1           0       -7.550287   -0.402656   -0.093781
 ---------------------------------------------------------------------

 SCF Done:  E(RB3LYP) =  -2732.85791450     A.U. after   17 cycles

 Excitation energies and oscillator strengths:

 Excited State   1:      Singlet-A      1.9920 eV  622.41 nm  f=0.1134  <S**2>=0.000
     235 -> 237       -0.15486
     235 -> 238        0.35235
     236 -> 237        0.58299
 This state for optimization and/or second-order correction.
 Total Energy, E(TD-HF/TD-DFT) =  -2732.78470965
 Copying the excited state density for this state as the 1-particle RhoCI density.

 The electronic state is 1-A.
 Alpha  occ. eigenvalues --  -19.19179 -19.16690 -19.13748 -19.11986 -19.11876
 Alpha  occ. eigenvalues --  -14.36649 -14.36427 -14.32533 -14.29642 -10.32500
 Alpha  occ. eigenvalues --  -10.30834 -10.27509 -10.26631 -10.24526 -10.24116
 Alpha  occ. eigenvalues --  -10.23594 -10.23493 -10.23221 -10.23104 -10.23046
 Alpha  occ. eigenvalues --  -10.22592 -10.22376 -10.22089 -10.21819 -10.21766
 Alpha  occ. eigenvalues --  -10.21637 -10.21628 -10.20880 -10.20787 -10.20689
 Alpha  occ. eigenvalues --  -10.20688 -10.20631 -10.20539 -10.20443 -10.20437
 Alpha  occ. eigenvalues --  -10.20327 -10.20201 -10.20185 -10.20164 -10.20158
 Alpha  occ. eigenvalues --  -10.20157 -10.20114 -10.20024 -10.19949 -10.19942
 Alpha  occ. eigenvalues --  -10.19578 -10.19527 -10.19367 -10.19364 -10.19051
 Alpha  occ. eigenvalues --  -10.18992 -10.18975 -10.18885 -10.18808 -10.18708
 Alpha  occ. eigenvalues --  -10.18670 -10.18605 -10.18525 -10.18411 -10.18224
 Alpha  occ. eigenvalues --  -10.17648 -10.17292 -10.16706 -10.15796  -1.11885
 Alpha  occ. eigenvalues --   -1.10004  -1.02839  -1.02454  -1.00343  -0.98071
 Alpha  occ. eigenvalues --   -0.97589  -0.96635  -0.92133  -0.85972  -0.84212
 Alpha  occ. eigenvalues --   -0.82627  -0.82426  -0.81404  -0.81338  -0.80626
 Alpha  occ. eigenvalues --   -0.80500  -0.79334  -0.79277  -0.78650  -0.78248
 Alpha  occ. eigenvalues --   -0.77444  -0.76450  -0.75835  -0.75306  -0.74072
 Alpha  occ. eigenvalues --   -0.73730  -0.72945  -0.72198  -0.71619  -0.70644
 Alpha  occ. eigenvalues --   -0.70608  -0.69765  -0.68673  -0.68001  -0.67740
 Alpha  occ. eigenvalues --   -0.67687  -0.67312  -0.66320  -0.66278  -0.65167
 Alpha  occ. eigenvalues --   -0.64477  -0.63869  -0.62843  -0.62216  -0.60947
 Alpha  occ. eigenvalues --   -0.60824  -0.59590  -0.58622  -0.58467  -0.58017
 Alpha  occ. eigenvalues --   -0.57170  -0.56683  -0.56160  -0.55786  -0.55116
 Alpha  occ. eigenvalues --   -0.55010  -0.54377  -0.53804  -0.53651  -0.53350
 Alpha  occ. eigenvalues --   -0.52763  -0.51896  -0.51688  -0.51326  -0.51107
 Alpha  occ. eigenvalues --   -0.50493  -0.49638  -0.49511  -0.49402  -0.49106
 Alpha  occ. eigenvalues --   -0.48738  -0.48356  -0.48109  -0.47807  -0.47351
 Alpha  occ. eigenvalues --   -0.47123  -0.46747  -0.46647  -0.46394  -0.46080
 Alpha  occ. eigenvalues --   -0.45665  -0.45304  -0.44964  -0.44927  -0.44753
 Alpha  occ. eigenvalues --   -0.44499  -0.44350  -0.44244  -0.44002  -0.43681
 Alpha  occ. eigenvalues --   -0.43284  -0.43026  -0.42897  -0.42642  -0.42361
 Alpha  occ. eigenvalues --   -0.42241  -0.41708  -0.41560  -0.41394  -0.41297
 Alpha  occ. eigenvalues --   -0.41005  -0.40725  -0.40490  -0.40366  -0.40195
 Alpha  occ. eigenvalues --   -0.40111  -0.39788  -0.39596  -0.39410  -0.39335
 Alpha  occ. eigenvalues --   -0.39149  -0.38890  -0.38800  -0.38583  -0.38483
 Alpha  occ. eigenvalues --   -0.38401  -0.38299  -0.37817  -0.37734  -0.37680
 Alpha  occ. eigenvalues --   -0.37395  -0.37153  -0.37017  -0.36505  -0.36211
 Alpha  occ. eigenvalues --   -0.36154  -0.35985  -0.35771  -0.35479  -0.35396
 Alpha  occ. eigenvalues --   -0.35362  -0.35185  -0.35035  -0.34746  -0.34687
 Alpha  occ. eigenvalues --   -0.34548  -0.34294  -0.34029  -0.33946  -0.33900
 Alpha  occ. eigenvalues --   -0.33554  -0.32895  -0.32689  -0.32555  -0.32328
 Alpha  occ. eigenvalues --   -0.31803  -0.31790  -0.31618  -0.31477  -0.31183
 Alpha  occ. eigenvalues --   -0.30827  -0.30808  -0.30589  -0.30314  -0.30172
 Alpha  occ. eigenvalues --   -0.30055  -0.29555  -0.28958  -0.28376  -0.28087
 Alpha  occ. eigenvalues --   -0.27945  -0.27247  -0.27104  -0.26407  -0.25609
 Alpha  occ. eigenvalues --   -0.25162  -0.25044  -0.23109  -0.21803  -0.19443
 Alpha  occ. eigenvalues --   -0.19076
 Alpha virt. eigenvalues --   -0.10392  -0.08341  -0.04698  -0.03380  -0.02804
 Alpha virt. eigenvalues --   -0.01292  -0.00358   0.01566   0.02480   0.03014
 Alpha virt. eigenvalues --    0.03659   0.03767   0.03971   0.04339   0.04575

 Mulliken charges:
               1
     1  C    0.028198
     2  C   -0.066708
     3  C   -0.128400
     4  C   -0.023384
     5  N   -0.105926
     6  C   -0.059098
     7  C   -0.001755
     8  C    0.007968
     9  C   -0.078170
    10  C    0.025538
    11  C   -0.007733
    12  C    0.062916
    13  C    0.153965
    14  O   -0.121686
    15  O   -0.363762
    16  N   -0.124074
    17  C    0.153785
    18  C   -0.158954
    19  C    0.132254
    20  C    0.120601
    21  C    0.140623
    22  C   -0.117097
    23  C   -0.126182
    24  N   -0.261908
    25  C    0.068589
    26  C   -0.136592
    27  C   -0.054740
    28  C    0.065971
    29  C    0.067352
    30  C    0.053847
    31  C   -0.033114
    32  N    0.123046
    33  C    0.030101
    34  C   -0.110516
    35  C   -0.024485
    36  C   -0.007389
    37  C    0.054805
    38  C    0.091466
    39  O   -0.165798
    40  C   -0.021507
    41  C    0.184123
    42  O   -0.299213
    43  O   -0.275163
    44  C    0.239632
    45  C    0.199763
    46  C    0.006669
    47  C   -0.125794
    48  C   -0.073406
    49  C    0.074458
    50  C    0.157348
    51  C   -0.044134
    52  C   -0.065884
    53  C    0.100562
    54  C   -0.054126
    55  C    0.001179
    56  C    0.082758
    57  C   -0.162270
    58  C    0.006819
    59  C    0.294655
    60  C   -0.002615
    61  C   -0.061526
    62  C   -0.103263
    63  C    0.032284
    64  C    0.017330
    65  H   -0.058799
    66  H    0.021462
    67  H   -0.044988
    68  H    0.006528
    69  H   -0.022123
    70  H    0.012480
    71  H    0.036126
    72  H    0.036926
    73  H    0.032811
    74  H    0.036121
    75  H    0.004421
    76  H    0.017832
    77  H    0.036465
    78  H   -0.013635
    79  H    0.040824
    80  H    0.020027
    81  H    0.039703
    82  H    0.052660
    83  H    0.021418
    84  H    0.038586
    85  H    0.012177
    86  H    0.011335
    87  H   -0.008640
    88  H    0.004404
    89  H    0.006375
    90  H    0.029956
    91  H    0.026556
    92  H    0.040603
    93  H    0.030765
    94  H    0.070304
    95  H    0.040739
    96  H    0.031933
    97  H   -0.008491
    98  H    0.065376
    99  H    0.043101
   100  H   -0.044455
   101  H    0.030375
   102  H    0.054931
   103  H    0.028100
   104  H   -0.010586
   105  H   -0.012690
   106  H   -0.067291
   107  H   -0.008830
   108  H   -0.015433
   109  H   -0.006897
   110  H   -0.000732
   111  H    0.028006
   112  H    0.044172
   113  H   -0.081529
   114  H    0.011792
   115  H    0.008771
   116  H    0.020565
   117  H    0.002201
   118  H    0.002679
   119  H   -0.034623
   120  H   -0.007126
   121  H    0.006284
   122  H   -0.013675
   123  H    0.021913
   124  H   -0.194837
   125  H   -0.024283
   126  H    0.020479
   127  H    0.015379
   128  H    0.002073
   129  H    0.010566
   130  H    0.010189
   131  H    0.022622
   132  H    0.001762
   133  H   -0.007022
   134  H    0.027563
   135  H    0.012371
   136  H    0.013935
   137  H    0.180090
   138  H    0.029624
 Sum of Mulliken charges =  -0.00000

 Dipole moment (field-independent basis, Debye):
    X=              2.8049    Y=              2.8652    Z=              0.9289  Tot=              4.1158
 Quadrupole moment (field-independent basis, Debye-Ang):
   XX=           -359.8563   YY=           -375.5063   ZZ=           -397.7209
   XY=            -21.7640   XZ=             -5.5727   YZ=             -4.5371

 Normal termination of Gaussian 16 at Mon Aug 26 03:57:58 2019.
