 Gaussian 16, Revision A.03,
 Gaussian 16:  ES64L-G16RevA.03 25-Dec-2016

 --------------------------
 # td=(NStates=1) B3LYP/SVP
 --------------------------

 --
 TD
 --
 Symbolic Z-matrix:
 Charge =  0 Multiplicity = 1

                         Standard orientation:
 ---------------------------------------------------------------------
 Center     Atomic      Atomic             Coordinates (Angstroms)
 Number     Number       Type             X           Y           Z
 ---------------------------------------------------------------------
      1          6           0       -5.169955   -1.957794    0.364736
      2          6           0       -4.486792    2.722949    1.217487
      3          6           0       -9.150036    3.474427   -0.191049
      4          6           0       -9.849015   -1.297237   -0.916297
      5          7           0       -5.067423    0.471286    0.766894
      6          6           0       -4.488613   -0.799726    0.779823
      7          6           0       -3.004590   -0.703583    1.284128
      8          6           0       -2.987825    0.766907    1.744727
      9          6           0       -4.266043    1.440646    1.202517
     10          6           0       -2.914567    0.793701    3.362929
     11          6           0       -2.111291   -0.924634    0.134711
     12          6           0       -0.657780   -1.191180    0.550133
     13          6           0        0.310936   -1.325077   -0.578956
     14          8           0        0.073638   -1.667199   -1.792936
     15          8           0        1.672822   -1.134926   -0.292726
     16          7           0       -6.793182    2.751749    0.479364
     17          6           0       -5.670725    3.435325    0.931076
     18          6           0       -5.918038    4.790854    0.996213
     19          6           0       -7.189570    4.993373    0.545248
     20          6           0       -7.798131    3.723140    0.232886
     21          6           0       -4.988459    5.825133    1.475759
     22          6           0       -7.922402    6.367312    0.414163
     23          6           0       -8.812471    6.625873   -0.522348
     24          7           0       -9.047822    0.983532   -0.431104
     25          6           0       -9.760013    2.244750   -0.412813
     26          6           0      -11.194606    2.067772   -0.836722
     27          6           0      -11.381264    0.750407   -0.981811
     28          6           0      -10.123516    0.136919   -0.798494
     29          6           0      -12.132205    3.215708   -0.975214
     30          6           0      -12.536437    0.092343   -1.634930
     31          6           0      -12.576486   -0.168829   -3.198752
     32          7           0       -7.438243   -1.158121   -0.295675
     33          6           0       -8.644171   -1.863138   -0.678145
     34          6           0       -8.259821   -3.325826   -0.692870
     35          6           0       -6.920705   -3.424492   -0.237065
     36          6           0       -6.466844   -2.010967   -0.003234
     37          6           0       -9.239158   -4.346913   -0.987338
     38          6           0       -5.894548   -4.219147    0.125162
     39          8           0       -5.976273   -5.474033    0.068051
     40          6           0       -4.662038   -3.318286    0.383100
     41          6           0       -4.009059   -3.775302    1.817877
     42          8           0       -4.333057   -3.312035    2.812074
     43          8           0       -3.207881   -4.783749    1.629174
     44          6           0       -2.688571   -5.534222    2.738155
     45          6           0        2.697306   -1.354846   -1.189390
     46          6           0        3.918164   -0.886667   -0.585698
     47          6           0        4.940369   -0.141686   -1.193519
     48          6           0        4.844727    0.225845   -2.683915
     49          6           0        6.198083    0.220552   -0.444368
     50          6           0        7.414957   -0.741673   -0.959824
     51          6           0        8.798782   -0.422518   -0.226619
     52          6           0       10.060675   -0.999110   -0.805867
     53          6           0        9.981523   -2.425394   -0.946618
     54          6           0       11.257403   -0.362874   -0.034861
     55          6           0       12.653871   -0.569285   -0.624050
     56          6           0       13.721959   -0.023399    0.103798
     57          6           0       15.179333   -0.078247   -0.342767
     58          6           0       15.653487   -1.627016   -0.437396
     59          6           0       16.133687    0.730872    0.479547
     60          6           0       17.580111    0.859216   -0.114705
     61          6           0       18.368592    1.930540    0.687369
     62          6           0       19.770496    1.921818    0.306590
     63          6           0       20.092707    2.361373   -1.156533
     64          6           0       20.757725    2.708281    1.152207
     65          1           0       -3.797509    3.449253    1.882210
     66          1           0       -9.801171    4.426206   -0.132474
     67          1           0      -10.581196   -1.939064   -1.422995
     68          1           0       -3.128542   -1.350224    2.066794
     69          1           0       -2.047316    1.357083    1.330799
     70          1           0       -1.900782    0.000129    3.728609
     71          1           0       -2.634354    1.836549    3.770261
     72          1           0       -3.843010    0.375408    3.942165
     73          1           0       -2.285148   -2.102387   -0.159588
     74          1           0       -2.403643   -0.177557   -0.535425
     75          1           0       -0.044710   -0.449989    1.441988
     76          1           0       -0.502751   -2.083304    1.042549
     77          1           0       -4.185793    5.929187    0.673546
     78          1           0       -5.237797    6.740244    1.534898
     79          1           0       -4.372517    5.564574    2.489988
     80          1           0       -7.701243    7.112989    1.010507
     81          1           0       -9.217171    6.037284   -1.170703
     82          1           0       -9.404729    7.507996   -0.550965
     83          1           0      -12.296431    3.652862   -0.043038
     84          1           0      -11.826168    3.976549   -1.846915
     85          1           0      -13.058954    2.653300   -1.158458
     86          1           0      -12.401799   -0.814355   -1.172619
     87          1           0      -13.368576    0.768448   -1.279423
     88          1           0      -12.249848    0.786506   -3.903677
     89          1           0      -11.683872   -0.824664   -3.426698
     90          1           0      -13.452188   -0.857676   -3.484236
     91          1           0      -10.247293   -4.518224   -0.322296
     92          1           0       -9.454674   -4.263994   -2.065918
     93          1           0       -8.619236   -5.363020   -0.715210
     94          1           0       -3.944488   -3.486360   -0.401551
     95          1           0       -1.936288   -6.378080    2.543605
     96          1           0       -2.211685   -4.905855    3.237475
     97          1           0       -3.461494   -5.968726    3.296337
     98          1           0        2.524325   -2.544483   -1.551837
     99          1           0        2.329668   -0.736415   -1.997136
    100          1           0        4.127463   -1.070073    0.500579
    101          1           0        5.364585    1.274830   -2.871770
    102          1           0        5.405296   -0.381235   -3.377866
    103          1           0        3.835664    0.374959   -3.204192
    104          1           0        6.121760    1.335604   -0.518808
    105          1           0        6.036086    0.010989    0.710758
    106          1           0        7.188031   -1.776876   -0.765501
    107          1           0        7.687233   -0.785010   -2.107885
    108          1           0        8.862730    0.655456   -0.220434
    109          1           0        8.661254   -0.854309    0.928409
    110          1           0        9.926178   -0.650063   -1.888388
    111          1           0        9.173442   -2.758828   -1.488013
    112          1           0       10.882188   -2.735460   -1.474027
    113          1           0        9.964261   -2.878883    0.124142
    114          1           0       11.036193    0.787775    0.073170
    115          1           0       11.212707   -0.834011    1.124256
    116          1           0       12.625106   -1.615781   -0.718670
    117          1           0       12.556381   -0.127262   -1.844461
    118          1           0       13.295686    1.029348    0.404132
    119          1           0       13.907509   -0.453574    1.127623
    120          1           0       15.190228    0.212706   -1.400825
    121          1           0       15.078162   -2.370219   -1.190677
    122          1           0       16.742627   -1.627239   -0.993322
    123          1           0       15.742768   -2.246624    0.491467
    124          1           0       15.459174    1.742408    0.352152
    125          1           0       16.040722    0.458756    1.380964
    126          1           0       17.852600   -0.290420   -0.118241
    127          1           0       17.408256    1.061556   -1.096172
    128          1           0       18.012328    2.870569    0.465799
    129          1           0       18.142599    1.563740    1.816345
    130          1           0       20.167069    0.765270    0.371376
    131          1           0       20.006922    3.629686   -0.959066
    132          1           0       21.091763    2.037918   -1.571105
    133          1           0       19.160407    2.082437   -1.724611
    134          1           0       20.427532    2.226380    2.163602
    135          1           0       21.619662    2.786554    0.786378
    136          1           0       20.386184    3.657517    1.327705
    137          1           0       -6.667112    1.725611    0.177367
    138          1           0       -7.445473   -0.249775   -0.297228
 ---------------------------------------------------------------------

 SCF Done:  E(RB3LYP) =  -2732.85712433     A.U. after   17 cycles

 Excitation energies and oscillator strengths:

 Excited State   1:      Singlet-A      2.0047 eV  618.48 nm  f=0.1842  <S**2>=0.000
     235 -> 238       -0.27459
     236 -> 237        0.63855
 This state for optimization and/or second-order correction.
 Total Energy, E(TD-HF/TD-DFT) =  -2732.78345407
 Copying the excited state density for this state as the 1-particle RhoCI density.

 The electronic state is 1-A.
 Alpha  occ. eigenvalues --  -19.18431 -19.15959 -19.13186 -19.11723 -19.11028
 Alpha  occ. eigenvalues --  -14.36510 -14.36402 -14.32039 -14.30688 -10.32119
 Alpha  occ. eigenvalues --  -10.31947 -10.26429 -10.24410 -10.24144 -10.24018
 Alpha  occ. eigenvalues --  -10.23806 -10.23654 -10.23620 -10.23138 -10.22852
 Alpha  occ. eigenvalues --  -10.22717 -10.22081 -10.21805 -10.21731 -10.21410
 Alpha  occ. eigenvalues --  -10.21316 -10.21274 -10.21211 -10.21184 -10.21001
 Alpha  occ. eigenvalues --  -10.20953 -10.20909 -10.20867 -10.20588 -10.20520
 Alpha  occ. eigenvalues --  -10.20505 -10.20485 -10.20075 -10.20059 -10.19842
 Alpha  occ. eigenvalues --  -10.19816 -10.19627 -10.19558 -10.19498 -10.19479
 Alpha  occ. eigenvalues --  -10.19386 -10.19346 -10.19197 -10.19195 -10.19072
 Alpha  occ. eigenvalues --  -10.19003 -10.18986 -10.18978 -10.18969 -10.18814
 Alpha  occ. eigenvalues --  -10.18745 -10.18687 -10.18607 -10.18436 -10.17798
 Alpha  occ. eigenvalues --  -10.17688 -10.17673 -10.17423 -10.15885  -1.12498
 Alpha  occ. eigenvalues --   -1.07162  -1.04232  -1.00015  -0.98052  -0.97040
 Alpha  occ. eigenvalues --   -0.96613  -0.93768  -0.91257  -0.86551  -0.83173
 Alpha  occ. eigenvalues --   -0.82734  -0.82307  -0.81679  -0.81544  -0.81158
 Alpha  occ. eigenvalues --   -0.80604  -0.80449  -0.79801  -0.78835  -0.77543
 Alpha  occ. eigenvalues --   -0.77370  -0.76974  -0.76371  -0.74979  -0.74788
 Alpha  occ. eigenvalues --   -0.74332  -0.73177  -0.72968  -0.71758  -0.71307
 Alpha  occ. eigenvalues --   -0.70425  -0.69890  -0.69106  -0.68249  -0.67731
 Alpha  occ. eigenvalues --   -0.67622  -0.66584  -0.66490  -0.66066  -0.65031
 Alpha  occ. eigenvalues --   -0.63972  -0.63507  -0.62873  -0.62301  -0.61999
 Alpha  occ. eigenvalues --   -0.61510  -0.60283  -0.59245  -0.58800  -0.58358
 Alpha  occ. eigenvalues --   -0.57132  -0.56939  -0.55858  -0.55491  -0.55386
 Alpha  occ. eigenvalues --   -0.55036  -0.54666  -0.54252  -0.53915  -0.52956
 Alpha  occ. eigenvalues --   -0.52737  -0.52105  -0.51958  -0.51088  -0.50572
 Alpha  occ. eigenvalues --   -0.50152  -0.49584  -0.49259  -0.49072  -0.48803
 Alpha  occ. eigenvalues --   -0.48357  -0.48132  -0.47804  -0.47541  -0.47473
 Alpha  occ. eigenvalues --   -0.46991  -0.46727  -0.46284  -0.46229  -0.45884
 Alpha  occ. eigenvalues --   -0.45336  -0.45167  -0.45086  -0.44600  -0.44412
 Alpha  occ. eigenvalues --   -0.44236  -0.44220  -0.44091  -0.44042  -0.43913
 Alpha  occ. eigenvalues --   -0.43617  -0.43472  -0.43283  -0.43023  -0.42801
 Alpha  occ. eigenvalues --   -0.42580  -0.42495  -0.42156  -0.42060  -0.41894
 Alpha  occ. eigenvalues --   -0.41714  -0.41441  -0.41173  -0.40944  -0.40641
 Alpha  occ. eigenvalues --   -0.40353  -0.40052  -0.39972  -0.39747  -0.39647
 Alpha  occ. eigenvalues --   -0.39199  -0.38818  -0.38787  -0.38569  -0.38461
 Alpha  occ. eigenvalues --   -0.38393  -0.38052  -0.37782  -0.37608  -0.37509
 Alpha  occ. eigenvalues --   -0.37389  -0.37278  -0.36836  -0.36614  -0.36429
 Alpha  occ. eigenvalues --   -0.36250  -0.36152  -0.35760  -0.35663  -0.35161
 Alpha  occ. eigenvalues --   -0.35128  -0.34955  -0.34798  -0.34587  -0.34329
 Alpha  occ. eigenvalues --   -0.34197  -0.33983  -0.33955  -0.33791  -0.33577
 Alpha  occ. eigenvalues --   -0.33330  -0.33144  -0.32760  -0.32501  -0.32361
 Alpha  occ. eigenvalues --   -0.32354  -0.32241  -0.31952  -0.31912  -0.30714
 Alpha  occ. eigenvalues --   -0.30472  -0.30446  -0.30177  -0.29947  -0.29486
 Alpha  occ. eigenvalues --   -0.28973  -0.28901  -0.28630  -0.28239  -0.27799
 Alpha  occ. eigenvalues --   -0.27626  -0.26788  -0.26627  -0.26272  -0.25656
 Alpha  occ. eigenvalues --   -0.24557  -0.24401  -0.23573  -0.22895  -0.20148
 Alpha  occ. eigenvalues --   -0.18959
 Alpha virt. eigenvalues --   -0.10640  -0.08063  -0.04994  -0.01609  -0.01300
 Alpha virt. eigenvalues --   -0.00788   0.00536   0.01732   0.01972   0.03065
 Alpha virt. eigenvalues --    0.03935   0.03960   0.04086   0.04332   0.04412

 Mulliken charges:
               1
     1  C    0.055426
     2  C   -0.082398
     3  C   -0.108693
     4  C   -0.085503
     5  N   -0.208526
     6  C   -0.173562
     7  C    0.115142
     8  C   -0.091146
     9  C    0.073655
    10  C   -0.064564
    11  C    0.096542
    12  C    0.038797
    13  C    0.195547
    14  O   -0.297350
    15  O   -0.337102
    16  N   -0.131737
    17  C    0.018698
    18  C   -0.083098
    19  C    0.014442
    20  C    0.086507
    21  C    0.149942
    22  C    0.046743
    23  C    0.048619
    24  N   -0.306550
    25  C    0.093703
    26  C   -0.158297
    27  C   -0.104184
    28  C    0.059427
    29  C    0.145160
    30  C    0.083264
    31  C   -0.028251
    32  N    0.063834
    33  C    0.098874
    34  C   -0.091830
    35  C    0.132473
    36  C    0.047517
    37  C   -0.038099
    38  C   -0.027180
    39  O   -0.232481
    40  C   -0.036715
    41  C    0.143166
    42  O   -0.154037
    43  O   -0.279260
    44  C    0.282389
    45  C    0.276758
    46  C   -0.070832
    47  C   -0.164781
    48  C    0.015713
    49  C    0.057378
    50  C   -0.005880
    51  C   -0.011230
    52  C   -0.077801
    53  C    0.095035
    54  C   -0.070140
    55  C    0.088917
    56  C    0.020751
    57  C   -0.021368
    58  C   -0.103982
    59  C    0.055748
    60  C    0.035574
    61  C    0.112360
    62  C   -0.188185
    63  C   -0.036137
    64  C    0.203020
    65  H    0.007377
    66  H    0.017682
    67  H   -0.006310
    68  H   -0.030432
    69  H    0.021497
    70  H    0.024358
    71  H    0.034492
    72  H    0.058962
    73  H    0.048175
    74  H    0.012404
    75  H    0.051743
    76  H    0.016010
    77  H    0.020767
    78  H   -0.066276
    79  H    0.040703
    80  H   -0.060986
    81  H   -0.044804
    82  H    0.002758
    83  H    0.010077
    84  H    0.053378
    85  H   -0.013828
    86  H   -0.013552
    87  H    0.015478
    88  H    0.040837
    89  H    0.002473
    90  H    0.039250
    91  H    0.070808
    92  H    0.045967
    93  H    0.067754
    94  H    0.048248
    95  H    0.045644
    96  H   -0.044546
    97  H    0.022259
    98  H    0.036135
    99  H   -0.001785
   100  H   -0.007392
   101  H    0.005408
   102  H    0.024509
   103  H    0.033856
   104  H    0.028214
   105  H    0.016770
   106  H    0.006866
   107  H    0.015081
   108  H   -0.004398
   109  H    0.000208
   110  H   -0.015634
   111  H   -0.014341
   112  H    0.003514
   113  H    0.001044
   114  H    0.010251
   115  H    0.013376
   116  H   -0.026852
   117  H    0.004485
   118  H   -0.006335
   119  H   -0.012583
   120  H   -0.018149
   121  H    0.025929
   122  H    0.024469
   123  H    0.020487
   124  H    0.001431
   125  H   -0.068966
   126  H    0.021518
   127  H   -0.029548
   128  H   -0.027205
   129  H    0.023288
   130  H   -0.003819
   131  H    0.006408
   132  H    0.046564
   133  H    0.013651
   134  H   -0.003262
   135  H   -0.047432
   136  H   -0.037008
   137  H    0.184740
   138  H    0.037920
 Sum of Mulliken charges =  -0.00000

 Dipole moment (field-independent basis, Debye):
    X=              1.1465    Y=              3.2048    Z=              1.0883  Tot=              3.5735
 Quadrupole moment (field-independent basis, Debye-Ang):
   XX=           -356.2721   YY=           -379.2290   ZZ=           -395.0004
   XY=            -26.4798   XZ=              7.9110   YZ=             -5.7600

 Normal termination of Gaussian 16 at Mon Aug 12 11:26:18 2019.
