 Gaussian 16, Revision A.03,
 Gaussian 16:  ES64L-G16RevA.03 25-Dec-2016

 --------------------------
 # td=(NStates=1) B3LYP/SVP
 --------------------------

 --
 TD
 --
 Symbolic Z-matrix:
 Charge =  0 Multiplicity = 1

                         Standard orientation:
 ---------------------------------------------------------------------
 Center     Atomic      Atomic             Coordinates (Angstroms)
 Number     Number       Type             X           Y           Z
 ---------------------------------------------------------------------
      1          6           0       -5.052961   -1.807391    0.476355
      2          6           0       -4.852701    2.833019    1.539190
      3          6           0       -9.309382    3.287195   -0.324380
      4          6           0       -9.766658   -1.565492   -1.112988
      5          7           0       -5.200150    0.522993    0.821467
      6          6           0       -4.496762   -0.724301    0.841241
      7          6           0       -3.044912   -0.553984    1.318033
      8          6           0       -3.184519    0.906726    2.054496
      9          6           0       -4.453967    1.407743    1.474150
     10          6           0       -3.233838    0.793624    3.530095
     11          6           0       -2.043509   -0.681198    0.139643
     12          6           0       -0.530219   -0.805904    0.604038
     13          6           0        0.423823   -0.884314   -0.540008
     14          8           0        0.125392   -1.223198   -1.671355
     15          8           0        1.668173   -0.809148   -0.072896
     16          7           0       -7.003058    2.796286    0.316177
     17          6           0       -5.946249    3.361727    0.932604
     18          6           0       -6.314322    4.819794    0.957201
     19          6           0       -7.525632    4.944974    0.431833
     20          6           0       -7.973209    3.653906   -0.037423
     21          6           0       -5.427297    5.918273    1.585711
     22          6           0       -8.075087    6.338319    0.172245
     23          6           0       -9.053428    6.580434   -0.663890
     24          7           0       -9.156115    0.834108   -0.651458
     25          6           0       -9.793894    2.032445   -0.646986
     26          6           0      -11.219302    1.782873   -0.942623
     27          6           0      -11.359139    0.439569   -1.270057
     28          6           0      -10.067801   -0.119089   -0.951348
     29          6           0      -12.320051    2.864452   -1.105333
     30          6           0      -12.583619   -0.285764   -1.648355
     31          6           0      -12.596742   -0.597656   -3.156715
     32          7           0       -7.462460   -1.281705   -0.178892
     33          6           0       -8.511712   -2.014489   -0.673737
     34          6           0       -8.076987   -3.472562   -0.764140
     35          6           0       -6.763129   -3.436792   -0.297829
     36          6           0       -6.408626   -2.058275    0.022152
     37          6           0       -8.924975   -4.504659   -1.229398
     38          6           0       -5.614554   -4.207361    0.008151
     39          8           0       -5.441293   -5.437353   -0.179143
     40          6           0       -4.439787   -3.289010    0.400005
     41          6           0       -3.891358   -3.713323    1.812707
     42          8           0       -4.295575   -3.288519    2.924875
     43          8           0       -3.100330   -4.776843    1.606573
     44          6           0       -2.558689   -5.456852    2.806908
     45          6           0        2.660862   -1.206531   -0.986687
     46          6           0        4.067845   -0.925656   -0.394352
     47          6           0        5.029644    0.005227   -0.818286
     48          6           0        4.840706    0.946894   -2.052118
     49          6           0        6.328880    0.100769   -0.043881
     50          6           0        7.502117   -0.296727   -0.935293
     51          6           0        8.810100   -0.344168   -0.140584
     52          6           0       10.060097   -0.734812   -0.859996
     53          6           0        9.996082   -2.240063   -1.233490
     54          6           0       11.184136   -0.416212    0.006534
     55          6           0       12.663478   -0.594195   -0.608128
     56          6           0       13.824114   -0.075239    0.260988
     57          6           0       15.197063   -0.165818   -0.417719
     58          6           0       15.556792   -1.649780   -0.631716
     59          6           0       16.208491    0.671427    0.332512
     60          6           0       17.627617    0.698134   -0.312673
     61          6           0       18.530019    1.597532    0.508284
     62          6           0       20.009460    1.674670    0.071165
     63          6           0       20.123159    2.325906   -1.315091
     64          6           0       20.894932    2.463077    1.062733
     65          1           0       -4.185128    3.536596    2.124415
     66          1           0       -9.907493    4.317711   -0.307582
     67          1           0      -10.492300   -2.194618   -1.364818
     68          1           0       -2.886254   -1.208669    2.027864
     69          1           0       -2.269810    1.625093    1.664467
     70          1           0       -2.297505    0.408954    3.869229
     71          1           0       -3.390227    1.680029    4.024029
     72          1           0       -4.082501    0.276467    3.990538
     73          1           0       -2.148059   -1.397133   -0.390337
     74          1           0       -2.065753    0.066359   -0.664706
     75          1           0       -0.109098   -0.105254    1.459735
     76          1           0       -0.668312   -1.928989    1.074914
     77          1           0       -4.293100    5.708036    1.223852
     78          1           0       -5.858373    6.892003    1.558432
     79          1           0       -5.560338    5.727968    2.845444
     80          1           0       -7.757876    7.057775    0.953517
     81          1           0       -9.399344    5.979355   -1.524441
     82          1           0       -9.212844    7.695553   -0.703899
     83          1           0      -12.661433    3.439436   -0.049641
     84          1           0      -12.123144    3.759235   -1.634427
     85          1           0      -13.264693    2.491052   -1.486337
     86          1           0      -12.621623   -1.200989   -0.880505
     87          1           0      -13.553696    0.143020   -1.223896
     88          1           0      -12.754518    0.328661   -3.727729
     89          1           0      -11.738559   -1.180038   -3.336574
     90          1           0      -13.384399   -1.353820   -3.418219
     91          1           0       -9.940054   -4.767016   -0.774340
     92          1           0       -9.239256   -4.377930   -2.252393
     93          1           0       -8.457350   -5.665521   -1.138342
     94          1           0       -3.587242   -3.373652   -0.310236
     95          1           0       -1.820387   -6.164426    2.405460
     96          1           0       -2.132421   -4.507667    3.254906
     97          1           0       -3.385867   -6.122537    3.414540
     98          1           0        2.676153   -2.183175   -1.067487
     99          1           0        2.648697   -0.720582   -1.974623
    100          1           0        4.256283   -1.378856    0.511595
    101          1           0        5.100956    2.060536   -1.761988
    102          1           0        5.578264    0.714789   -2.849152
    103          1           0        3.867710    0.806579   -2.504552
    104          1           0        6.392587    1.024894    0.396794
    105          1           0        6.335199   -0.581737    0.908220
    106          1           0        7.337480   -1.252685   -1.512038
    107          1           0        7.668549    0.588080   -1.830361
    108          1           0        8.956980    0.525237    0.368586
    109          1           0        8.696134   -0.853814    0.833007
    110          1           0       10.255890   -0.134122   -1.808741
    111          1           0        9.020197   -2.336591   -1.861563
    112          1           0       10.814175   -2.564886   -1.923855
    113          1           0        9.792578   -3.174706   -0.329975
    114          1           0       11.205482    0.680819    0.432703
    115          1           0       11.264648   -0.973910    0.995571
    116          1           0       12.987408   -1.647881   -0.678566
    117          1           0       12.620604   -0.258492   -1.582862
    118          1           0       13.787603    0.981940    0.697166
    119          1           0       13.809669   -0.672596    1.149641
    120          1           0       15.173124    0.182641   -1.437877
    121          1           0       14.820700   -2.359739   -1.141703
    122          1           0       16.517548   -1.847911   -1.214085
    123          1           0       15.659615   -2.135989    0.338740
    124          1           0       15.647532    1.731823    0.659160
    125          1           0       16.022921    0.276724    1.536628
    126          1           0       18.292419   -0.208361   -0.184551
    127          1           0       17.609688    1.145517   -1.337963
    128          1           0       18.077773    2.584739    0.712856
    129          1           0       18.530151    1.216352    1.570556
    130          1           0       20.216451    0.663631   -0.178677
    131          1           0       19.566334    3.343634   -1.325194
    132          1           0       21.102191    2.431212   -1.579236
    133          1           0       19.680718    1.609692   -2.084960
    134          1           0       20.981243    2.031636    2.029798
    135          1           0       21.936863    2.701759    0.553801
    136          1           0       20.452176    3.540376    1.326261
    137          1           0       -6.992525    1.655950    0.214453
    138          1           0       -7.764088   -0.345408   -0.186446
 ---------------------------------------------------------------------

 SCF Done:  E(RB3LYP) =  -2733.06193552     A.U. after   17 cycles

 Excitation energies and oscillator strengths:

 Excited State   1:      Singlet-A      2.0502 eV  604.75 nm  f=0.3012  <S**2>=0.000
     235 -> 238        0.18599
     236 -> 237        0.67191
 This state for optimization and/or second-order correction.
 Total Energy, E(TD-HF/TD-DFT) =  -2732.98659318
 Copying the excited state density for this state as the 1-particle RhoCI density.

 The electronic state is 1-A.
 Alpha  occ. eigenvalues --  -19.18437 -19.18394 -19.12640 -19.12542 -19.10850
 Alpha  occ. eigenvalues --  -14.37399 -14.37174 -14.32516 -14.29935 -10.32178
 Alpha  occ. eigenvalues --  -10.31682 -10.26996 -10.26554 -10.24347 -10.23740
 Alpha  occ. eigenvalues --  -10.23507 -10.23500 -10.23361 -10.23317 -10.22538
 Alpha  occ. eigenvalues --  -10.22207 -10.22024 -10.21796 -10.21766 -10.21575
 Alpha  occ. eigenvalues --  -10.21392 -10.21375 -10.21154 -10.21078 -10.20829
 Alpha  occ. eigenvalues --  -10.20530 -10.20470 -10.20435 -10.20296 -10.20295
 Alpha  occ. eigenvalues --  -10.20255 -10.20128 -10.19966 -10.19940 -10.19794
 Alpha  occ. eigenvalues --  -10.19781 -10.19543 -10.19464 -10.19410 -10.19408
 Alpha  occ. eigenvalues --  -10.19330 -10.19285 -10.19284 -10.19232 -10.18789
 Alpha  occ. eigenvalues --  -10.18629 -10.18551 -10.18498 -10.18409 -10.18296
 Alpha  occ. eigenvalues --  -10.18285 -10.18087 -10.17978 -10.17822 -10.17667
 Alpha  occ. eigenvalues --  -10.17589 -10.17583 -10.17531 -10.17272  -1.10915
 Alpha  occ. eigenvalues --   -1.08410  -1.01027  -1.00001  -0.99108  -0.98848
 Alpha  occ. eigenvalues --   -0.98778  -0.93705  -0.93415  -0.84559  -0.82926
 Alpha  occ. eigenvalues --   -0.81863  -0.81766  -0.81401  -0.81143  -0.80710
 Alpha  occ. eigenvalues --   -0.80058  -0.80010  -0.79196  -0.78680  -0.78104
 Alpha  occ. eigenvalues --   -0.76799  -0.75997  -0.75444  -0.75094  -0.74470
 Alpha  occ. eigenvalues --   -0.73431  -0.73257  -0.72999  -0.71556  -0.70538
 Alpha  occ. eigenvalues --   -0.69873  -0.69495  -0.68494  -0.67996  -0.67003
 Alpha  occ. eigenvalues --   -0.66910  -0.66672  -0.66491  -0.65950  -0.65326
 Alpha  occ. eigenvalues --   -0.65040  -0.63687  -0.62995  -0.61736  -0.61628
 Alpha  occ. eigenvalues --   -0.61220  -0.59595  -0.59113  -0.57865  -0.57468
 Alpha  occ. eigenvalues --   -0.57284  -0.56914  -0.55944  -0.55915  -0.55548
 Alpha  occ. eigenvalues --   -0.55207  -0.54592  -0.54572  -0.53569  -0.53040
 Alpha  occ. eigenvalues --   -0.52483  -0.51769  -0.51535  -0.51084  -0.50669
 Alpha  occ. eigenvalues --   -0.50138  -0.49320  -0.48738  -0.48551  -0.48108
 Alpha  occ. eigenvalues --   -0.47718  -0.47712  -0.47558  -0.47422  -0.47319
 Alpha  occ. eigenvalues --   -0.46972  -0.46286  -0.46130  -0.45876  -0.45577
 Alpha  occ. eigenvalues --   -0.45555  -0.45149  -0.45012  -0.44794  -0.44611
 Alpha  occ. eigenvalues --   -0.44526  -0.44324  -0.44184  -0.43907  -0.43736
 Alpha  occ. eigenvalues --   -0.43477  -0.43389  -0.43101  -0.42655  -0.42500
 Alpha  occ. eigenvalues --   -0.42153  -0.42055  -0.41534  -0.41375  -0.41082
 Alpha  occ. eigenvalues --   -0.40994  -0.40800  -0.40534  -0.40399  -0.40361
 Alpha  occ. eigenvalues --   -0.40147  -0.39887  -0.39512  -0.39212  -0.39115
 Alpha  occ. eigenvalues --   -0.38911  -0.38806  -0.38607  -0.38317  -0.38204
 Alpha  occ. eigenvalues --   -0.37903  -0.37810  -0.37721  -0.37506  -0.37319
 Alpha  occ. eigenvalues --   -0.37112  -0.36996  -0.36806  -0.36733  -0.36539
 Alpha  occ. eigenvalues --   -0.36481  -0.36393  -0.36287  -0.35778  -0.35601
 Alpha  occ. eigenvalues --   -0.35505  -0.35400  -0.35055  -0.34884  -0.34286
 Alpha  occ. eigenvalues --   -0.34184  -0.34170  -0.33940  -0.33760  -0.33491
 Alpha  occ. eigenvalues --   -0.33416  -0.33055  -0.32835  -0.32324  -0.32250
 Alpha  occ. eigenvalues --   -0.32136  -0.31986  -0.31958  -0.31592  -0.31414
 Alpha  occ. eigenvalues --   -0.31179  -0.31093  -0.30605  -0.30561  -0.30449
 Alpha  occ. eigenvalues --   -0.30435  -0.29648  -0.28615  -0.28380  -0.27854
 Alpha  occ. eigenvalues --   -0.27650  -0.27469  -0.26889  -0.26441  -0.26072
 Alpha  occ. eigenvalues --   -0.24608  -0.24408  -0.24225  -0.22328  -0.20762
 Alpha  occ. eigenvalues --   -0.18011
 Alpha virt. eigenvalues --   -0.10157  -0.07119  -0.04706  -0.01858  -0.01627
 Alpha virt. eigenvalues --   -0.00785  -0.00419   0.00207   0.02389   0.03641
 Alpha virt. eigenvalues --    0.03890   0.04080   0.04606   0.04705   0.04831

 Mulliken charges:
               1
     1  C    0.140160
     2  C   -0.122659
     3  C   -0.136096
     4  C    0.016081
     5  N   -0.213018
     6  C   -0.192759
     7  C    0.149978
     8  C   -0.114501
     9  C    0.006589
    10  C    0.150438
    11  C    0.238581
    12  C   -0.089846
    13  C    0.193621
    14  O   -0.245102
    15  O   -0.280852
    16  N   -0.094526
    17  C    0.130608
    18  C   -0.138333
    19  C   -0.024275
    20  C    0.039861
    21  C    0.039449
    22  C   -0.019525
    23  C   -0.042098
    24  N   -0.247719
    25  C    0.126371
    26  C   -0.099945
    27  C   -0.080425
    28  C    0.034240
    29  C    0.056531
    30  C   -0.036214
    31  C    0.074982
    32  N    0.072003
    33  C    0.013778
    34  C   -0.073903
    35  C    0.090364
    36  C    0.030035
    37  C   -0.014024
    38  C    0.045470
    39  O   -0.220465
    40  C   -0.039418
    41  C    0.213154
    42  O   -0.271962
    43  O   -0.301846
    44  C    0.132787
    45  C    0.381216
    46  C   -0.127219
    47  C   -0.142563
    48  C    0.051692
    49  C    0.102833
    50  C   -0.023583
    51  C    0.096001
    52  C    0.012226
    53  C   -0.042815
    54  C   -0.035278
    55  C    0.066019
    56  C    0.024819
    57  C   -0.011226
    58  C   -0.015942
    59  C   -0.082241
    60  C    0.079046
    61  C   -0.029462
    62  C   -0.037919
    63  C    0.021313
    64  C    0.012871
    65  H   -0.005667
    66  H    0.029932
    67  H   -0.074008
    68  H   -0.078299
    69  H    0.025270
    70  H    0.005918
    71  H   -0.026535
    72  H    0.020440
    73  H   -0.119215
    74  H   -0.001102
    75  H    0.052419
    76  H    0.058491
    77  H    0.068969
    78  H    0.009308
    79  H    0.041280
    80  H    0.017147
    81  H    0.049489
    82  H    0.025352
    83  H    0.011127
    84  H    0.001495
    85  H    0.004918
    86  H    0.012756
    87  H    0.008537
    88  H    0.031260
    89  H   -0.004333
    90  H    0.001225
    91  H    0.035614
    92  H    0.023604
    93  H    0.059062
    94  H    0.063962
    95  H    0.045585
    96  H    0.055938
    97  H    0.079684
    98  H   -0.035118
    99  H    0.011606
   100  H   -0.036854
   101  H    0.034965
   102  H    0.027929
   103  H    0.011100
   104  H   -0.016614
   105  H    0.003882
   106  H    0.021267
   107  H    0.012465
   108  H   -0.067488
   109  H   -0.034309
   110  H    0.000788
   111  H    0.009235
   112  H    0.022079
   113  H    0.033302
   114  H    0.000750
   115  H   -0.010183
   116  H   -0.005169
   117  H   -0.034715
   118  H   -0.016060
   119  H   -0.019654
   120  H   -0.019724
   121  H    0.018970
   122  H    0.012673
   123  H   -0.010806
   124  H    0.020188
   125  H   -0.002788
   126  H    0.023157
   127  H    0.021148
   128  H   -0.023271
   129  H   -0.015848
   130  H   -0.027985
   131  H    0.015845
   132  H   -0.017985
   133  H    0.008540
   134  H    0.005361
   135  H    0.023072
   136  H    0.016469
   137  H    0.219252
   138  H    0.095547
 Sum of Mulliken charges =  -0.00000

 Dipole moment (field-independent basis, Debye):
    X=              3.3191    Y=              3.6394    Z=              1.4782  Tot=              5.1426
 Quadrupole moment (field-independent basis, Debye-Ang):
   XX=           -360.4056   YY=           -380.3709   ZZ=           -393.9101
   XY=            -19.2261   XZ=              5.7001   YZ=             -0.1676

 Normal termination of Gaussian 16 at Sun Aug 25 22:13:02 2019.
