 Gaussian 16, Revision A.03,
 Gaussian 16:  ES64L-G16RevA.03 25-Dec-2016

 --------------------------
 # td=(NStates=1) B3LYP/SVP
 --------------------------

 --
 TD
 --
 Symbolic Z-matrix:
 Charge =  0 Multiplicity = 1

                         Standard orientation:
 ---------------------------------------------------------------------
 Center     Atomic      Atomic             Coordinates (Angstroms)
 Number     Number       Type             X           Y           Z
 ---------------------------------------------------------------------
      1          6           0       -5.144624   -1.978134    0.411851
      2          6           0       -4.653427    2.789804    1.374508
      3          6           0       -9.261684    3.470124   -0.257043
      4          6           0       -9.810486   -1.333327   -0.915668
      5          7           0       -5.169272    0.451796    0.705834
      6          6           0       -4.514095   -0.730775    0.771261
      7          6           0       -3.113515   -0.646813    1.242605
      8          6           0       -3.071395    0.770422    1.879495
      9          6           0       -4.367941    1.434128    1.244018
     10          6           0       -2.988411    0.900315    3.405608
     11          6           0       -2.056845   -0.899363    0.071216
     12          6           0       -0.597373   -1.062471    0.621697
     13          6           0        0.410042   -1.173545   -0.597337
     14          8           0        0.100493   -1.483591   -1.710834
     15          8           0        1.683470   -0.907820   -0.204241
     16          7           0       -7.004621    2.775500    0.426020
     17          6           0       -5.849427    3.424048    0.948566
     18          6           0       -6.106668    4.791875    1.081858
     19          6           0       -7.385182    5.030043    0.506313
     20          6           0       -7.940790    3.732001    0.152460
     21          6           0       -5.197101    5.849731    1.617439
     22          6           0       -7.947127    6.361425    0.234662
     23          6           0       -9.024559    6.729800   -0.554644
     24          7           0       -9.134275    1.000119   -0.575614
     25          6           0       -9.794611    2.179510   -0.629293
     26          6           0      -11.218112    1.963948   -1.021978
     27          6           0      -11.440090    0.525851   -1.059150
     28          6           0      -10.009305    0.070234   -0.937181
     29          6           0      -12.291724    3.105743   -0.852552
     30          6           0      -12.612589   -0.129499   -1.535352
     31          6           0      -12.721726   -0.312670   -3.053307
     32          7           0       -7.472147   -1.191740   -0.353798
     33          6           0       -8.530886   -1.985209   -0.719599
     34          6           0       -8.204270   -3.338749   -0.573502
     35          6           0       -6.852314   -3.469470   -0.283125
     36          6           0       -6.458465   -2.059184   -0.048790
     37          6           0       -9.126407   -4.453874   -1.000662
     38          6           0       -5.793877   -4.346135   -0.112688
     39          8           0       -5.641277   -5.595526   -0.100163
     40          6           0       -4.571541   -3.394790    0.396108
     41          6           0       -3.982480   -3.799836    1.664097
     42          8           0       -4.327012   -3.422476    2.705493
     43          8           0       -3.179292   -4.898974    1.477034
     44          6           0       -2.784638   -5.592973    2.629235
     45          6           0        2.729004   -1.142268   -1.219309
     46          6           0        3.999735   -0.798815   -0.500895
     47          6           0        5.046511   -0.137150   -0.904910
     48          6           0        5.028689    0.787291   -2.202843
     49          6           0        6.249704    0.034813   -0.162988
     50          6           0        7.495513   -0.586760   -0.811645
     51          6           0        8.777308   -0.398341   -0.075516
     52          6           0        9.990296   -0.989264   -0.717425
     53          6           0       10.024004   -2.534236   -0.756489
     54          6           0       11.274562   -0.322079   -0.046236
     55          6           0       12.645746   -0.656454   -0.640417
     56          6           0       13.804524   -0.061497    0.170707
     57          6           0       15.262049   -0.109268   -0.348529
     58          6           0       15.656859   -1.556593   -0.602470
     59          6           0       16.223458    0.684460    0.496560
     60          6           0       17.651661    0.749954   -0.076400
     61          6           0       18.621396    1.699385    0.650714
     62          6           0       20.008296    1.894275    0.004769
     63          6           0       20.019525    2.356522   -1.384037
     64          6           0       20.828961    2.723832    0.911307
     65          1           0       -4.033140    3.478488    2.033350
     66          1           0       -9.850891    4.341079   -0.461130
     67          1           0      -10.785185   -1.940756   -0.985791
     68          1           0       -2.905372   -1.494352    2.054052
     69          1           0       -2.125059    1.178408    1.503844
     70          1           0       -2.000342    0.511057    3.762059
     71          1           0       -3.215318    2.054992    3.628604
     72          1           0       -3.922003    0.588220    3.966528
     73          1           0       -2.393392   -1.893532   -0.204263
     74          1           0       -2.228978   -0.111767   -0.794746
     75          1           0       -0.073306   -0.139030    1.054210
     76          1           0       -0.301515   -2.024335    1.281112
     77          1           0       -4.384236    6.130034    0.972836
     78          1           0       -5.623516    6.804184    1.636114
     79          1           0       -4.855071    5.775754    2.686429
     80          1           0       -7.255619    7.016034    0.795294
     81          1           0       -9.536377    6.059996   -1.234126
     82          1           0       -9.285244    7.833748   -0.590375
     83          1           0      -12.065176    3.646670    0.049585
     84          1           0      -12.247260    4.161557   -1.522370
     85          1           0      -13.421361    2.820070   -0.988489
     86          1           0      -12.857258   -1.268765   -1.097194
     87          1           0      -13.610092    0.382495   -1.109488
     88          1           0      -12.875206    0.654991   -3.712963
     89          1           0      -11.771737   -0.465146   -3.755196
     90          1           0      -13.472637   -1.063295   -3.326304
     91          1           0       -9.955895   -4.710538   -0.336976
     92          1           0      -10.000397   -4.122820   -1.979026
     93          1           0       -8.312788   -5.303561   -1.083793
     94          1           0       -3.835297   -3.434330   -0.491431
     95          1           0       -2.101172   -6.386204    2.367125
     96          1           0       -2.236201   -5.047934    3.424405
     97          1           0       -3.408523   -6.317199    3.129700
     98          1           0        2.654772   -2.241049   -1.701496
     99          1           0        2.357400   -0.362911   -2.035062
    100          1           0        4.069760   -1.540738    0.428819
    101          1           0        5.594586    1.756100   -2.242727
    102          1           0        5.459239    0.214437   -3.114493
    103          1           0        3.836208    1.057289   -2.417850
    104          1           0        6.530532    0.987614    0.068873
    105          1           0        6.093747   -0.455613    0.782372
    106          1           0        7.268053   -1.574648   -0.874859
    107          1           0        7.696217   -0.216578   -1.874455
    108          1           0        8.945957    0.742231   -0.078092
    109          1           0        8.722890   -0.701334    1.026337
    110          1           0       10.149948   -0.743001   -1.729050
    111          1           0        9.046036   -2.990601   -1.163132
    112          1           0       11.002817   -2.832524   -1.171121
    113          1           0       10.165910   -2.901854    0.326004
    114          1           0       11.111275    0.785286    0.064492
    115          1           0       11.367737   -0.708331    1.038008
    116          1           0       12.887927   -1.755611   -0.705439
    117          1           0       12.756398   -0.339614   -1.707980
    118          1           0       13.544234    1.038957    0.391644
    119          1           0       13.845151   -0.773043    1.080285
    120          1           0       15.265841    0.437948   -1.348415
    121          1           0       15.291299   -2.134667   -1.658266
    122          1           0       16.729227   -1.569431   -0.624509
    123          1           0       15.412398   -2.100645    0.306969
    124          1           0       15.902509    1.919824    0.558648
    125          1           0       16.070258    0.227238    1.579429
    126          1           0       18.227974   -0.134109   -0.013737
    127          1           0       17.620011    0.873621   -1.094066
    128          1           0       18.121520    2.775660    0.752277
    129          1           0       18.830337    1.354835    1.519606
    130          1           0       20.409586    0.916187    0.275948
    131          1           0       19.444047    3.274466   -1.298995
    132          1           0       20.984390    2.710726   -1.520183
    133          1           0       19.573689    1.726996   -2.216584
    134          1           0       21.013739    2.268045    1.966699
    135          1           0       21.857631    3.105885    0.394555
    136          1           0       20.049153    3.572664    1.200234
    137          1           0       -7.162597    1.722130    0.408348
    138          1           0       -7.376060   -0.248604   -0.316496
 ---------------------------------------------------------------------

 SCF Done:  E(RB3LYP) =  -2733.10475992     A.U. after   17 cycles

 Excitation energies and oscillator strengths:

 Excited State   1:      Singlet-A      1.9337 eV  641.16 nm  f=0.2063  <S**2>=0.000
     235 -> 237       -0.24494
     235 -> 238        0.26339
     236 -> 237        0.58939
     236 -> 238        0.13580
 This state for optimization and/or second-order correction.
 Total Energy, E(TD-HF/TD-DFT) =  -2733.03369618
 Copying the excited state density for this state as the 1-particle RhoCI density.

 The electronic state is 1-A.
 Alpha  occ. eigenvalues --  -19.17365 -19.17119 -19.12602 -19.12331 -19.12273
 Alpha  occ. eigenvalues --  -14.37510 -14.37405 -14.33140 -14.30641 -10.31117
 Alpha  occ. eigenvalues --  -10.30842 -10.28349 -10.26585 -10.24233 -10.24086
 Alpha  occ. eigenvalues --  -10.23917 -10.23912 -10.23654 -10.23518 -10.23141
 Alpha  occ. eigenvalues --  -10.22464 -10.22426 -10.22094 -10.22031 -10.22006
 Alpha  occ. eigenvalues --  -10.21974 -10.21489 -10.21357 -10.21344 -10.21272
 Alpha  occ. eigenvalues --  -10.21180 -10.21130 -10.21010 -10.20942 -10.20758
 Alpha  occ. eigenvalues --  -10.20604 -10.20551 -10.20502 -10.20462 -10.20448
 Alpha  occ. eigenvalues --  -10.20428 -10.20272 -10.20236 -10.20190 -10.20068
 Alpha  occ. eigenvalues --  -10.19927 -10.19898 -10.19772 -10.19755 -10.19617
 Alpha  occ. eigenvalues --  -10.19114 -10.19034 -10.18857 -10.18800 -10.18783
 Alpha  occ. eigenvalues --  -10.18750 -10.18596 -10.18575 -10.17944 -10.17907
 Alpha  occ. eigenvalues --  -10.17489 -10.17371 -10.17349 -10.17242  -1.10281
 Alpha  occ. eigenvalues --   -1.08764  -1.02187  -1.00555  -1.00476  -0.99453
 Alpha  occ. eigenvalues --   -0.97395  -0.94378  -0.94088  -0.85251  -0.83730
 Alpha  occ. eigenvalues --   -0.82877  -0.82118  -0.81737  -0.81560  -0.80666
 Alpha  occ. eigenvalues --   -0.80573  -0.79964  -0.79607  -0.78214  -0.77448
 Alpha  occ. eigenvalues --   -0.76713  -0.75956  -0.75449  -0.74960  -0.73730
 Alpha  occ. eigenvalues --   -0.73302  -0.73177  -0.72443  -0.71620  -0.71498
 Alpha  occ. eigenvalues --   -0.69759  -0.69293  -0.68699  -0.68584  -0.67599
 Alpha  occ. eigenvalues --   -0.67463  -0.66846  -0.66500  -0.66128  -0.65379
 Alpha  occ. eigenvalues --   -0.64102  -0.63402  -0.62661  -0.62125  -0.61795
 Alpha  occ. eigenvalues --   -0.61381  -0.59594  -0.58810  -0.57872  -0.57235
 Alpha  occ. eigenvalues --   -0.56705  -0.56619  -0.55881  -0.55592  -0.55442
 Alpha  occ. eigenvalues --   -0.55096  -0.54451  -0.53952  -0.53666  -0.53094
 Alpha  occ. eigenvalues --   -0.52624  -0.52371  -0.51585  -0.50731  -0.50684
 Alpha  occ. eigenvalues --   -0.49592  -0.49471  -0.48788  -0.48654  -0.48562
 Alpha  occ. eigenvalues --   -0.47979  -0.47714  -0.47533  -0.47492  -0.47134
 Alpha  occ. eigenvalues --   -0.46846  -0.46183  -0.46133  -0.46034  -0.45869
 Alpha  occ. eigenvalues --   -0.45613  -0.45235  -0.45045  -0.45008  -0.44908
 Alpha  occ. eigenvalues --   -0.44586  -0.44181  -0.44082  -0.43772  -0.43606
 Alpha  occ. eigenvalues --   -0.43459  -0.43311  -0.43048  -0.42513  -0.42379
 Alpha  occ. eigenvalues --   -0.42245  -0.42047  -0.41680  -0.41530  -0.41447
 Alpha  occ. eigenvalues --   -0.41238  -0.41196  -0.40904  -0.40641  -0.40497
 Alpha  occ. eigenvalues --   -0.40026  -0.39912  -0.39671  -0.39569  -0.39434
 Alpha  occ. eigenvalues --   -0.39248  -0.39116  -0.38734  -0.38551  -0.38119
 Alpha  occ. eigenvalues --   -0.37964  -0.37763  -0.37508  -0.37333  -0.37269
 Alpha  occ. eigenvalues --   -0.37245  -0.36911  -0.36857  -0.36573  -0.36493
 Alpha  occ. eigenvalues --   -0.36452  -0.36178  -0.36026  -0.35947  -0.35813
 Alpha  occ. eigenvalues --   -0.35575  -0.35341  -0.35315  -0.35102  -0.35049
 Alpha  occ. eigenvalues --   -0.34777  -0.34710  -0.34394  -0.34123  -0.33956
 Alpha  occ. eigenvalues --   -0.33805  -0.33729  -0.33210  -0.33006  -0.31787
 Alpha  occ. eigenvalues --   -0.31765  -0.31709  -0.31507  -0.31155  -0.31115
 Alpha  occ. eigenvalues --   -0.30959  -0.30480  -0.30254  -0.30189  -0.30148
 Alpha  occ. eigenvalues --   -0.30039  -0.29736  -0.28962  -0.28545  -0.28052
 Alpha  occ. eigenvalues --   -0.28014  -0.27303  -0.27106  -0.26908  -0.26555
 Alpha  occ. eigenvalues --   -0.25702  -0.25081  -0.23835  -0.22669  -0.20121
 Alpha  occ. eigenvalues --   -0.19213
 Alpha virt. eigenvalues --   -0.11300  -0.08496  -0.05726  -0.02391  -0.00690
 Alpha virt. eigenvalues --   -0.00119   0.00212   0.00902   0.01382   0.02858
 Alpha virt. eigenvalues --    0.03530   0.04006   0.04182   0.04235   0.04621

 Mulliken charges:
               1
     1  C   -0.012096
     2  C   -0.096550
     3  C   -0.044810
     4  C   -0.079263
     5  N   -0.183068
     6  C   -0.029317
     7  C   -0.138477
     8  C    0.006792
     9  C    0.033104
    10  C    0.041526
    11  C    0.078618
    12  C   -0.036617
    13  C    0.153566
    14  O   -0.221724
    15  O   -0.337008
    16  N   -0.114311
    17  C    0.097608
    18  C   -0.109892
    19  C   -0.017786
    20  C    0.075645
    21  C    0.132765
    22  C    0.003619
    23  C   -0.040637
    24  N   -0.199575
    25  C    0.050467
    26  C   -0.083757
    27  C   -0.073102
    28  C    0.041686
    29  C   -0.003454
    30  C   -0.023391
    31  C   -0.041947
    32  N    0.036651
    33  C    0.109020
    34  C   -0.107784
    35  C    0.060988
    36  C    0.036584
    37  C   -0.016393
    38  C    0.045015
    39  O   -0.206272
    40  C   -0.076427
    41  C    0.202988
    42  O   -0.161993
    43  O   -0.298880
    44  C    0.204534
    45  C    0.174071
    46  C   -0.107435
    47  C   -0.071325
    48  C   -0.036009
    49  C    0.189008
    50  C    0.021210
    51  C    0.026787
    52  C   -0.028391
    53  C    0.002949
    54  C   -0.013936
    55  C    0.038986
    56  C   -0.022605
    57  C   -0.066813
    58  C    0.032194
    59  C   -0.039249
    60  C    0.111686
    61  C    0.043035
    62  C   -0.091478
    63  C    0.139238
    64  C   -0.061907
    65  H    0.011369
    66  H   -0.050270
    67  H    0.008299
    68  H    0.042044
    69  H   -0.013729
    70  H    0.040253
    71  H    0.005300
    72  H    0.023787
    73  H    0.005751
    74  H    0.048980
    75  H    0.045356
    76  H    0.071125
    77  H    0.019550
    78  H   -0.032150
    79  H    0.035342
    80  H   -0.014602
    81  H    0.043710
    82  H    0.039991
    83  H    0.024302
    84  H    0.013795
    85  H    0.044249
    86  H    0.022329
    87  H    0.033133
    88  H    0.014971
    89  H    0.025883
    90  H    0.020612
    91  H    0.031887
    92  H    0.045032
    93  H    0.076123
    94  H    0.082017
    95  H   -0.006532
    96  H    0.016670
    97  H    0.010690
    98  H    0.068162
    99  H    0.041567
   100  H    0.017620
   101  H    0.031641
   102  H    0.041980
   103  H    0.036466
   104  H   -0.034441
   105  H   -0.032486
   106  H   -0.038365
   107  H   -0.000556
   108  H   -0.010463
   109  H   -0.000365
   110  H   -0.027858
   111  H    0.036660
   112  H    0.012825
   113  H   -0.003712
   114  H    0.001764
   115  H   -0.005736
   116  H    0.001243
   117  H   -0.014607
   118  H    0.004024
   119  H    0.000193
   120  H   -0.012989
   121  H    0.044614
   122  H   -0.016052
   123  H   -0.006669
   124  H    0.019768
   125  H    0.007067
   126  H   -0.021812
   127  H   -0.041590
   128  H   -0.008551
   129  H   -0.063698
   130  H   -0.026080
   131  H   -0.018934
   132  H   -0.024886
   133  H    0.033857
   134  H    0.021577
   135  H    0.036629
   136  H    0.003590
   137  H    0.178215
   138  H    0.088466
 Sum of Mulliken charges =  -0.00000

 Dipole moment (field-independent basis, Debye):
    X=              2.9416    Y=              4.6152    Z=              0.8263  Tot=              5.5349
 Quadrupole moment (field-independent basis, Debye-Ang):
   XX=           -338.2366   YY=           -388.3541   ZZ=           -398.5259
   XY=            -31.0590   XZ=              0.7384   YZ=             -1.7999

 Normal termination of Gaussian 16 at Mon Aug 26 20:37:41 2019.
