 Gaussian 16, Revision A.03,
 Gaussian 16:  ES64L-G16RevA.03 25-Dec-2016

 --------------------------
 # td=(NStates=1) B3LYP/SVP
 --------------------------

 --
 TD
 --
 Symbolic Z-matrix:
 Charge =  0 Multiplicity = 1

                         Standard orientation:
 ---------------------------------------------------------------------
 Center     Atomic      Atomic             Coordinates (Angstroms)
 Number     Number       Type             X           Y           Z
 ---------------------------------------------------------------------
      1          6           0       -5.134175   -1.953286    0.343082
      2          6           0       -4.645413    2.701247    1.423642
      3          6           0       -9.257389    3.423391   -0.104237
      4          6           0       -9.811477   -1.347333   -0.951233
      5          7           0       -5.147389    0.432953    0.766609
      6          6           0       -4.531015   -0.744636    0.685061
      7          6           0       -3.068320   -0.617585    1.134904
      8          6           0       -2.958472    0.761776    1.761574
      9          6           0       -4.293374    1.325623    1.366301
     10          6           0       -2.794564    0.920882    3.310740
     11          6           0       -2.049767   -0.953061    0.072567
     12          6           0       -0.558941   -0.818746    0.578653
     13          6           0        0.392897   -1.045194   -0.683119
     14          8           0        0.012315   -1.344074   -1.811627
     15          8           0        1.620018   -0.903869   -0.272277
     16          7           0       -6.909924    2.733818    0.484140
     17          6           0       -5.800046    3.416097    0.952292
     18          6           0       -6.060255    4.736368    1.035520
     19          6           0       -7.409514    4.945866    0.607565
     20          6           0       -7.923143    3.630887    0.390537
     21          6           0       -5.145172    5.877342    1.396066
     22          6           0       -8.101061    6.177703    0.418703
     23          6           0       -9.008744    6.598767   -0.564537
     24          7           0       -9.138065    0.867359   -0.373143
     25          6           0       -9.744287    2.035088   -0.494711
     26          6           0      -11.170625    1.939848   -0.935778
     27          6           0      -11.376900    0.609424   -1.119019
     28          6           0      -10.098770   -0.116909   -0.782271
     29          6           0      -12.177206    2.997161   -0.951602
     30          6           0      -12.626683   -0.124396   -1.589263
     31          6           0      -12.728557   -0.482481   -3.013113
     32          7           0       -7.495298   -1.224067   -0.335458
     33          6           0       -8.591386   -1.987476   -0.683634
     34          6           0       -8.242857   -3.385033   -0.648758
     35          6           0       -6.871594   -3.389932   -0.225822
     36          6           0       -6.520800   -2.058373   -0.015569
     37          6           0       -9.087829   -4.507574   -1.122934
     38          6           0       -5.724612   -4.282626    0.093570
     39          8           0       -5.698709   -5.478332   -0.050629
     40          6           0       -4.576337   -3.357712    0.456797
     41          6           0       -3.976145   -3.831156    1.640421
     42          8           0       -4.222917   -3.399293    2.773595
     43          8           0       -3.037377   -4.861763    1.494288
     44          6           0       -2.713454   -5.333792    2.832651
     45          6           0        2.631862   -1.087421   -1.297380
     46          6           0        3.957323   -0.715548   -0.730556
     47          6           0        4.890097    0.127587   -1.225744
     48          6           0        4.761884    0.823792   -2.505317
     49          6           0        6.192842    0.386414   -0.413721
     50          6           0        7.411058   -0.333322   -1.044132
     51          6           0        8.663868   -0.201149   -0.268334
     52          6           0       10.080347   -0.745124   -0.792041
     53          6           0       10.034992   -2.269187   -0.745001
     54          6           0       11.273220   -0.089983    0.047889
     55          6           0       12.649731   -0.554163   -0.518660
     56          6           0       13.883656    0.053835    0.302068
     57          6           0       15.223518   -0.300326   -0.177088
     58          6           0       15.528839   -1.822612   -0.167343
     59          6           0       16.210587    0.513092    0.521504
     60          6           0       17.657039    0.561429   -0.110926
     61          6           0       18.523634    1.697205    0.541875
     62          6           0       20.051017    1.640325    0.133578
     63          6           0       20.201034    1.818016   -1.357934
     64          6           0       20.820606    2.725752    0.937400
     65          1           0       -3.783785    3.305010    1.968672
     66          1           0      -10.031790    4.167801   -0.165896
     67          1           0      -10.641518   -2.109413   -1.115533
     68          1           0       -2.953132   -1.220298    2.015435
     69          1           0       -2.123873    1.073431    1.383510
     70          1           0       -2.019118    0.307715    3.665632
     71          1           0       -2.600843    2.049054    3.456561
     72          1           0       -3.711638    0.325313    3.603297
     73          1           0       -1.913940   -2.083051   -0.514438
     74          1           0       -2.081379   -0.076154   -0.601632
     75          1           0       -0.102396    0.211471    0.933073
     76          1           0       -0.209184   -1.704419    1.284891
     77          1           0       -4.420750    6.004584    0.579778
     78          1           0       -5.896403    6.620650    1.293004
     79          1           0       -4.585327    5.564578    2.309471
     80          1           0       -7.915294    7.001977    1.234421
     81          1           0       -9.366156    6.197975   -1.499132
     82          1           0       -9.194641    7.645917   -0.345407
     83          1           0      -12.225333    3.427411    0.041983
     84          1           0      -11.972157    3.946677   -1.481199
     85          1           0      -13.080973    2.672049   -1.333180
     86          1           0      -12.558160   -0.985908   -1.048469
     87          1           0      -13.564698    0.390767   -1.126724
     88          1           0      -12.571740    0.341220   -3.694117
     89          1           0      -11.965343   -1.173278   -3.379637
     90          1           0      -13.684496   -0.971894   -3.225872
     91          1           0      -10.227337   -4.191167   -0.466329
     92          1           0       -9.380437   -4.742622   -2.106832
     93          1           0       -8.625103   -5.577477   -0.707277
     94          1           0       -4.009494   -3.588697   -0.526783
     95          1           0       -1.969885   -6.241205    2.574234
     96          1           0       -2.197609   -4.574096    3.297232
     97          1           0       -3.469234   -5.566934    3.605431
     98          1           0        2.583850   -2.323959   -1.540962
     99          1           0        2.189033   -0.471545   -2.200684
    100          1           0        4.177399   -1.111045    0.250647
    101          1           0        4.842431    1.957829   -2.377317
    102          1           0        5.523139    0.675246   -3.176079
    103          1           0        3.863986    0.901238   -3.026877
    104          1           0        6.314405    1.474409   -0.441969
    105          1           0        6.067233    0.132729    0.548999
    106          1           0        7.074554   -1.425773   -1.039544
    107          1           0        7.727933    0.028347   -2.172526
    108          1           0        8.964433    0.846238   -0.148811
    109          1           0        8.274104   -0.515084    0.608595
    110          1           0       10.213493   -0.511830   -2.077535
    111          1           0        9.016061   -2.623581   -1.195760
    112          1           0       10.910606   -2.749573   -1.172458
    113          1           0       10.179444   -2.512227    0.547555
    114          1           0       11.099518    1.047275    0.195488
    115          1           0       11.108049   -0.471151    1.031509
    116          1           0       12.589842   -1.722637   -0.218046
    117          1           0       12.617132   -0.194621   -1.588104
    118          1           0       13.567123    1.088927    0.299693
    119          1           0       13.769091   -0.220679    1.520803
    120          1           0       15.376931   -0.169198   -1.465745
    121          1           0       14.829269   -2.326069   -0.937511
    122          1           0       16.467444   -2.160337   -0.563027
    123          1           0       15.103051   -2.124532    1.021206
    124          1           0       15.963034    1.506082    0.856749
    125          1           0       16.440477   -0.102860    1.616965
    126          1           0       18.383836   -0.362918    0.057026
    127          1           0       17.614585    0.768542   -1.162294
    128          1           0       18.027791    2.665971    0.336018
    129          1           0       18.645143    1.612344    1.730899
    130          1           0       20.573460    0.643678    0.124365
    131          1           0       19.946623    2.879028   -1.481197
    132          1           0       21.032088    1.773302   -1.831859
    133          1           0       19.481314    1.189964   -2.002869
    134          1           0       20.824871    2.519583    2.099167
    135          1           0       21.894367    2.807881    0.514545
    136          1           0       20.299032    3.856679    0.856043
    137          1           0       -7.011002    1.711469    0.651709
    138          1           0       -7.630899   -0.138606   -0.287924
 ---------------------------------------------------------------------

 SCF Done:  E(RB3LYP) =  -2732.99061923     A.U. after   17 cycles

 Excitation energies and oscillator strengths:

 Excited State   1:      Singlet-A      2.0046 eV  618.51 nm  f=0.2499  <S**2>=0.000
     235 -> 237       -0.23074
     235 -> 238        0.22205
     236 -> 237        0.61905
     236 -> 238        0.12521
 This state for optimization and/or second-order correction.
 Total Energy, E(TD-HF/TD-DFT) =  -2732.91695260
 Copying the excited state density for this state as the 1-particle RhoCI density.

 The electronic state is 1-A.
 Alpha  occ. eigenvalues --  -19.18630 -19.17524 -19.12258 -19.12210 -19.11994
 Alpha  occ. eigenvalues --  -14.36723 -14.36288 -14.32240 -14.30906 -10.31418
 Alpha  occ. eigenvalues --  -10.31283 -10.27886 -10.27040 -10.23921 -10.23595
 Alpha  occ. eigenvalues --  -10.23399 -10.23093 -10.22524 -10.22517 -10.22398
 Alpha  occ. eigenvalues --  -10.22303 -10.22270 -10.21916 -10.21815 -10.21797
 Alpha  occ. eigenvalues --  -10.21757 -10.21370 -10.21080 -10.20882 -10.20848
 Alpha  occ. eigenvalues --  -10.20723 -10.20654 -10.20583 -10.20568 -10.20538
 Alpha  occ. eigenvalues --  -10.20374 -10.20333 -10.20310 -10.20308 -10.20270
 Alpha  occ. eigenvalues --  -10.20132 -10.19935 -10.19850 -10.19702 -10.19562
 Alpha  occ. eigenvalues --  -10.19503 -10.19452 -10.19375 -10.19344 -10.19306
 Alpha  occ. eigenvalues --  -10.19180 -10.19090 -10.19010 -10.18838 -10.18827
 Alpha  occ. eigenvalues --  -10.18802 -10.18610 -10.18518 -10.18475 -10.18240
 Alpha  occ. eigenvalues --  -10.18224 -10.17776 -10.17526 -10.16276  -1.10862
 Alpha  occ. eigenvalues --   -1.07840  -1.03224  -1.00230  -0.98836  -0.98778
 Alpha  occ. eigenvalues --   -0.98524  -0.94695  -0.93091  -0.85595  -0.83110
 Alpha  occ. eigenvalues --   -0.82389  -0.82198  -0.81466  -0.80921  -0.80544
 Alpha  occ. eigenvalues --   -0.80215  -0.79801  -0.79762  -0.79231  -0.77827
 Alpha  occ. eigenvalues --   -0.77184  -0.76365  -0.75924  -0.74859  -0.74408
 Alpha  occ. eigenvalues --   -0.73827  -0.72969  -0.71816  -0.71716  -0.71072
 Alpha  occ. eigenvalues --   -0.69926  -0.69604  -0.68879  -0.68492  -0.67760
 Alpha  occ. eigenvalues --   -0.67462  -0.66835  -0.66030  -0.65793  -0.65558
 Alpha  occ. eigenvalues --   -0.63816  -0.63265  -0.62799  -0.62010  -0.61391
 Alpha  occ. eigenvalues --   -0.60514  -0.58585  -0.58064  -0.57721  -0.57342
 Alpha  occ. eigenvalues --   -0.56379  -0.55839  -0.55347  -0.55312  -0.55006
 Alpha  occ. eigenvalues --   -0.54504  -0.54403  -0.53910  -0.53826  -0.53420
 Alpha  occ. eigenvalues --   -0.53266  -0.52612  -0.52208  -0.51581  -0.50548
 Alpha  occ. eigenvalues --   -0.50092  -0.49696  -0.49374  -0.48881  -0.48187
 Alpha  occ. eigenvalues --   -0.47930  -0.47703  -0.47406  -0.47291  -0.46938
 Alpha  occ. eigenvalues --   -0.46741  -0.46517  -0.46308  -0.46031  -0.45739
 Alpha  occ. eigenvalues --   -0.45507  -0.45393  -0.45126  -0.45030  -0.44621
 Alpha  occ. eigenvalues --   -0.44571  -0.44426  -0.44122  -0.43967  -0.43619
 Alpha  occ. eigenvalues --   -0.43290  -0.43071  -0.42812  -0.42778  -0.42723
 Alpha  occ. eigenvalues --   -0.42555  -0.42340  -0.42210  -0.42015  -0.41689
 Alpha  occ. eigenvalues --   -0.41476  -0.41311  -0.41229  -0.40709  -0.40640
 Alpha  occ. eigenvalues --   -0.40366  -0.40018  -0.39958  -0.39859  -0.39268
 Alpha  occ. eigenvalues --   -0.39215  -0.39163  -0.38778  -0.38564  -0.37956
 Alpha  occ. eigenvalues --   -0.37849  -0.37597  -0.37383  -0.37280  -0.37160
 Alpha  occ. eigenvalues --   -0.36996  -0.36794  -0.36491  -0.36369  -0.36318
 Alpha  occ. eigenvalues --   -0.36297  -0.36255  -0.36034  -0.35735  -0.35617
 Alpha  occ. eigenvalues --   -0.35578  -0.35555  -0.35235  -0.34881  -0.34690
 Alpha  occ. eigenvalues --   -0.34569  -0.34437  -0.34166  -0.33942  -0.33869
 Alpha  occ. eigenvalues --   -0.33390  -0.33153  -0.32947  -0.32733  -0.32544
 Alpha  occ. eigenvalues --   -0.32183  -0.32101  -0.31894  -0.31347  -0.30985
 Alpha  occ. eigenvalues --   -0.30645  -0.30493  -0.30391  -0.30166  -0.29860
 Alpha  occ. eigenvalues --   -0.29840  -0.29143  -0.28159  -0.28144  -0.27850
 Alpha  occ. eigenvalues --   -0.27737  -0.27223  -0.26863  -0.26256  -0.25228
 Alpha  occ. eigenvalues --   -0.25157  -0.24945  -0.24078  -0.23295  -0.19944
 Alpha  occ. eigenvalues --   -0.18609
 Alpha virt. eigenvalues --   -0.10761  -0.07034  -0.03977  -0.02795  -0.01046
 Alpha virt. eigenvalues --   -0.00683   0.00408   0.01033   0.02361   0.02986
 Alpha virt. eigenvalues --    0.03426   0.03698   0.03858   0.04196   0.04350

 Mulliken charges:
               1
     1  C   -0.021586
     2  C   -0.082802
     3  C   -0.096747
     4  C   -0.111964
     5  N   -0.161559
     6  C   -0.094642
     7  C    0.014795
     8  C    0.026532
     9  C   -0.038912
    10  C    0.073480
    11  C    0.056798
    12  C   -0.100803
    13  C    0.162333
    14  O   -0.261255
    15  O   -0.272053
    16  N   -0.051734
    17  C    0.117742
    18  C   -0.173215
    19  C    0.041104
    20  C    0.117338
    21  C    0.168177
    22  C   -0.140630
    23  C   -0.020077
    24  N   -0.264138
    25  C    0.040885
    26  C   -0.161923
    27  C   -0.107826
    28  C    0.131992
    29  C    0.156908
    30  C    0.114623
    31  C    0.055747
    32  N   -0.036251
    33  C    0.021168
    34  C   -0.072546
    35  C   -0.017783
    36  C    0.080629
    37  C   -0.046955
    38  C   -0.007754
    39  O   -0.152285
    40  C    0.053783
    41  C    0.239967
    42  O   -0.263939
    43  O   -0.328635
    44  C    0.208028
    45  C    0.182093
    46  C   -0.055429
    47  C   -0.154301
    48  C    0.142518
    49  C    0.142659
    50  C   -0.051277
    51  C    0.107208
    52  C   -0.130214
    53  C   -0.028620
    54  C    0.004501
    55  C   -0.006076
    56  C    0.002612
    57  C   -0.083001
    58  C   -0.005852
    59  C    0.043095
    60  C    0.006613
    61  C   -0.030253
    62  C   -0.080347
    63  C    0.069628
    64  C   -0.051568
    65  H   -0.009974
    66  H   -0.021629
    67  H   -0.005920
    68  H   -0.021086
    69  H   -0.084057
    70  H   -0.001934
    71  H    0.041251
    72  H    0.036717
    73  H    0.078381
    74  H    0.010262
    75  H    0.056464
    76  H    0.053076
    77  H    0.024187
    78  H   -0.008699
    79  H    0.039235
    80  H    0.050122
    81  H    0.031660
    82  H    0.023312
    83  H    0.013534
    84  H   -0.001331
    85  H   -0.006768
    86  H   -0.038494
    87  H    0.009549
    88  H   -0.000790
    89  H   -0.002098
    90  H    0.010165
    91  H    0.034298
    92  H    0.043385
    93  H    0.066246
    94  H    0.082190
    95  H    0.040736
    96  H   -0.010579
    97  H    0.039435
    98  H    0.052278
    99  H    0.058508
   100  H   -0.016247
   101  H   -0.004182
   102  H   -0.004988
   103  H   -0.018538
   104  H   -0.005616
   105  H   -0.039722
   106  H    0.011558
   107  H    0.016918
   108  H   -0.017938
   109  H   -0.043143
   110  H    0.006878
   111  H    0.041172
   112  H    0.026468
   113  H    0.007757
   114  H    0.007797
   115  H   -0.014618
   116  H    0.037126
   117  H    0.023875
   118  H   -0.007312
   119  H    0.011441
   120  H    0.001247
   121  H    0.018908
   122  H    0.018355
   123  H    0.023431
   124  H   -0.002505
   125  H    0.002557
   126  H    0.019605
   127  H    0.002005
   128  H    0.004314
   129  H    0.011513
   130  H    0.008910
   131  H   -0.022648
   132  H   -0.050913
   133  H    0.011598
   134  H    0.032811
   135  H    0.025379
   136  H    0.026538
   137  H    0.167044
   138  H    0.183534
 Sum of Mulliken charges =  -0.00000

 Dipole moment (field-independent basis, Debye):
    X=              2.6111    Y=              5.8304    Z=              0.0506  Tot=              6.3886
 Quadrupole moment (field-independent basis, Debye-Ang):
   XX=           -340.2208   YY=           -391.7047   ZZ=           -396.9091
   XY=            -27.4362   XZ=              4.9807   YZ=              0.6351

 Normal termination of Gaussian 16 at Wed Aug 14 08:38:13 2019.
