 Gaussian 16, Revision A.03,
 Gaussian 16:  ES64L-G16RevA.03 25-Dec-2016

 --------------------------
 # td=(NStates=1) B3LYP/SVP
 --------------------------

 --
 TD
 --
 Symbolic Z-matrix:
 Charge =  0 Multiplicity = 1

                         Standard orientation:
 ---------------------------------------------------------------------
 Center     Atomic      Atomic             Coordinates (Angstroms)
 Number     Number       Type             X           Y           Z
 ---------------------------------------------------------------------
      1          6           0       -5.116293   -1.975983    0.466901
      2          6           0       -4.735204    2.677653    1.521560
      3          6           0       -9.106017    3.432302   -0.353678
      4          6           0       -9.775977   -1.321873   -1.056441
      5          7           0       -5.198955    0.395103    0.827342
      6          6           0       -4.526711   -0.822604    0.880957
      7          6           0       -3.117899   -0.691839    1.325372
      8          6           0       -3.155866    0.756358    1.971926
      9          6           0       -4.419392    1.359641    1.390512
     10          6           0       -3.265940    0.817024    3.568751
     11          6           0       -2.054790   -0.807393    0.166888
     12          6           0       -0.689416   -0.782059    0.606636
     13          6           0        0.362296   -1.086822   -0.442710
     14          8           0        0.105626   -1.444826   -1.623703
     15          8           0        1.665680   -0.984482   -0.012796
     16          7           0       -6.965502    2.827624    0.430287
     17          6           0       -5.820109    3.417573    1.051466
     18          6           0       -6.217952    4.775845    1.263140
     19          6           0       -7.377085    5.006645    0.592841
     20          6           0       -7.852035    3.757249    0.256186
     21          6           0       -5.238012    5.795242    1.802917
     22          6           0       -8.145574    6.280234    0.551150
     23          6           0       -8.975242    6.734675   -0.346792
     24          7           0       -9.109203    0.947573   -0.615038
     25          6           0       -9.673524    2.173280   -0.719747
     26          6           0      -11.060519    2.101288   -1.218897
     27          6           0      -11.301342    0.724102   -1.300262
     28          6           0      -10.011053    0.007067   -0.926788
     29          6           0      -12.025863    3.227888   -1.362164
     30          6           0      -12.514737    0.062465   -1.901053
     31          6           0      -12.533946   -0.202147   -3.449765
     32          7           0       -7.520003   -1.280582   -0.118484
     33          6           0       -8.601735   -1.959848   -0.637964
     34          6           0       -8.216721   -3.380980   -0.637601
     35          6           0       -6.880644   -3.337483   -0.297311
     36          6           0       -6.526268   -2.055012    0.081307
     37          6           0       -9.108144   -4.514427   -1.162575
     38          6           0       -5.766651   -4.399900   -0.045570
     39          8           0       -5.693730   -5.474862   -0.273553
     40          6           0       -4.529585   -3.422883    0.454799
     41          6           0       -4.006636   -3.958753    1.658901
     42          8           0       -4.219668   -3.510486    2.805994
     43          8           0       -3.170860   -4.941017    1.473654
     44          6           0       -2.688595   -5.572759    2.683735
     45          6           0        2.695220   -1.324357   -0.921814
     46          6           0        4.025264   -0.918953   -0.424203
     47          6           0        4.990481   -0.184373   -1.077866
     48          6           0        4.910438    0.357219   -2.381037
     49          6           0        6.269172    0.034410   -0.267850
     50          6           0        7.492258   -0.662055   -0.880504
     51          6           0        8.844862   -0.257448   -0.206067
     52          6           0       10.108120   -0.817436   -0.697007
     53          6           0       10.005056   -2.317148   -0.569837
     54          6           0       11.370019   -0.317535    0.094984
     55          6           0       12.673618   -0.632072   -0.515103
     56          6           0       13.758510   -0.082878    0.432572
     57          6           0       15.133909   -0.188424   -0.347240
     58          6           0       15.552613   -1.628458   -0.565389
     59          6           0       16.222192    0.446627    0.471352
     60          6           0       17.505689    0.847843   -0.318837
     61          6           0       18.512870    1.725755    0.542057
     62          6           0       20.044605    1.936342   -0.245994
     63          6           0       19.900675    2.634959   -1.462527
     64          6           0       20.900393    2.802040    0.789561
     65          1           0       -4.063675    3.254744    2.136211
     66          1           0       -9.727492    4.280976   -0.587882
     67          1           0      -10.444456   -2.058310   -1.565699
     68          1           0       -2.684495   -1.460012    2.009636
     69          1           0       -2.297044    1.268858    1.556443
     70          1           0       -2.320307    0.449090    4.160733
     71          1           0       -3.470513    1.893709    3.832204
     72          1           0       -4.190423    0.382944    3.945106
     73          1           0       -2.186169   -1.653183   -0.499291
     74          1           0       -2.229907    0.074138   -0.638730
     75          1           0       -0.139708    0.076458    1.155615
     76          1           0       -0.385009   -1.595240    1.415045
     77          1           0       -4.093509    5.656972    1.223359
     78          1           0       -5.500690    6.863749    1.400363
     79          1           0       -5.281206    5.945182    3.012297
     80          1           0       -8.021475    7.084946    1.371508
     81          1           0       -9.337306    6.069534   -1.346723
     82          1           0       -9.452350    7.645580   -0.299429
     83          1           0      -12.174877    3.951159   -0.511482
     84          1           0      -11.796265    4.003603   -2.005896
     85          1           0      -13.000534    2.900977   -1.786795
     86          1           0      -12.623804   -0.921090   -1.507156
     87          1           0      -13.319123    0.515105   -1.617727
     88          1           0      -12.164219    0.812505   -3.927728
     89          1           0      -11.729597   -0.795404   -3.750154
     90          1           0      -13.489946   -0.634549   -3.806610
     91          1           0       -9.979369   -4.782118   -0.564189
     92          1           0       -9.576146   -4.323691   -2.301018
     93          1           0       -8.374958   -5.384513   -1.217295
     94          1           0       -3.778828   -3.546546   -0.271704
     95          1           0       -2.127851   -6.487243    2.578496
     96          1           0       -2.054878   -4.849490    3.274332
     97          1           0       -3.434371   -5.823540    3.352927
     98          1           0        2.714156   -2.381115   -1.013588
     99          1           0        2.257372   -0.988591   -1.999635
    100          1           0        4.241790   -1.412742    0.652739
    101          1           0        5.025444    1.485544   -2.568417
    102          1           0        5.528740   -0.302476   -3.160086
    103          1           0        3.926213    0.343300   -2.922310
    104          1           0        6.369935    1.063961   -0.313856
    105          1           0        6.153651   -0.283093    0.786412
    106          1           0        7.266568   -1.618324   -0.915158
    107          1           0        7.634286   -0.362742   -1.984580
    108          1           0        8.855308    0.905594   -0.083614
    109          1           0        8.563555   -0.432787    0.836792
    110          1           0       10.163652   -0.584945   -1.760205
    111          1           0        9.242204   -2.969116   -1.123444
    112          1           0       11.008674   -2.868264   -1.130192
    113          1           0        9.960546   -2.743262    0.432296
    114          1           0       11.536539    0.839967    0.179366
    115          1           0       11.382948   -0.902990    1.049389
    116          1           0       12.717286   -1.750543   -0.447682
    117          1           0       12.924794   -0.306074   -1.511284
    118          1           0       13.352062    0.924850    0.745033
    119          1           0       13.769847   -0.636368    1.532051
    120          1           0       14.921761    0.422949   -1.358372
    121          1           0       14.786761   -2.056032   -1.350499
    122          1           0       16.569284   -1.502654   -1.049055
    123          1           0       15.814718   -2.095426    0.425206
    124          1           0       15.858247    1.599233    0.733922
    125          1           0       16.406032   -0.157513    1.364578
    126          1           0       18.001021   -0.121205   -0.796439
    127          1           0       17.405512    1.492053   -1.303812
    128          1           0       18.101064    2.737525    0.757789
    129          1           0       18.592415    1.245962    1.615933
    130          1           0       20.607307    0.886514   -0.183606
    131          1           0       19.361278    3.474307   -1.449695
    132          1           0       20.900369    2.705270   -2.001509
    133          1           0       19.425739    2.003506   -2.228135
    134          1           0       21.064076    2.459129    1.683637
    135          1           0       21.955798    2.823648    0.519885
    136          1           0       20.402969    3.789918    0.969448
    137          1           0       -7.119844    1.866521    0.233152
    138          1           0       -7.597031   -0.398375   -0.022010
 ---------------------------------------------------------------------

 SCF Done:  E(RB3LYP) =  -2733.07296383     A.U. after   16 cycles

 Excitation energies and oscillator strengths:

 Excited State   1:      Singlet-A      2.0876 eV  593.90 nm  f=0.1798  <S**2>=0.000
     235 -> 237       -0.22828
     235 -> 238       -0.25573
     236 -> 237        0.59795
     236 -> 238       -0.15050
 This state for optimization and/or second-order correction.
 Total Energy, E(TD-HF/TD-DFT) =  -2732.99624478
 Copying the excited state density for this state as the 1-particle RhoCI density.

 The electronic state is 1-A.
 Alpha  occ. eigenvalues --  -19.18536 -19.17395 -19.15261 -19.12025 -19.10298
 Alpha  occ. eigenvalues --  -14.36507 -14.36217 -14.31961 -14.29682 -10.31886
 Alpha  occ. eigenvalues --  -10.30448 -10.29375 -10.24148 -10.24114 -10.23674
 Alpha  occ. eigenvalues --  -10.23098 -10.22984 -10.22890 -10.22770 -10.22222
 Alpha  occ. eigenvalues --  -10.22208 -10.21975 -10.21538 -10.21474 -10.21436
 Alpha  occ. eigenvalues --  -10.21205 -10.21064 -10.20628 -10.20500 -10.20448
 Alpha  occ. eigenvalues --  -10.20444 -10.20342 -10.20278 -10.20215 -10.20203
 Alpha  occ. eigenvalues --  -10.20197 -10.20064 -10.20058 -10.20002 -10.19764
 Alpha  occ. eigenvalues --  -10.19755 -10.19701 -10.19623 -10.19541 -10.19506
 Alpha  occ. eigenvalues --  -10.19407 -10.19153 -10.19097 -10.19021 -10.18941
 Alpha  occ. eigenvalues --  -10.18893 -10.18860 -10.18778 -10.18778 -10.18680
 Alpha  occ. eigenvalues --  -10.18667 -10.18399 -10.18157 -10.18123 -10.17627
 Alpha  occ. eigenvalues --  -10.17202 -10.17142 -10.16942 -10.16249  -1.11755
 Alpha  occ. eigenvalues --   -1.10454  -1.08082  -1.01665  -0.99631  -0.98362
 Alpha  occ. eigenvalues --   -0.97746  -0.93449  -0.93261  -0.84305  -0.82969
 Alpha  occ. eigenvalues --   -0.82581  -0.82141  -0.81624  -0.81238  -0.80686
 Alpha  occ. eigenvalues --   -0.80250  -0.79697  -0.79341  -0.78801  -0.77707
 Alpha  occ. eigenvalues --   -0.77362  -0.76501  -0.76235  -0.74994  -0.74495
 Alpha  occ. eigenvalues --   -0.73855  -0.73036  -0.72575  -0.71925  -0.70558
 Alpha  occ. eigenvalues --   -0.70203  -0.69530  -0.68954  -0.68388  -0.68056
 Alpha  occ. eigenvalues --   -0.67453  -0.65995  -0.65685  -0.65274  -0.64858
 Alpha  occ. eigenvalues --   -0.64439  -0.64088  -0.62738  -0.62183  -0.61938
 Alpha  occ. eigenvalues --   -0.60447  -0.58990  -0.58557  -0.58266  -0.57691
 Alpha  occ. eigenvalues --   -0.56604  -0.56384  -0.56236  -0.56210  -0.55389
 Alpha  occ. eigenvalues --   -0.55103  -0.54962  -0.54147  -0.53884  -0.53344
 Alpha  occ. eigenvalues --   -0.53014  -0.52380  -0.52194  -0.51629  -0.51234
 Alpha  occ. eigenvalues --   -0.49701  -0.49515  -0.49052  -0.48908  -0.48707
 Alpha  occ. eigenvalues --   -0.48228  -0.47952  -0.47766  -0.47263  -0.46887
 Alpha  occ. eigenvalues --   -0.46814  -0.46726  -0.46137  -0.46039  -0.45789
 Alpha  occ. eigenvalues --   -0.45534  -0.45372  -0.45170  -0.44960  -0.44796
 Alpha  occ. eigenvalues --   -0.44630  -0.44516  -0.44261  -0.44092  -0.43851
 Alpha  occ. eigenvalues --   -0.43644  -0.43193  -0.42967  -0.42778  -0.42548
 Alpha  occ. eigenvalues --   -0.42477  -0.42307  -0.42060  -0.41685  -0.41384
 Alpha  occ. eigenvalues --   -0.41162  -0.41086  -0.40969  -0.40742  -0.40520
 Alpha  occ. eigenvalues --   -0.40361  -0.40291  -0.39990  -0.39599  -0.39441
 Alpha  occ. eigenvalues --   -0.39284  -0.39088  -0.39042  -0.38532  -0.38448
 Alpha  occ. eigenvalues --   -0.38233  -0.38044  -0.37884  -0.37782  -0.37699
 Alpha  occ. eigenvalues --   -0.37552  -0.37473  -0.37239  -0.36901  -0.36740
 Alpha  occ. eigenvalues --   -0.36257  -0.36098  -0.35810  -0.35556  -0.35546
 Alpha  occ. eigenvalues --   -0.35203  -0.35153  -0.34869  -0.34671  -0.34639
 Alpha  occ. eigenvalues --   -0.34578  -0.34154  -0.33949  -0.33778  -0.33638
 Alpha  occ. eigenvalues --   -0.33128  -0.32914  -0.32585  -0.32434  -0.32164
 Alpha  occ. eigenvalues --   -0.31985  -0.31836  -0.31628  -0.31347  -0.31039
 Alpha  occ. eigenvalues --   -0.30890  -0.30737  -0.30031  -0.29938  -0.29564
 Alpha  occ. eigenvalues --   -0.29434  -0.29118  -0.28103  -0.27370  -0.27266
 Alpha  occ. eigenvalues --   -0.26765  -0.26703  -0.26652  -0.26450  -0.25797
 Alpha  occ. eigenvalues --   -0.25291  -0.25025  -0.24304  -0.22369  -0.19848
 Alpha  occ. eigenvalues --   -0.18812
 Alpha virt. eigenvalues --   -0.10303  -0.07271  -0.03221  -0.01244  -0.00654
 Alpha virt. eigenvalues --   -0.00453   0.00384   0.00955   0.02104   0.03741
 Alpha virt. eigenvalues --    0.03951   0.04098   0.04672   0.04792   0.04957

 Mulliken charges:
               1
     1  C    0.011974
     2  C   -0.035597
     3  C   -0.070228
     4  C   -0.077010
     5  N   -0.197002
     6  C   -0.022173
     7  C   -0.031272
     8  C    0.017517
     9  C   -0.024418
    10  C    0.051250
    11  C    0.052171
    12  C   -0.000472
    13  C    0.177167
    14  O   -0.284089
    15  O   -0.323062
    16  N   -0.005116
    17  C    0.093180
    18  C   -0.090415
    19  C    0.064406
    20  C    0.051683
    21  C   -0.054381
    22  C   -0.047880
    23  C   -0.061446
    24  N   -0.214039
    25  C    0.054867
    26  C   -0.114489
    27  C   -0.138304
    28  C    0.113554
    29  C    0.136409
    30  C    0.172458
    31  C    0.009426
    32  N    0.198703
    33  C   -0.030231
    34  C   -0.108776
    35  C   -0.126169
    36  C    0.054925
    37  C    0.014442
    38  C    0.094922
    39  O   -0.018676
    40  C   -0.013442
    41  C    0.169535
    42  O   -0.288829
    43  O   -0.270714
    44  C    0.231557
    45  C    0.232643
    46  C   -0.110528
    47  C   -0.119596
    48  C    0.014553
    49  C    0.127775
    50  C    0.038284
    51  C    0.020984
    52  C    0.078704
    53  C   -0.075756
    54  C    0.011929
    55  C    0.029115
    56  C   -0.032798
    57  C   -0.107657
    58  C    0.045851
    59  C    0.011870
    60  C   -0.032280
    61  C   -0.034651
    62  C   -0.149038
    63  C    0.140233
    64  C    0.092608
    65  H   -0.031090
    66  H   -0.059597
    67  H   -0.006089
    68  H    0.008099
    69  H   -0.013951
    70  H    0.038471
    71  H    0.003041
    72  H    0.024800
    73  H    0.018374
    74  H    0.024045
    75  H    0.042807
    76  H    0.039980
    77  H    0.062070
    78  H    0.031563
    79  H    0.058733
    80  H    0.020628
    81  H    0.047891
    82  H    0.002589
    83  H    0.015349
    84  H   -0.027639
    85  H    0.010242
    86  H   -0.032822
    87  H   -0.054724
    88  H    0.011550
    89  H   -0.014317
    90  H    0.027679
    91  H    0.036630
    92  H    0.050872
    93  H    0.047597
    94  H    0.027749
    95  H    0.024156
    96  H    0.023021
    97  H    0.005574
    98  H   -0.003084
    99  H    0.049178
   100  H    0.022906
   101  H    0.032604
   102  H    0.048003
   103  H   -0.000999
   104  H   -0.025846
   105  H   -0.002406
   106  H   -0.045044
   107  H   -0.006576
   108  H   -0.014687
   109  H   -0.032546
   110  H   -0.018423
   111  H    0.024600
   112  H    0.010465
   113  H    0.008503
   114  H    0.008739
   115  H    0.002310
   116  H    0.003322
   117  H   -0.008352
   118  H   -0.008260
   119  H    0.000412
   120  H    0.009880
   121  H    0.038140
   122  H    0.000097
   123  H    0.014808
   124  H    0.006420
   125  H    0.004917
   126  H    0.007715
   127  H    0.010341
   128  H    0.004078
   129  H    0.006536
   130  H    0.019004
   131  H   -0.018699
   132  H    0.005713
   133  H   -0.005208
   134  H   -0.054579
   135  H   -0.009244
   136  H    0.001722
   137  H    0.126203
   138  H    0.019894
 Sum of Mulliken charges =  -0.00000

 Dipole moment (field-independent basis, Debye):
    X=              1.6773    Y=              2.4677    Z=              0.6472  Tot=              3.0532
 Quadrupole moment (field-independent basis, Debye-Ang):
   XX=           -355.4082   YY=           -369.8661   ZZ=           -394.4736
   XY=            -19.8384   XZ=              4.6727   YZ=             -1.8816

 Normal termination of Gaussian 16 at Fri Aug 23 23:12:26 2019.
