 Gaussian 16, Revision A.03,
 Gaussian 16:  ES64L-G16RevA.03 25-Dec-2016

 --------------------------
 # td=(NStates=1) B3LYP/SVP
 --------------------------

 --
 TD
 --
 Symbolic Z-matrix:
 Charge =  0 Multiplicity = 1

                         Standard orientation:
 ---------------------------------------------------------------------
 Center     Atomic      Atomic             Coordinates (Angstroms)
 Number     Number       Type             X           Y           Z
 ---------------------------------------------------------------------
      1          6           0       -4.984292   -1.941532    0.444766
      2          6           0       -4.794435    2.748415    1.474109
      3          6           0       -9.352916    3.378191   -0.131759
      4          6           0       -9.679928   -1.464968   -1.403216
      5          7           0       -5.121659    0.489150    0.838654
      6          6           0       -4.400213   -0.729633    0.886043
      7          6           0       -3.012713   -0.658469    1.416424
      8          6           0       -3.078877    0.914140    1.998201
      9          6           0       -4.463621    1.440126    1.382834
     10          6           0       -2.956853    0.868398    3.495124
     11          6           0       -2.081660   -0.857768    0.257399
     12          6           0       -0.593710   -0.632740    0.589731
     13          6           0        0.379606   -1.042801   -0.452565
     14          8           0        0.121412   -1.469163   -1.524253
     15          8           0        1.642115   -0.857848   -0.105496
     16          7           0       -7.120381    2.710517    0.502119
     17          6           0       -6.011588    3.428730    1.107585
     18          6           0       -6.210101    4.815209    1.153232
     19          6           0       -7.532251    4.980260    0.680329
     20          6           0       -7.996047    3.653883    0.283037
     21          6           0       -5.227630    5.778869    1.580899
     22          6           0       -8.194949    6.240233    0.453923
     23          6           0       -9.045311    6.652232   -0.525224
     24          7           0       -9.131300    0.866562   -0.585122
     25          6           0       -9.828942    2.090510   -0.562419
     26          6           0      -11.148548    1.760993   -1.124636
     27          6           0      -11.395405    0.516786   -1.386072
     28          6           0       -9.974606   -0.074540   -1.028645
     29          6           0      -12.333643    2.991173   -1.128148
     30          6           0      -12.520615   -0.219436   -2.014231
     31          6           0      -12.488555   -0.495652   -3.520977
     32          7           0       -7.418198   -1.271747   -0.373200
     33          6           0       -8.498510   -2.047865   -0.971302
     34          6           0       -8.038633   -3.421692   -0.837760
     35          6           0       -6.764794   -3.416902   -0.224600
     36          6           0       -6.322420   -2.024355    0.017379
     37          6           0       -8.891406   -4.598476   -1.255100
     38          6           0       -5.661179   -4.308715    0.080422
     39          8           0       -5.539294   -5.486411    0.021691
     40          6           0       -4.565398   -3.325793    0.398051
     41          6           0       -4.014375   -3.800443    1.766769
     42          8           0       -4.143894   -3.316428    2.870575
     43          8           0       -3.120998   -4.884003    1.592559
     44          6           0       -2.679719   -5.457155    2.939897
     45          6           0        2.673588   -1.155687   -1.073027
     46          6           0        3.950804   -0.702681   -0.431993
     47          6           0        4.867617    0.149458   -0.965036
     48          6           0        4.818000    0.790010   -2.336051
     49          6           0        6.135518    0.288489   -0.186490
     50          6           0        7.363864   -0.255199   -0.836030
     51          6           0        8.663435   -0.120834    0.064094
     52          6           0        9.960203   -0.756603   -0.550038
     53          6           0        9.843749   -2.344948   -0.711248
     54          6           0       11.170571   -0.365528    0.209265
     55          6           0       12.556411   -0.501522   -0.435383
     56          6           0       13.815112   -0.048767    0.330843
     57          6           0       15.151354   -0.200447   -0.403383
     58          6           0       15.627275   -1.602724   -0.629867
     59          6           0       16.262020    0.569113    0.311659
     60          6           0       17.639043    0.747714   -0.333583
     61          6           0       18.624089    1.599742    0.377947
     62          6           0       20.022126    1.616749   -0.150022
     63          6           0       20.090187    2.268861   -1.533494
     64          6           0       21.082813    2.316690    0.722986
     65          1           0       -4.213494    3.482643    2.209782
     66          1           0      -10.144329    3.983695    0.075304
     67          1           0      -10.325650   -2.064477   -1.849080
     68          1           0       -2.800392   -1.304356    2.253975
     69          1           0       -2.289712    1.530260    1.432766
     70          1           0       -2.002754    0.520862    3.894829
     71          1           0       -3.045246    1.933967    4.016646
     72          1           0       -3.898305    0.266021    3.987749
     73          1           0       -2.249176   -1.839823   -0.179250
     74          1           0       -2.224577   -0.035067   -0.431939
     75          1           0       -0.139214    0.392584    1.006248
     76          1           0       -0.314216   -1.191248    1.547735
     77          1           0       -4.311440    5.870529    1.032127
     78          1           0       -5.477957    6.785448    1.625616
     79          1           0       -4.740421    5.599025    2.525236
     80          1           0       -8.150625    7.017576    1.261144
     81          1           0       -9.304327    5.975096   -1.252826
     82          1           0       -9.487836    7.763650   -0.638509
     83          1           0      -12.321293    3.361064   -0.018962
     84          1           0      -11.893293    3.866334   -1.840925
     85          1           0      -13.251437    2.556484   -1.502614
     86          1           0      -12.765264   -1.191968   -1.519304
     87          1           0      -13.372519    0.321002   -1.774266
     88          1           0      -12.127739    0.455677   -3.985058
     89          1           0      -11.609665   -1.006665   -3.714085
     90          1           0      -13.399526   -0.936883   -3.841406
     91          1           0       -9.718142   -4.765700   -0.509790
     92          1           0       -9.027110   -4.563804   -2.449293
     93          1           0       -8.343744   -5.718575   -0.970549
     94          1           0       -3.875388   -3.662024   -0.426508
     95          1           0       -2.262672   -6.478027    2.715895
     96          1           0       -1.922385   -4.788742    3.517636
     97          1           0       -3.560446   -5.747058    3.488161
     98          1           0        2.612581   -2.224795   -1.393163
     99          1           0        2.504786   -0.540736   -2.024626
    100          1           0        4.142662   -1.138136    0.550127
    101          1           0        5.355767    1.895080   -2.352050
    102          1           0        5.478464    0.107342   -3.034114
    103          1           0        3.824848    0.569035   -2.773684
    104          1           0        6.390939    1.537723    0.049316
    105          1           0        5.933505   -0.111306    0.855707
    106          1           0        7.296686   -1.303932   -1.236384
    107          1           0        7.619320    0.500407   -1.828089
    108          1           0        8.891720    0.886320    0.127792
    109          1           0        8.342349   -0.650179    1.086998
    110          1           0        9.790700   -0.275371   -1.557550
    111          1           0        8.709224   -2.527902   -1.378590
    112          1           0       10.398765   -2.713034   -1.407210
    113          1           0        9.817899   -2.833841    0.300343
    114          1           0       10.926357    0.685735    0.434127
    115          1           0       11.172267   -0.840823    1.164882
    116          1           0       12.671799   -1.638245   -0.549557
    117          1           0       12.641378   -0.312053   -1.421250
    118          1           0       13.515862    1.143142    0.669347
    119          1           0       13.864270   -0.562939    1.387241
    120          1           0       15.023419    0.246666   -1.412482
    121          1           0       14.980640   -2.219165   -1.082909
    122          1           0       16.618495   -1.312615   -1.221710
    123          1           0       15.760191   -1.866517    0.440197
    124          1           0       15.824304    1.726858    0.652247
    125          1           0       16.454989    0.109827    1.512586
    126          1           0       18.078758   -0.328591   -0.685667
    127          1           0       17.238168    1.211905   -1.298769
    128          1           0       18.148401    2.510725    0.141660
    129          1           0       18.541800    1.214940    1.463388
    130          1           0       20.456514    0.703722   -0.281849
    131          1           0       19.881373    3.401093   -1.243299
    132          1           0       21.258144    2.026100   -1.983587
    133          1           0       19.264784    1.909073   -2.219159
    134          1           0       21.208787    1.888673    1.780886
    135          1           0       22.028123    2.229475    0.091680
    136          1           0       20.819054    3.371555    0.973462
    137          1           0       -7.185992    1.818489    0.146184
    138          1           0       -7.587032   -0.318369   -0.330597
 ---------------------------------------------------------------------

 SCF Done:  E(RB3LYP) =  -2733.02186989     A.U. after   17 cycles

 Excitation energies and oscillator strengths:

 Excited State   1:      Singlet-A      1.9308 eV  642.14 nm  f=0.1960  <S**2>=0.000
     235 -> 237       -0.10727
     235 -> 238        0.26409
     236 -> 237        0.64033
 This state for optimization and/or second-order correction.
 Total Energy, E(TD-HF/TD-DFT) =  -2732.95091410
 Copying the excited state density for this state as the 1-particle RhoCI density.

 The electronic state is 1-A.
 Alpha  occ. eigenvalues --  -19.16600 -19.16490 -19.12970 -19.12129 -19.11023
 Alpha  occ. eigenvalues --  -14.37286 -14.36236 -14.32253 -14.31167 -10.31665
 Alpha  occ. eigenvalues --  -10.30175 -10.27336 -10.25074 -10.24689 -10.24257
 Alpha  occ. eigenvalues --  -10.24251 -10.24180 -10.23871 -10.23837 -10.22892
 Alpha  occ. eigenvalues --  -10.22393 -10.22256 -10.22109 -10.21961 -10.21620
 Alpha  occ. eigenvalues --  -10.21282 -10.21191 -10.21101 -10.21055 -10.20962
 Alpha  occ. eigenvalues --  -10.20954 -10.20910 -10.20803 -10.20783 -10.20603
 Alpha  occ. eigenvalues --  -10.20489 -10.20375 -10.20355 -10.20329 -10.20269
 Alpha  occ. eigenvalues --  -10.20238 -10.20214 -10.20058 -10.19880 -10.19817
 Alpha  occ. eigenvalues --  -10.19700 -10.19622 -10.19595 -10.19428 -10.19089
 Alpha  occ. eigenvalues --  -10.19081 -10.19059 -10.19054 -10.19014 -10.19004
 Alpha  occ. eigenvalues --  -10.18724 -10.18617 -10.18423 -10.18229 -10.18053
 Alpha  occ. eigenvalues --  -10.18019 -10.17950 -10.17872 -10.17693  -1.10215
 Alpha  occ. eigenvalues --   -1.06910  -1.04406  -1.00411  -0.99279  -0.98118
 Alpha  occ. eigenvalues --   -0.96126  -0.94408  -0.92999  -0.86462  -0.83414
 Alpha  occ. eigenvalues --   -0.82844  -0.82527  -0.81715  -0.81472  -0.80560
 Alpha  occ. eigenvalues --   -0.80375  -0.79794  -0.79605  -0.78376  -0.77298
 Alpha  occ. eigenvalues --   -0.76738  -0.76085  -0.75430  -0.74960  -0.74224
 Alpha  occ. eigenvalues --   -0.73694  -0.73019  -0.72816  -0.72206  -0.71725
 Alpha  occ. eigenvalues --   -0.69732  -0.68412  -0.68315  -0.67819  -0.67410
 Alpha  occ. eigenvalues --   -0.66790  -0.66340  -0.65901  -0.65606  -0.65183
 Alpha  occ. eigenvalues --   -0.64038  -0.63243  -0.62814  -0.62255  -0.61607
 Alpha  occ. eigenvalues --   -0.61230  -0.59030  -0.58264  -0.57962  -0.57925
 Alpha  occ. eigenvalues --   -0.57320  -0.56823  -0.55576  -0.55451  -0.55038
 Alpha  occ. eigenvalues --   -0.54878  -0.54871  -0.53971  -0.53873  -0.52567
 Alpha  occ. eigenvalues --   -0.52284  -0.51828  -0.51235  -0.50729  -0.50289
 Alpha  occ. eigenvalues --   -0.49646  -0.49611  -0.48595  -0.48439  -0.48017
 Alpha  occ. eigenvalues --   -0.47905  -0.47811  -0.47636  -0.47434  -0.47092
 Alpha  occ. eigenvalues --   -0.46836  -0.46526  -0.46103  -0.46016  -0.45745
 Alpha  occ. eigenvalues --   -0.45685  -0.45426  -0.45028  -0.45007  -0.44923
 Alpha  occ. eigenvalues --   -0.44801  -0.44394  -0.44267  -0.44166  -0.43887
 Alpha  occ. eigenvalues --   -0.43791  -0.43492  -0.42831  -0.42597  -0.42532
 Alpha  occ. eigenvalues --   -0.42382  -0.42296  -0.42034  -0.41684  -0.41466
 Alpha  occ. eigenvalues --   -0.41269  -0.40853  -0.40832  -0.40691  -0.40444
 Alpha  occ. eigenvalues --   -0.40305  -0.40131  -0.39969  -0.39700  -0.39288
 Alpha  occ. eigenvalues --   -0.39185  -0.39032  -0.38874  -0.38695  -0.38585
 Alpha  occ. eigenvalues --   -0.38502  -0.38074  -0.37873  -0.37711  -0.37357
 Alpha  occ. eigenvalues --   -0.37226  -0.37177  -0.37132  -0.37011  -0.36904
 Alpha  occ. eigenvalues --   -0.36780  -0.36495  -0.36349  -0.36060  -0.35988
 Alpha  occ. eigenvalues --   -0.35630  -0.35476  -0.34909  -0.34865  -0.34829
 Alpha  occ. eigenvalues --   -0.34352  -0.34042  -0.33885  -0.33592  -0.33530
 Alpha  occ. eigenvalues --   -0.33209  -0.32868  -0.32694  -0.32306  -0.31558
 Alpha  occ. eigenvalues --   -0.31438  -0.31327  -0.30935  -0.30789  -0.30552
 Alpha  occ. eigenvalues --   -0.30388  -0.30329  -0.30094  -0.30015  -0.29824
 Alpha  occ. eigenvalues --   -0.29739  -0.29283  -0.28959  -0.28379  -0.27817
 Alpha  occ. eigenvalues --   -0.27379  -0.26976  -0.26459  -0.26108  -0.25921
 Alpha  occ. eigenvalues --   -0.25155  -0.24599  -0.24561  -0.24265  -0.20318
 Alpha  occ. eigenvalues --   -0.18671
 Alpha virt. eigenvalues --   -0.10822  -0.07956  -0.04638  -0.01802  -0.00536
 Alpha virt. eigenvalues --   -0.00429   0.00868   0.01443   0.01877   0.03130
 Alpha virt. eigenvalues --    0.03745   0.03913   0.04144   0.04377   0.04622

 Mulliken charges:
               1
     1  C    0.065554
     2  C   -0.083985
     3  C   -0.018305
     4  C    0.015237
     5  N   -0.132082
     6  C   -0.056142
     7  C   -0.049900
     8  C   -0.052115
     9  C    0.010405
    10  C    0.006848
    11  C    0.132205
    12  C   -0.039625
    13  C    0.137252
    14  O   -0.218056
    15  O   -0.307636
    16  N    0.007543
    17  C    0.049302
    18  C   -0.052452
    19  C    0.045531
    20  C    0.064501
    21  C    0.163040
    22  C   -0.094105
    23  C   -0.047151
    24  N   -0.262045
    25  C    0.037694
    26  C   -0.120393
    27  C   -0.105377
    28  C    0.030239
    29  C   -0.008918
    30  C    0.082862
    31  C    0.092920
    32  N   -0.086981
    33  C    0.090029
    34  C   -0.102947
    35  C   -0.052056
    36  C    0.128257
    37  C   -0.031692
    38  C    0.036902
    39  O   -0.125933
    40  C   -0.051369
    41  C    0.212062
    42  O   -0.220087
    43  O   -0.363319
    44  C    0.167474
    45  C    0.258822
    46  C   -0.090597
    47  C   -0.117732
    48  C    0.041133
    49  C    0.022691
    50  C   -0.053877
    51  C    0.033382
    52  C   -0.115853
    53  C    0.049538
    54  C    0.128134
    55  C    0.091911
    56  C   -0.042623
    57  C   -0.036691
    58  C    0.082962
    59  C   -0.123951
    60  C   -0.059082
    61  C    0.137294
    62  C   -0.029046
    63  C   -0.085495
    64  C    0.003330
    65  H    0.011209
    66  H   -0.042490
    67  H   -0.079876
    68  H    0.019187
    69  H    0.011357
    70  H    0.022297
    71  H    0.013479
    72  H    0.051332
    73  H    0.027039
    74  H    0.007791
    75  H    0.048549
    76  H    0.021834
    77  H    0.000258
    78  H   -0.017145
    79  H    0.003393
    80  H    0.018139
    81  H   -0.002640
    82  H    0.052789
    83  H    0.053782
    84  H    0.041893
    85  H    0.023605
    86  H   -0.005193
    87  H   -0.032343
    88  H    0.000675
    89  H   -0.027119
    90  H    0.024524
    91  H    0.053064
    92  H    0.070075
    93  H    0.051930
    94  H    0.079645
    95  H    0.032910
    96  H    0.058298
    97  H    0.031762
    98  H    0.035277
    99  H    0.016259
   100  H   -0.008271
   101  H    0.055241
   102  H    0.039938
   103  H    0.006861
   104  H    0.006849
   105  H    0.008657
   106  H    0.019547
   107  H    0.010928
   108  H   -0.015611
   109  H    0.007569
   110  H   -0.012206
   111  H   -0.006104
   112  H   -0.026346
   113  H    0.032004
   114  H   -0.025302
   115  H   -0.022075
   116  H   -0.022668
   117  H   -0.053203
   118  H    0.006877
   119  H    0.004795
   120  H   -0.011113
   121  H   -0.016749
   122  H    0.032409
   123  H    0.002605
   124  H    0.013647
   125  H    0.000272
   126  H    0.022569
   127  H    0.005091
   128  H   -0.024664
   129  H    0.011657
   130  H   -0.035253
   131  H    0.023210
   132  H    0.037048
   133  H    0.030289
   134  H    0.011998
   135  H    0.016667
   136  H    0.002904
   137  H    0.112502
   138  H    0.094454
 Sum of Mulliken charges =  -0.00000

 Dipole moment (field-independent basis, Debye):
    X=              1.2734    Y=              3.6360    Z=              0.3626  Tot=              3.8696
 Quadrupole moment (field-independent basis, Debye-Ang):
   XX=           -352.8675   YY=           -384.8468   ZZ=           -392.5392
   XY=            -20.1008   XZ=              4.2918   YZ=              1.6709

 Normal termination of Gaussian 16 at Tue Aug 20 19:45:15 2019.
