 Gaussian 16, Revision A.03,
 Gaussian 16:  ES64L-G16RevA.03 25-Dec-2016

 --------------------------
 # td=(NStates=1) B3LYP/SVP
 --------------------------

 --
 TD
 --
 Symbolic Z-matrix:
 Charge =  0 Multiplicity = 1

                         Standard orientation:
 ---------------------------------------------------------------------
 Center     Atomic      Atomic             Coordinates (Angstroms)
 Number     Number       Type             X           Y           Z
 ---------------------------------------------------------------------
      1          6           0       -5.114183   -1.849864    0.555538
      2          6           0       -4.677547    2.830446    1.350536
      3          6           0       -9.431716    3.332484   -0.153435
      4          6           0       -9.913486   -1.599895   -0.706872
      5          7           0       -5.099684    0.555185    0.797110
      6          6           0       -4.445736   -0.587190    0.722173
      7          6           0       -2.996216   -0.488339    1.135555
      8          6           0       -3.021565    0.927307    1.790221
      9          6           0       -4.279373    1.445798    1.254654
     10          6           0       -2.902805    0.970447    3.340245
     11          6           0       -2.129927   -0.743891   -0.010476
     12          6           0       -0.542617   -0.639405    0.415492
     13          6           0        0.339223   -0.828743   -0.786043
     14          8           0        0.038570   -1.140574   -1.962400
     15          8           0        1.667018   -0.835780   -0.404111
     16          7           0       -7.052776    2.748784    0.347268
     17          6           0       -5.967181    3.359261    1.013958
     18          6           0       -6.251388    4.761939    0.978698
     19          6           0       -7.650425    4.945017    0.409818
     20          6           0       -8.108802    3.663411    0.141660
     21          6           0       -5.290219    5.811083    1.682447
     22          6           0       -8.208406    6.192499    0.166656
     23          6           0       -9.191681    6.613587   -0.684908
     24          7           0       -9.278878    0.819433   -0.499287
     25          6           0       -9.938439    1.946648   -0.482043
     26          6           0      -11.293970    1.722693   -0.749226
     27          6           0      -11.535393    0.347294   -0.899260
     28          6           0      -10.140863   -0.212617   -0.741960
     29          6           0      -12.367848    2.842697   -1.051145
     30          6           0      -12.712804   -0.390981   -1.473720
     31          6           0      -12.623022   -0.555725   -2.906147
     32          7           0       -7.531728   -1.326383   -0.199106
     33          6           0       -8.623825   -2.112382   -0.553589
     34          6           0       -8.111528   -3.473321   -0.583781
     35          6           0       -6.766593   -3.440457   -0.196336
     36          6           0       -6.428763   -2.017590    0.056106
     37          6           0       -8.927922   -4.680432   -0.963190
     38          6           0       -5.615434   -4.245362    0.038556
     39          8           0       -5.422360   -5.369565   -0.057450
     40          6           0       -4.460910   -3.229478    0.510860
     41          6           0       -3.876099   -3.759395    1.760628
     42          8           0       -4.088644   -3.392686    2.876011
     43          8           0       -2.912312   -4.754959    1.383259
     44          6           0       -2.167674   -5.330165    2.557782
     45          6           0        2.723927   -1.076406   -1.354409
     46          6           0        3.959309   -0.681486   -0.700072
     47          6           0        4.985700    0.077118   -1.196582
     48          6           0        4.920981    0.816545   -2.523643
     49          6           0        6.215507    0.268987   -0.365264
     50          6           0        7.576377   -0.394196   -1.056423
     51          6           0        8.695696   -0.168651   -0.107660
     52          6           0       10.034339   -0.796081   -0.720625
     53          6           0        9.960070   -2.333664   -0.873514
     54          6           0       11.337954   -0.281862    0.056044
     55          6           0       12.698327   -0.804888   -0.397242
     56          6           0       13.771346    0.026833    0.184130
     57          6           0       15.212067   -0.355242   -0.272930
     58          6           0       15.628910   -1.841498   -0.106080
     59          6           0       16.219058    0.563296    0.505862
     60          6           0       17.694471    0.553965   -0.100283
     61          6           0       18.498415    1.780123    0.578446
     62          6           0       19.906467    1.741114    0.098221
     63          6           0       20.029822    2.373476   -1.335287
     64          6           0       20.865222    2.567067    1.039547
     65          1           0       -4.130446    3.525209    2.104641
     66          1           0      -10.132584    4.252478   -0.361342
     67          1           0      -10.918432   -2.253981   -1.029230
     68          1           0       -2.772701   -1.268540    2.035493
     69          1           0       -2.070561    1.582377    1.389348
     70          1           0       -2.158070    0.553446    3.712423
     71          1           0       -3.046395    1.902018    3.709321
     72          1           0       -3.530118    0.432471    3.899951
     73          1           0       -2.372347   -1.535823   -0.511206
     74          1           0       -2.256571    0.091562   -0.781633
     75          1           0       -0.325925    0.314886    1.012784
     76          1           0       -0.335987   -1.448560    1.006181
     77          1           0       -4.421403    5.943701    0.878371
     78          1           0       -5.855236    6.755564    1.488389
     79          1           0       -4.916802    5.391692    2.758456
     80          1           0       -7.735938    6.962776    0.740971
     81          1           0       -9.492539    5.800143   -1.328425
     82          1           0       -9.799764    7.457536   -0.628453
     83          1           0      -12.388718    3.519089   -0.238147
     84          1           0      -12.095995    3.448716   -1.852678
     85          1           0      -13.397852    2.336433   -1.231035
     86          1           0      -12.708299   -1.281863   -0.960099
     87          1           0      -13.517016    0.368902   -1.191518
     88          1           0      -12.419683    0.483554   -3.380702
     89          1           0      -11.856082   -1.283625   -3.287325
     90          1           0      -13.703422   -0.892336   -3.313182
     91          1           0       -9.740954   -4.966053   -0.240747
     92          1           0       -9.606494   -4.655049   -1.802616
     93          1           0       -8.386195   -5.462309   -1.094446
     94          1           0       -3.563203   -3.436578   -0.125713
     95          1           0       -1.729676   -6.163556    2.015782
     96          1           0       -1.338474   -4.573449    2.873538
     97          1           0       -2.717061   -5.776144    3.396005
     98          1           0        2.755264   -2.177492   -1.866277
     99          1           0        2.557199   -0.662140   -2.199708
    100          1           0        3.936130   -1.098922    0.286888
    101          1           0        5.001670    1.935313   -2.581302
    102          1           0        5.891327    0.378895   -3.125899
    103          1           0        3.954848    0.622336   -3.238497
    104          1           0        6.310847    1.213209   -0.376197
    105          1           0        6.047458    0.033361    0.773639
    106          1           0        7.283636   -1.399484   -1.244667
    107          1           0        7.665936    0.037730   -2.052459
    108          1           0        8.887589    0.896983    0.217665
    109          1           0        8.598100   -0.898003    0.927578
    110          1           0       10.475937   -0.239278   -1.716528
    111          1           0        8.838075   -2.776321   -1.157461
    112          1           0       10.775495   -2.878048   -1.341595
    113          1           0        9.912403   -2.710613    0.260363
    114          1           0       11.278273    0.701389    0.087554
    115          1           0       11.260381   -0.493167    1.249490
    116          1           0       12.996493   -1.922383   -0.435119
    117          1           0       12.965298   -0.555821   -1.591255
    118          1           0       13.481996    1.294073   -0.033461
    119          1           0       13.834434    0.000337    1.286692
    120          1           0       15.342793   -0.122608   -1.430696
    121          1           0       14.886080   -2.332181   -0.485806
    122          1           0       16.617567   -1.883724   -0.634382
    123          1           0       15.751003   -2.255620    0.959070
    124          1           0       15.694027    1.475894    0.535023
    125          1           0       16.229669    0.349902    1.612885
    126          1           0       18.219160   -0.235299    0.365519
    127          1           0       17.625861    0.667135   -1.085304
    128          1           0       18.012130    2.645532    0.488351
    129          1           0       18.682793    1.714257    1.637580
    130          1           0       20.183775    0.533489    0.000494
    131          1           0       19.986331    3.579693   -1.333797
    132          1           0       20.994692    2.095115   -1.649918
    133          1           0       19.106447    1.814064   -1.970611
    134          1           0       20.655720    2.240537    2.114915
    135          1           0       21.888263    2.135298    0.721549
    136          1           0       20.835624    3.741580    0.760022
    137          1           0       -7.179145    1.737729    0.281400
    138          1           0       -7.670308   -0.329635   -0.233378
 ---------------------------------------------------------------------

 SCF Done:  E(RB3LYP) =  -2732.94225179     A.U. after   16 cycles

 Excitation energies and oscillator strengths:

 Excited State   1:      Singlet-A      2.0034 eV  618.86 nm  f=0.1174  <S**2>=0.000
     235 -> 237       -0.19395
     235 -> 238        0.32496
     236 -> 237        0.57965
     236 -> 238        0.12690
 This state for optimization and/or second-order correction.
 Total Energy, E(TD-HF/TD-DFT) =  -2732.86862708
 Copying the excited state density for this state as the 1-particle RhoCI density.

 The electronic state is 1-A.
 Alpha  occ. eigenvalues --  -19.17201 -19.16660 -19.12901 -19.12485 -19.12300
 Alpha  occ. eigenvalues --  -14.37540 -14.36569 -14.32415 -14.29948 -10.32137
 Alpha  occ. eigenvalues --  -10.30930 -10.27372 -10.24687 -10.24299 -10.24274
 Alpha  occ. eigenvalues --  -10.23945 -10.23765 -10.23424 -10.23329 -10.23129
 Alpha  occ. eigenvalues --  -10.22713 -10.22342 -10.22316 -10.21714 -10.21704
 Alpha  occ. eigenvalues --  -10.21693 -10.21672 -10.21649 -10.21541 -10.21401
 Alpha  occ. eigenvalues --  -10.21137 -10.21132 -10.20976 -10.20856 -10.20856
 Alpha  occ. eigenvalues --  -10.20546 -10.20482 -10.20420 -10.20255 -10.20117
 Alpha  occ. eigenvalues --  -10.20056 -10.19809 -10.19709 -10.19638 -10.19578
 Alpha  occ. eigenvalues --  -10.19505 -10.19447 -10.19355 -10.19227 -10.19226
 Alpha  occ. eigenvalues --  -10.19218 -10.18770 -10.18764 -10.18651 -10.18449
 Alpha  occ. eigenvalues --  -10.18290 -10.18204 -10.18058 -10.18034 -10.17616
 Alpha  occ. eigenvalues --  -10.17381 -10.17266 -10.16193 -10.16170  -1.07442
 Alpha  occ. eigenvalues --   -1.07315  -1.06497  -0.99317  -0.99249  -0.98442
 Alpha  occ. eigenvalues --   -0.97964  -0.96168  -0.94379  -0.84630  -0.82306
 Alpha  occ. eigenvalues --   -0.82035  -0.81819  -0.81453  -0.80975  -0.80444
 Alpha  occ. eigenvalues --   -0.80288  -0.79645  -0.79311  -0.79051  -0.78108
 Alpha  occ. eigenvalues --   -0.76987  -0.75848  -0.75355  -0.74798  -0.74269
 Alpha  occ. eigenvalues --   -0.73567  -0.73045  -0.72211  -0.71976  -0.70989
 Alpha  occ. eigenvalues --   -0.70758  -0.69042  -0.68562  -0.67527  -0.67384
 Alpha  occ. eigenvalues --   -0.67239  -0.67109  -0.66451  -0.65802  -0.65619
 Alpha  occ. eigenvalues --   -0.64747  -0.63975  -0.63410  -0.62458  -0.62197
 Alpha  occ. eigenvalues --   -0.61411  -0.60093  -0.58760  -0.58291  -0.57906
 Alpha  occ. eigenvalues --   -0.57305  -0.57075  -0.56067  -0.54862  -0.54833
 Alpha  occ. eigenvalues --   -0.54143  -0.53824  -0.53692  -0.53307  -0.53048
 Alpha  occ. eigenvalues --   -0.52713  -0.52087  -0.51886  -0.51203  -0.49889
 Alpha  occ. eigenvalues --   -0.49786  -0.49407  -0.48982  -0.48300  -0.47978
 Alpha  occ. eigenvalues --   -0.47796  -0.47605  -0.47342  -0.47196  -0.46513
 Alpha  occ. eigenvalues --   -0.46453  -0.46277  -0.45925  -0.45854  -0.45625
 Alpha  occ. eigenvalues --   -0.45362  -0.45268  -0.45097  -0.44828  -0.44767
 Alpha  occ. eigenvalues --   -0.44519  -0.44400  -0.44157  -0.43856  -0.43514
 Alpha  occ. eigenvalues --   -0.43437  -0.43302  -0.43135  -0.43033  -0.42773
 Alpha  occ. eigenvalues --   -0.42445  -0.42126  -0.42026  -0.41710  -0.41637
 Alpha  occ. eigenvalues --   -0.41437  -0.41093  -0.40665  -0.40594  -0.40262
 Alpha  occ. eigenvalues --   -0.40101  -0.40067  -0.39966  -0.39499  -0.39340
 Alpha  occ. eigenvalues --   -0.39257  -0.39198  -0.38975  -0.38872  -0.38700
 Alpha  occ. eigenvalues --   -0.38630  -0.38257  -0.38162  -0.38073  -0.37735
 Alpha  occ. eigenvalues --   -0.37589  -0.37428  -0.37260  -0.37156  -0.36892
 Alpha  occ. eigenvalues --   -0.36749  -0.36632  -0.36510  -0.36376  -0.36225
 Alpha  occ. eigenvalues --   -0.36148  -0.35944  -0.35828  -0.35661  -0.35463
 Alpha  occ. eigenvalues --   -0.35312  -0.34898  -0.34814  -0.34670  -0.33657
 Alpha  occ. eigenvalues --   -0.33582  -0.33243  -0.33109  -0.32475  -0.32412
 Alpha  occ. eigenvalues --   -0.32211  -0.32034  -0.31970  -0.31809  -0.31352
 Alpha  occ. eigenvalues --   -0.31014  -0.30212  -0.30003  -0.29870  -0.29501
 Alpha  occ. eigenvalues --   -0.29465  -0.28467  -0.28389  -0.28306  -0.27797
 Alpha  occ. eigenvalues --   -0.27649  -0.27525  -0.26712  -0.26086  -0.26029
 Alpha  occ. eigenvalues --   -0.24998  -0.23574  -0.22928  -0.22316  -0.19989
 Alpha  occ. eigenvalues --   -0.19379
 Alpha virt. eigenvalues --   -0.10761  -0.08672  -0.04907  -0.02170  -0.01258
 Alpha virt. eigenvalues --   -0.00237  -0.00150   0.00473   0.01698   0.03188
 Alpha virt. eigenvalues --    0.03337   0.03463   0.04028   0.04051   0.04298

 Mulliken charges:
               1
     1  C    0.065410
     2  C   -0.070447
     3  C   -0.111647
     4  C   -0.096223
     5  N   -0.090384
     6  C   -0.067548
     7  C   -0.091438
     8  C   -0.082312
     9  C   -0.021121
    10  C    0.275833
    11  C    0.141083
    12  C    0.056658
    13  C    0.208390
    14  O   -0.268504
    15  O   -0.343437
    16  N   -0.120469
    17  C    0.100310
    18  C   -0.174245
    19  C    0.075886
    20  C    0.108077
    21  C    0.041928
    22  C   -0.089647
    23  C    0.002499
    24  N   -0.203480
    25  C    0.033103
    26  C   -0.164267
    27  C   -0.154770
    28  C    0.002326
    29  C    0.130455
    30  C    0.128523
    31  C   -0.025270
    32  N   -0.001684
    33  C    0.084582
    34  C   -0.126222
    35  C   -0.032923
    36  C    0.059255
    37  C    0.188168
    38  C    0.042665
    39  O   -0.076557
    40  C   -0.130801
    41  C    0.209146
    42  O   -0.196390
    43  O   -0.383246
    44  C    0.164843
    45  C    0.374009
    46  C   -0.104978
    47  C   -0.093032
    48  C   -0.047317
    49  C    0.139989
    50  C    0.043022
    51  C   -0.009237
    52  C   -0.108932
    53  C   -0.021818
    54  C    0.108014
    55  C   -0.013656
    56  C   -0.049493
    57  C   -0.140312
    58  C    0.102866
    59  C    0.035954
    60  C    0.120134
    61  C    0.113395
    62  C   -0.197744
    63  C   -0.009986
    64  C   -0.012887
    65  H    0.008424
    66  H    0.015872
    67  H    0.046162
    68  H    0.043581
    69  H    0.019110
    70  H   -0.069560
    71  H   -0.028724
    72  H   -0.035741
    73  H   -0.047505
    74  H    0.014702
    75  H    0.052191
    76  H    0.011406
    77  H    0.047095
    78  H    0.017860
    79  H    0.085173
    80  H   -0.018173
    81  H    0.020766
    82  H    0.017035
    83  H    0.005630
    84  H    0.000525
    85  H    0.017765
    86  H   -0.016790
    87  H    0.012908
    88  H    0.023914
    89  H    0.023150
    90  H    0.021818
    91  H    0.014824
    92  H   -0.002197
    93  H   -0.030264
    94  H    0.062864
    95  H    0.031657
    96  H    0.041964
    97  H    0.048539
    98  H    0.024187
    99  H   -0.094682
   100  H   -0.022447
   101  H    0.042563
   102  H    0.035806
   103  H    0.041104
   104  H   -0.064344
   105  H    0.012598
   106  H    0.003490
   107  H    0.004135
   108  H    0.016711
   109  H    0.024883
   110  H    0.011147
   111  H    0.030816
   112  H    0.032611
   113  H    0.007063
   114  H   -0.056896
   115  H   -0.014910
   116  H    0.031032
   117  H   -0.002266
   118  H    0.013432
   119  H   -0.004530
   120  H    0.003337
   121  H   -0.051953
   122  H    0.020670
   123  H    0.009787
   124  H   -0.035201
   125  H   -0.013908
   126  H    0.003775
   127  H   -0.026661
   128  H   -0.051040
   129  H   -0.035871
   130  H    0.011063
   131  H    0.029547
   132  H    0.000853
   133  H    0.025509
   134  H    0.026977
   135  H    0.019135
   136  H    0.041012
   137  H    0.143233
   138  H    0.128158
 Sum of Mulliken charges =  -0.00000

 Dipole moment (field-independent basis, Debye):
    X=              1.8521    Y=              3.5383    Z=              1.4756  Tot=              4.2576
 Quadrupole moment (field-independent basis, Debye-Ang):
   XX=           -353.3167   YY=           -382.4029   ZZ=           -397.7241
   XY=            -14.8553   XZ=             10.7399   YZ=              1.3480

 Normal termination of Gaussian 16 at Sun Aug 18 23:06:03 2019.
