 Gaussian 16, Revision A.03,
 Gaussian 16:  ES64L-G16RevA.03 25-Dec-2016

 --------------------------
 # td=(NStates=1) B3LYP/SVP
 --------------------------

 --
 TD
 --
 Symbolic Z-matrix:
 Charge =  0 Multiplicity = 1

                         Standard orientation:
 ---------------------------------------------------------------------
 Center     Atomic      Atomic             Coordinates (Angstroms)
 Number     Number       Type             X           Y           Z
 ---------------------------------------------------------------------
      1          6           0       -5.118512   -1.968027    0.617858
      2          6           0       -4.715824    2.734360    1.655805
      3          6           0       -9.136455    3.469122   -0.200660
      4          6           0       -9.886385   -1.374186   -0.869673
      5          7           0       -5.124788    0.408636    0.967589
      6          6           0       -4.493077   -0.835322    0.862421
      7          6           0       -3.086748   -0.658975    1.375000
      8          6           0       -3.027908    0.716025    1.967219
      9          6           0       -4.373151    1.373928    1.431983
     10          6           0       -2.882102    0.755287    3.552567
     11          6           0       -2.133726   -0.817706    0.183163
     12          6           0       -0.629862   -0.871535    0.484182
     13          6           0        0.301179   -1.271512   -0.575360
     14          8           0       -0.026791   -2.000063   -1.539971
     15          8           0        1.598562   -0.830227   -0.329829
     16          7           0       -6.930099    2.817911    0.495088
     17          6           0       -5.829138    3.376322    1.026041
     18          6           0       -6.027525    4.773188    1.114121
     19          6           0       -7.362157    5.026930    0.676353
     20          6           0       -7.921124    3.751054    0.349935
     21          6           0       -4.894321    5.718431    1.566739
     22          6           0       -7.911419    6.366583    0.403311
     23          6           0       -8.827662    6.869300   -0.453136
     24          7           0       -9.107834    0.947859   -0.471830
     25          6           0       -9.748532    2.244778   -0.555675
     26          6           0      -11.163971    2.068816   -1.075896
     27          6           0      -11.299580    0.749681   -1.340188
     28          6           0      -10.067739    0.072953   -0.923267
     29          6           0      -12.047646    3.174745   -1.263975
     30          6           0      -12.509562    0.105128   -1.871870
     31          6           0      -12.407681   -0.282684   -3.320160
     32          7           0       -7.587433   -1.205862   -0.147550
     33          6           0       -8.627579   -1.947068   -0.561293
     34          6           0       -8.270890   -3.352228   -0.560727
     35          6           0       -6.890036   -3.457931   -0.271985
     36          6           0       -6.458741   -2.067666    0.120177
     37          6           0       -9.103273   -4.526003   -1.043773
     38          6           0       -5.729649   -4.248327   -0.073262
     39          8           0       -5.686962   -5.470104   -0.160260
     40          6           0       -4.541723   -3.314737    0.418790
     41          6           0       -3.978956   -4.020220    1.660352
     42          8           0       -4.303851   -3.671992    2.785801
     43          8           0       -3.181550   -4.965814    1.429703
     44          6           0       -2.644025   -5.663134    2.565276
     45          6           0        2.516536   -1.166408   -1.231247
     46          6           0        3.768266   -0.797815   -0.682532
     47          6           0        4.823514   -0.167688   -1.262765
     48          6           0        4.742158    0.548433   -2.600715
     49          6           0        6.154302    0.133357   -0.463860
     50          6           0        7.346436   -0.551872   -1.039382
     51          6           0        8.742449   -0.176577   -0.257431
     52          6           0        9.995704   -0.689666   -0.723896
     53          6           0        9.983582   -2.249177   -0.486684
     54          6           0       11.175082   -0.046167   -0.002209
     55          6           0       12.521780   -0.459047   -0.653839
     56          6           0       13.694816    0.250930    0.189573
     57          6           0       15.136243    0.009486   -0.445647
     58          6           0       15.425667   -1.507505   -0.594547
     59          6           0       16.195374    0.715444    0.480656
     60          6           0       17.656624    0.671301   -0.168176
     61          6           0       18.555258    1.569331    0.760063
     62          6           0       19.938961    1.547374    0.187323
     63          6           0       20.211722    2.145382   -1.267923
     64          6           0       20.990859    2.314087    1.043032
     65          1           0       -3.989869    3.396766    2.187233
     66          1           0       -9.619026    4.485954   -0.068759
     67          1           0      -10.667071   -2.044885   -1.220172
     68          1           0       -3.061908   -1.367504    2.204020
     69          1           0       -2.190313    1.527754    1.577189
     70          1           0       -1.854585    0.507066    3.793422
     71          1           0       -2.840748    1.714393    3.897050
     72          1           0       -3.762377    0.040644    3.988063
     73          1           0       -2.355065   -1.775118   -0.415108
     74          1           0       -2.210832   -0.004882   -0.761599
     75          1           0       -0.370125    0.011045    1.008277
     76          1           0       -0.351070   -1.746552    1.120601
     77          1           0       -3.900892    5.475695    1.008219
     78          1           0       -5.176619    6.855529    1.382865
     79          1           0       -4.566844    5.624426    2.667082
     80          1           0       -7.383293    7.237180    1.051231
     81          1           0       -9.183792    6.168570   -1.238191
     82          1           0       -8.797940    8.095135   -0.509068
     83          1           0      -12.374926    3.556831   -0.327675
     84          1           0      -11.606656    3.991863   -1.914250
     85          1           0      -12.996261    2.966246   -1.639759
     86          1           0      -12.662196   -0.839931   -1.344477
     87          1           0      -13.400613    0.731486   -1.610670
     88          1           0      -12.493580    0.668869   -4.090940
     89          1           0      -11.411476   -0.730323   -3.356425
     90          1           0      -13.085549   -0.923776   -3.543273
     91          1           0       -9.854444   -4.724324   -0.230154
     92          1           0       -9.734696   -4.138306   -1.964946
     93          1           0       -8.552576   -5.504412   -1.172189
     94          1           0       -3.626380   -3.248416   -0.298476
     95          1           0       -2.214103   -6.509015    2.146619
     96          1           0       -1.852890   -5.148514    3.107835
     97          1           0       -3.362086   -6.158565    3.235458
     98          1           0        2.557958   -2.188835   -1.453287
     99          1           0        2.490669   -0.563867   -2.146640
    100          1           0        3.792925   -1.125376    0.383448
    101          1           0        4.851571    1.673755   -2.512386
    102          1           0        5.601697    0.319366   -3.221386
    103          1           0        3.930580    0.244922   -3.246198
    104          1           0        6.213929    1.297333   -0.421399
    105          1           0        6.108080    0.032747    0.667264
    106          1           0        7.153211   -1.678832   -1.093293
    107          1           0        7.315964   -0.451459   -2.126707
    108          1           0        8.701819    0.906349   -0.097042
    109          1           0        8.680858   -0.563847    0.633134
    110          1           0       10.010545   -0.553906   -1.735430
    111          1           0        9.028608   -2.976460   -0.926336
    112          1           0       10.807590   -2.650442   -1.096533
    113          1           0       10.077805   -2.311482    0.714988
    114          1           0       11.184592    0.880326   -0.014818
    115          1           0       10.989669   -0.450677    1.060026
    116          1           0       12.635099   -1.450751   -0.573554
    117          1           0       12.531796   -0.249767   -1.706371
    118          1           0       13.479979    1.319382    0.089148
    119          1           0       13.807540   -0.267184    1.269151
    120          1           0       15.327518    0.626932   -1.549561
    121          1           0       14.661779   -2.073444   -1.071510
    122          1           0       16.321091   -1.909948   -1.157105
    123          1           0       15.487481   -2.139131    0.162773
    124          1           0       16.082475    1.877398    0.421579
    125          1           0       16.234066    0.473210    1.475990
    126          1           0       18.030235   -0.266696   -0.256111
    127          1           0       17.447670    1.267215   -1.151330
    128          1           0       18.233425    2.543194    0.733689
    129          1           0       18.644913    1.223914    1.838143
    130          1           0       20.357312    0.556023    0.012390
    131          1           0       20.088631    3.505741   -1.192028
    132          1           0       21.116317    1.995062   -1.651732
    133          1           0       19.514091    1.877124   -2.261722
    134          1           0       21.249012    2.064030    2.033372
    135          1           0       22.047813    2.343062    0.494948
    136          1           0       20.760953    3.303665    1.069560
    137          1           0       -6.890818    1.733435    0.516170
    138          1           0       -7.878848   -0.232653   -0.070080
 ---------------------------------------------------------------------

 SCF Done:  E(RB3LYP) =  -2733.02585320     A.U. after   17 cycles

 Excitation energies and oscillator strengths:

 Excited State   1:      Singlet-A      1.9935 eV  621.95 nm  f=0.1951  <S**2>=0.000
     235 -> 237       -0.17851
     235 -> 238       -0.25470
     236 -> 237        0.61592
     236 -> 238       -0.14525
 This state for optimization and/or second-order correction.
 Total Energy, E(TD-HF/TD-DFT) =  -2732.95259475
 Copying the excited state density for this state as the 1-particle RhoCI density.

 The electronic state is 1-A.
 Alpha  occ. eigenvalues --  -19.19284 -19.18277 -19.12967 -19.11727 -19.10733
 Alpha  occ. eigenvalues --  -14.36853 -14.36605 -14.31934 -14.31297 -10.32455
 Alpha  occ. eigenvalues --  -10.30977 -10.27763 -10.25001 -10.24585 -10.23533
 Alpha  occ. eigenvalues --  -10.23466 -10.23304 -10.23018 -10.22908 -10.22599
 Alpha  occ. eigenvalues --  -10.22550 -10.22338 -10.22118 -10.22101 -10.21990
 Alpha  occ. eigenvalues --  -10.21905 -10.21877 -10.21386 -10.21309 -10.21227
 Alpha  occ. eigenvalues --  -10.21162 -10.20981 -10.20914 -10.20801 -10.20612
 Alpha  occ. eigenvalues --  -10.20345 -10.20335 -10.20313 -10.20189 -10.20105
 Alpha  occ. eigenvalues --  -10.20068 -10.20036 -10.19773 -10.19566 -10.19504
 Alpha  occ. eigenvalues --  -10.19441 -10.19400 -10.18978 -10.18853 -10.18829
 Alpha  occ. eigenvalues --  -10.18650 -10.18178 -10.18125 -10.17994 -10.17857
 Alpha  occ. eigenvalues --  -10.17855 -10.17845 -10.17731 -10.17273 -10.17137
 Alpha  occ. eigenvalues --  -10.16991 -10.16944 -10.16684 -10.16517  -1.12837
 Alpha  occ. eigenvalues --   -1.10517  -1.01900  -1.00440  -0.99653  -0.98917
 Alpha  occ. eigenvalues --   -0.97313  -0.94386  -0.91819  -0.85655  -0.82944
 Alpha  occ. eigenvalues --   -0.82289  -0.81724  -0.81072  -0.80878  -0.80790
 Alpha  occ. eigenvalues --   -0.80454  -0.79830  -0.78946  -0.78528  -0.78007
 Alpha  occ. eigenvalues --   -0.77058  -0.76383  -0.76183  -0.75380  -0.74865
 Alpha  occ. eigenvalues --   -0.74443  -0.73441  -0.72995  -0.71737  -0.70624
 Alpha  occ. eigenvalues --   -0.70404  -0.69873  -0.69270  -0.68157  -0.67649
 Alpha  occ. eigenvalues --   -0.66926  -0.66206  -0.66099  -0.65876  -0.65771
 Alpha  occ. eigenvalues --   -0.64390  -0.63141  -0.63018  -0.61921  -0.61854
 Alpha  occ. eigenvalues --   -0.61531  -0.59199  -0.58939  -0.58305  -0.58095
 Alpha  occ. eigenvalues --   -0.57754  -0.57266  -0.56757  -0.56363  -0.56178
 Alpha  occ. eigenvalues --   -0.55190  -0.54741  -0.54616  -0.53594  -0.53182
 Alpha  occ. eigenvalues --   -0.52515  -0.52274  -0.51728  -0.51394  -0.51173
 Alpha  occ. eigenvalues --   -0.50569  -0.49985  -0.49740  -0.49588  -0.48711
 Alpha  occ. eigenvalues --   -0.48246  -0.48136  -0.47526  -0.47493  -0.47197
 Alpha  occ. eigenvalues --   -0.46986  -0.46819  -0.46338  -0.46216  -0.45961
 Alpha  occ. eigenvalues --   -0.45235  -0.45128  -0.45001  -0.44330  -0.44293
 Alpha  occ. eigenvalues --   -0.44187  -0.43937  -0.43697  -0.43636  -0.43530
 Alpha  occ. eigenvalues --   -0.43018  -0.42868  -0.42782  -0.42710  -0.42404
 Alpha  occ. eigenvalues --   -0.41998  -0.41703  -0.41595  -0.41383  -0.40844
 Alpha  occ. eigenvalues --   -0.40822  -0.40782  -0.40609  -0.40160  -0.40063
 Alpha  occ. eigenvalues --   -0.39974  -0.39852  -0.39593  -0.39465  -0.39414
 Alpha  occ. eigenvalues --   -0.39342  -0.39327  -0.39071  -0.38870  -0.38382
 Alpha  occ. eigenvalues --   -0.38297  -0.38046  -0.37883  -0.37725  -0.37693
 Alpha  occ. eigenvalues --   -0.37531  -0.37280  -0.37127  -0.36889  -0.36846
 Alpha  occ. eigenvalues --   -0.36754  -0.36526  -0.36320  -0.36197  -0.35684
 Alpha  occ. eigenvalues --   -0.35337  -0.35145  -0.35097  -0.34742  -0.34673
 Alpha  occ. eigenvalues --   -0.34335  -0.34312  -0.34277  -0.34149  -0.33940
 Alpha  occ. eigenvalues --   -0.33613  -0.33549  -0.33212  -0.32873  -0.32640
 Alpha  occ. eigenvalues --   -0.32409  -0.32353  -0.31849  -0.31607  -0.31375
 Alpha  occ. eigenvalues --   -0.31091  -0.30970  -0.30893  -0.30691  -0.30646
 Alpha  occ. eigenvalues --   -0.30236  -0.29365  -0.28307  -0.28256  -0.27672
 Alpha  occ. eigenvalues --   -0.27479  -0.26821  -0.26502  -0.25830  -0.25425
 Alpha  occ. eigenvalues --   -0.24922  -0.24084  -0.23979  -0.23146  -0.20220
 Alpha  occ. eigenvalues --   -0.19032
 Alpha virt. eigenvalues --   -0.10919  -0.07957  -0.05174  -0.02058  -0.01134
 Alpha virt. eigenvalues --    0.00182   0.00578   0.01292   0.02337   0.03148
 Alpha virt. eigenvalues --    0.03663   0.03945   0.04202   0.04502   0.04943

 Mulliken charges:
               1
     1  C    0.119176
     2  C   -0.060237
     3  C   -0.080749
     4  C   -0.038094
     5  N   -0.182218
     6  C   -0.124211
     7  C    0.106766
     8  C   -0.166770
     9  C    0.016226
    10  C    0.094589
    11  C   -0.041929
    12  C    0.110027
    13  C    0.175604
    14  O   -0.264835
    15  O   -0.299325
    16  N   -0.072182
    17  C    0.051552
    18  C   -0.108884
    19  C    0.063665
    20  C    0.010879
    21  C    0.005936
    22  C   -0.096804
    23  C   -0.073643
    24  N   -0.310337
    25  C    0.108004
    26  C   -0.122706
    27  C   -0.091279
    28  C    0.069164
    29  C    0.164613
    30  C    0.050660
    31  C    0.080520
    32  N   -0.040998
    33  C    0.028362
    34  C   -0.154827
    35  C    0.072956
    36  C    0.068576
    37  C    0.056372
    38  C    0.047563
    39  O   -0.190371
    40  C   -0.087482
    41  C    0.142844
    42  O   -0.264757
    43  O   -0.212727
    44  C    0.218910
    45  C    0.380904
    46  C   -0.162080
    47  C   -0.126313
    48  C    0.087862
    49  C    0.022989
    50  C    0.028321
    51  C    0.142101
    52  C   -0.008302
    53  C   -0.079544
    54  C    0.119523
    55  C    0.090784
    56  C    0.009999
    57  C   -0.080966
    58  C    0.089619
    59  C    0.030340
    60  C    0.017386
    61  C    0.109085
    62  C   -0.074361
    63  C   -0.060926
    64  C    0.061332
    65  H   -0.010349
    66  H    0.005859
    67  H   -0.021906
    68  H    0.017301
    69  H    0.015639
    70  H   -0.000020
    71  H   -0.025947
    72  H    0.065189
    73  H    0.026047
    74  H    0.041663
    75  H    0.007654
    76  H    0.032811
    77  H    0.042959
    78  H    0.037561
    79  H    0.045287
    80  H    0.028057
    81  H    0.037083
    82  H    0.061078
    83  H    0.002406
    84  H    0.032083
    85  H   -0.031374
    86  H   -0.009724
    87  H   -0.000376
    88  H    0.024788
    89  H    0.006815
    90  H   -0.037546
    91  H    0.029582
    92  H    0.043237
    93  H    0.056196
    94  H    0.081483
    95  H    0.001789
    96  H    0.033880
    97  H    0.039410
    98  H   -0.000005
    99  H   -0.020320
   100  H   -0.016897
   101  H    0.028810
   102  H   -0.006847
   103  H    0.008671
   104  H    0.000890
   105  H   -0.006605
   106  H   -0.009058
   107  H   -0.022001
   108  H   -0.021664
   109  H   -0.075664
   110  H   -0.052243
   111  H    0.038156
   112  H    0.019973
   113  H    0.029301
   114  H   -0.089469
   115  H   -0.007107
   116  H   -0.039915
   117  H   -0.010877
   118  H    0.005608
   119  H    0.028177
   120  H    0.010478
   121  H   -0.026306
   122  H   -0.002149
   123  H   -0.049371
   124  H   -0.005364
   125  H   -0.028467
   126  H   -0.019021
   127  H    0.022068
   128  H   -0.031596
   129  H    0.007871
   130  H   -0.003960
   131  H   -0.001853
   132  H   -0.009967
   133  H    0.025237
   134  H   -0.007938
   135  H   -0.000270
   136  H   -0.029197
   137  H    0.187981
   138  H    0.126943
 Sum of Mulliken charges =  -0.00000

 Dipole moment (field-independent basis, Debye):
    X=              1.8080    Y=              3.4160    Z=              1.0026  Tot=              3.9929
 Quadrupole moment (field-independent basis, Debye-Ang):
   XX=           -356.7943   YY=           -381.7970   ZZ=           -395.3992
   XY=            -28.0195   XZ=             14.9267   YZ=             -3.6112

 Normal termination of Gaussian 16 at Sat Aug 24 14:00:18 2019.
