 Gaussian 16, Revision A.03,
 Gaussian 16:  ES64L-G16RevA.03 25-Dec-2016

 --------------------------
 # td=(NStates=1) B3LYP/SVP
 --------------------------

 --
 TD
 --
 Symbolic Z-matrix:
 Charge =  0 Multiplicity = 1

                         Standard orientation:
 ---------------------------------------------------------------------
 Center     Atomic      Atomic             Coordinates (Angstroms)
 Number     Number       Type             X           Y           Z
 ---------------------------------------------------------------------
      1          6           0       -5.084567   -1.884318    0.389158
      2          6           0       -4.703354    2.753937    1.324016
      3          6           0       -9.244846    3.488435   -0.421873
      4          6           0       -9.819095   -1.417856   -0.972491
      5          7           0       -5.156931    0.435508    0.713726
      6          6           0       -4.519612   -0.680525    0.847155
      7          6           0       -3.062549   -0.558316    1.241065
      8          6           0       -3.110225    0.876443    1.870464
      9          6           0       -4.360150    1.428543    1.267818
     10          6           0       -3.140326    0.845392    3.413758
     11          6           0       -2.069258   -0.727613    0.158411
     12          6           0       -0.664147   -0.819173    0.613969
     13          6           0        0.347379   -1.014052   -0.562811
     14          8           0        0.049674   -1.383539   -1.715226
     15          8           0        1.566949   -0.683156   -0.304125
     16          7           0       -6.926553    2.744212    0.414912
     17          6           0       -5.895377    3.420098    1.001936
     18          6           0       -6.089108    4.789919    1.047129
     19          6           0       -7.429621    5.034324    0.494749
     20          6           0       -7.885141    3.681930    0.126215
     21          6           0       -5.247531    5.957384    1.704816
     22          6           0       -7.956411    6.284705    0.296124
     23          6           0       -9.086970    6.668134   -0.412098
     24          7           0       -9.159455    0.852981   -0.417676
     25          6           0       -9.781156    2.165192   -0.571048
     26          6           0      -11.198182    1.879401   -0.976753
     27          6           0      -11.432711    0.588167   -1.190980
     28          6           0      -10.127039   -0.052110   -0.844042
     29          6           0      -12.134845    2.986402   -1.164298
     30          6           0      -12.636214   -0.144513   -1.507792
     31          6           0      -12.801843   -0.522291   -3.032624
     32          7           0       -7.549681   -1.256047   -0.097846
     33          6           0       -8.583930   -1.979523   -0.605147
     34          6           0       -8.118445   -3.401167   -0.527481
     35          6           0       -6.792719   -3.475189   -0.240501
     36          6           0       -6.461104   -2.091822    0.080501
     37          6           0       -9.003015   -4.526702   -0.948899
     38          6           0       -5.699833   -4.302378   -0.030518
     39          8           0       -5.531081   -5.452383   -0.309048
     40          6           0       -4.479445   -3.307580    0.304704
     41          6           0       -3.871391   -3.847637    1.603778
     42          8           0       -4.234281   -3.466776    2.711841
     43          8           0       -3.104549   -4.955801    1.343394
     44          6           0       -2.756978   -5.737029    2.466640
     45          6           0        2.629650   -1.051481   -1.159662
     46          6           0        4.006601   -0.825694   -0.624213
     47          6           0        5.020569   -0.130008   -1.106538
     48          6           0        5.057275    0.714992   -2.388158
     49          6           0        6.255916    0.084311   -0.329763
     50          6           0        7.580976   -0.508829   -1.031887
     51          6           0        8.763069   -0.130785   -0.200870
     52          6           0       10.087314   -0.782772   -0.604709
     53          6           0        9.988202   -2.248516   -0.864192
     54          6           0       11.203350   -0.210769    0.261296
     55          6           0       12.550193   -0.631642   -0.374314
     56          6           0       13.783779   -0.018271    0.403596
     57          6           0       15.192754   -0.239906   -0.170087
     58          6           0       15.489526   -1.678587   -0.021444
     59          6           0       16.212802    0.572375    0.517961
     60          6           0       17.636359    0.730622   -0.194240
     61          6           0       18.524117    1.686604    0.558098
     62          6           0       20.003575    1.702740   -0.133820
     63          6           0       20.029253    2.346480   -1.429071
     64          6           0       21.123407    2.338543    0.780918
     65          1           0       -3.749772    3.475016    1.509626
     66          1           0       -9.805954    4.299330   -0.259636
     67          1           0      -10.647586   -2.181574   -1.112565
     68          1           0       -2.716205   -1.346151    1.954526
     69          1           0       -2.143404    1.322104    1.319618
     70          1           0       -2.389596    0.503606    4.063529
     71          1           0       -3.442852    1.917921    3.551131
     72          1           0       -3.973187    0.229526    3.834506
     73          1           0       -2.084327   -1.662017   -0.292264
     74          1           0       -2.303657   -0.061467   -0.620797
     75          1           0       -0.186206    0.153945    0.994209
     76          1           0       -0.709757   -1.596321    1.447128
     77          1           0       -4.074136    5.932705    1.065303
     78          1           0       -5.525900    7.075751    1.498023
     79          1           0       -5.199134    5.743122    2.788910
     80          1           0       -7.505727    7.250032    1.001055
     81          1           0       -9.680265    6.021300   -1.196464
     82          1           0       -9.406200    7.842128   -0.231330
     83          1           0      -12.291371    3.512745   -0.172244
     84          1           0      -11.667018    3.860272   -1.936280
     85          1           0      -13.017289    2.553102   -1.569161
     86          1           0      -12.676157   -1.000610   -0.808940
     87          1           0      -13.488719    0.355992   -0.944785
     88          1           0      -12.510909    0.481366   -3.513829
     89          1           0      -12.190567   -1.555933   -3.339187
     90          1           0      -13.896126   -0.847622   -3.084269
     91          1           0       -9.878591   -4.582914   -0.139859
     92          1           0       -9.326542   -4.603908   -2.051751
     93          1           0       -8.555517   -5.520686   -0.771529
     94          1           0       -3.768261   -3.517075   -0.423883
     95          1           0       -2.019671   -6.215407    1.888394
     96          1           0       -2.267817   -5.042105    3.433974
     97          1           0       -3.724899   -6.336691    2.995978
     98          1           0        2.306301   -2.330223   -1.533777
     99          1           0        2.433417   -0.530724   -2.022086
    100          1           0        4.125801   -1.278453    0.499920
    101          1           0        5.181232    1.876041   -2.193545
    102          1           0        5.776330    0.430596   -3.142235
    103          1           0        3.988115    0.547776   -2.683486
    104          1           0        6.506315    1.028165   -0.183106
    105          1           0        6.239058   -0.282378    0.636112
    106          1           0        7.423963   -1.613476   -1.144041
    107          1           0        7.835963   -0.003543   -2.095446
    108          1           0        8.732858    0.981366   -0.270130
    109          1           0        8.746729   -0.253252    0.864740
    110          1           0       10.281508   -0.346486   -1.653301
    111          1           0        9.148094   -2.531952   -1.433203
    112          1           0       10.971065   -2.648383   -1.360314
    113          1           0        9.834630   -2.658685    0.108700
    114          1           0       10.955711    0.981391    0.478548
    115          1           0       11.305996   -0.677478    1.239518
    116          1           0       12.633035   -1.684128   -0.333339
    117          1           0       12.750223   -0.259863   -1.540803
    118          1           0       13.447665    1.036087    0.687754
    119          1           0       13.776788   -0.420526    1.383624
    120          1           0       15.134630    0.037944   -1.374056
    121          1           0       14.786634   -2.270155   -0.662528
    122          1           0       16.434500   -2.004285   -0.690340
    123          1           0       15.626878   -2.110545    1.111770
    124          1           0       15.766735    1.679696    0.747862
    125          1           0       16.525474    0.307156    1.626183
    126          1           0       17.888641   -0.436546   -0.197332
    127          1           0       17.376932    0.965219   -1.230354
    128          1           0       18.183141    2.626073    0.489524
    129          1           0       18.593423    1.476992    1.565632
    130          1           0       20.349142    0.678312   -0.522337
    131          1           0       19.636669    3.463396   -1.430844
    132          1           0       21.053847    2.391135   -2.025378
    133          1           0       19.252311    1.987228   -2.255944
    134          1           0       21.032366    1.718989    1.819629
    135          1           0       22.187411    2.279531    0.255382
    136          1           0       20.980048    3.569746    0.779495
    137          1           0       -6.769420    1.700574    0.139103
    138          1           0       -7.475762   -0.253276   -0.230926
 ---------------------------------------------------------------------

 SCF Done:  E(RB3LYP) =  -2732.98230680     A.U. after   17 cycles

 Excitation energies and oscillator strengths:

 Excited State   1:      Singlet-A      1.8863 eV  657.28 nm  f=0.2211  <S**2>=0.000
     235 -> 237       -0.10883
     235 -> 238       -0.26849
     236 -> 237        0.64115
 This state for optimization and/or second-order correction.
 Total Energy, E(TD-HF/TD-DFT) =  -2732.91298589
 Copying the excited state density for this state as the 1-particle RhoCI density.

 The electronic state is 1-A.
 Alpha  occ. eigenvalues --  -19.18730 -19.18430 -19.12897 -19.12803 -19.11560
 Alpha  occ. eigenvalues --  -14.37638 -14.37155 -14.33072 -14.30599 -10.31908
 Alpha  occ. eigenvalues --  -10.31667 -10.28048 -10.26656 -10.26403 -10.24495
 Alpha  occ. eigenvalues --  -10.24175 -10.24036 -10.23060 -10.23032 -10.22938
 Alpha  occ. eigenvalues --  -10.22488 -10.22415 -10.22268 -10.21945 -10.21735
 Alpha  occ. eigenvalues --  -10.21583 -10.21325 -10.21324 -10.21109 -10.21053
 Alpha  occ. eigenvalues --  -10.20982 -10.20789 -10.20720 -10.20697 -10.20681
 Alpha  occ. eigenvalues --  -10.20511 -10.20368 -10.20248 -10.20226 -10.20171
 Alpha  occ. eigenvalues --  -10.20110 -10.20071 -10.20055 -10.19836 -10.19724
 Alpha  occ. eigenvalues --  -10.19657 -10.19609 -10.19587 -10.19479 -10.19398
 Alpha  occ. eigenvalues --  -10.19324 -10.19320 -10.19198 -10.18970 -10.18763
 Alpha  occ. eigenvalues --  -10.18717 -10.18189 -10.17907 -10.17877 -10.17875
 Alpha  occ. eigenvalues --  -10.17857 -10.17847 -10.17713 -10.17485  -1.11893
 Alpha  occ. eigenvalues --   -1.09202  -1.04456  -1.00646  -0.98855  -0.98715
 Alpha  occ. eigenvalues --   -0.98157  -0.96122  -0.90926  -0.85123  -0.83557
 Alpha  occ. eigenvalues --   -0.82864  -0.82347  -0.81562  -0.81536  -0.81068
 Alpha  occ. eigenvalues --   -0.80056  -0.79903  -0.79724  -0.78835  -0.78083
 Alpha  occ. eigenvalues --   -0.77106  -0.75964  -0.75470  -0.74921  -0.73967
 Alpha  occ. eigenvalues --   -0.73733  -0.73261  -0.72509  -0.72217  -0.70314
 Alpha  occ. eigenvalues --   -0.69164  -0.68901  -0.68638  -0.67989  -0.67554
 Alpha  occ. eigenvalues --   -0.67131  -0.66700  -0.66477  -0.66353  -0.65098
 Alpha  occ. eigenvalues --   -0.63630  -0.63188  -0.62918  -0.62015  -0.61671
 Alpha  occ. eigenvalues --   -0.61380  -0.59002  -0.58509  -0.57657  -0.56989
 Alpha  occ. eigenvalues --   -0.56732  -0.56465  -0.56002  -0.55351  -0.54825
 Alpha  occ. eigenvalues --   -0.54812  -0.54174  -0.54097  -0.53636  -0.53192
 Alpha  occ. eigenvalues --   -0.52637  -0.52063  -0.51394  -0.51013  -0.50508
 Alpha  occ. eigenvalues --   -0.50376  -0.49737  -0.49252  -0.48722  -0.48606
 Alpha  occ. eigenvalues --   -0.47951  -0.47507  -0.47301  -0.47054  -0.46851
 Alpha  occ. eigenvalues --   -0.46799  -0.46521  -0.46133  -0.45795  -0.45683
 Alpha  occ. eigenvalues --   -0.45412  -0.45307  -0.45041  -0.44892  -0.44867
 Alpha  occ. eigenvalues --   -0.44540  -0.44452  -0.44013  -0.43753  -0.43494
 Alpha  occ. eigenvalues --   -0.43317  -0.43199  -0.42903  -0.42680  -0.42489
 Alpha  occ. eigenvalues --   -0.42320  -0.42127  -0.41889  -0.41630  -0.41607
 Alpha  occ. eigenvalues --   -0.41285  -0.41063  -0.40877  -0.40628  -0.40207
 Alpha  occ. eigenvalues --   -0.40034  -0.39761  -0.39593  -0.39525  -0.39219
 Alpha  occ. eigenvalues --   -0.39066  -0.38712  -0.38550  -0.38252  -0.38194
 Alpha  occ. eigenvalues --   -0.37968  -0.37886  -0.37728  -0.37588  -0.37334
 Alpha  occ. eigenvalues --   -0.37166  -0.36996  -0.36942  -0.36682  -0.36590
 Alpha  occ. eigenvalues --   -0.36231  -0.35898  -0.35648  -0.35519  -0.35507
 Alpha  occ. eigenvalues --   -0.35280  -0.35020  -0.34940  -0.34826  -0.34713
 Alpha  occ. eigenvalues --   -0.34248  -0.33942  -0.33885  -0.33733  -0.33712
 Alpha  occ. eigenvalues --   -0.33257  -0.33084  -0.33015  -0.32507  -0.32304
 Alpha  occ. eigenvalues --   -0.32252  -0.31970  -0.31655  -0.31426  -0.31079
 Alpha  occ. eigenvalues --   -0.30813  -0.30614  -0.30401  -0.30206  -0.30051
 Alpha  occ. eigenvalues --   -0.29631  -0.29236  -0.28797  -0.28470  -0.28050
 Alpha  occ. eigenvalues --   -0.27889  -0.27308  -0.27046  -0.26433  -0.26071
 Alpha  occ. eigenvalues --   -0.25563  -0.25495  -0.23169  -0.22715  -0.19796
 Alpha  occ. eigenvalues --   -0.18822
 Alpha virt. eigenvalues --   -0.11038  -0.08005  -0.05147  -0.02618  -0.01351
 Alpha virt. eigenvalues --   -0.01049  -0.00443  -0.00061   0.01781   0.02667
 Alpha virt. eigenvalues --    0.03590   0.03624   0.04095   0.04181   0.04315

 Mulliken charges:
               1
     1  C    0.046116
     2  C   -0.104617
     3  C   -0.030294
     4  C   -0.089356
     5  N   -0.161802
     6  C   -0.036923
     7  C   -0.055985
     8  C   -0.031215
     9  C   -0.027058
    10  C    0.103793
    11  C    0.110275
    12  C   -0.012137
    13  C    0.172447
    14  O   -0.277469
    15  O   -0.245696
    16  N   -0.077206
    17  C    0.083631
    18  C   -0.109093
    19  C    0.072173
    20  C    0.055224
    21  C   -0.016958
    22  C   -0.125944
    23  C   -0.126907
    24  N   -0.320585
    25  C    0.122349
    26  C   -0.137813
    27  C   -0.067109
    28  C    0.072420
    29  C    0.056893
    30  C    0.011643
    31  C   -0.021058
    32  N   -0.014893
    33  C    0.051954
    34  C   -0.136798
    35  C    0.084587
    36  C    0.035279
    37  C    0.029976
    38  C    0.030067
    39  O   -0.141815
    40  C   -0.023958
    41  C    0.190819
    42  O   -0.236848
    43  O   -0.292498
    44  C    0.089687
    45  C    0.211041
    46  C   -0.097984
    47  C   -0.097672
    48  C    0.049045
    49  C    0.201193
    50  C   -0.064139
    51  C    0.014135
    52  C   -0.068844
    53  C    0.066776
    54  C    0.014728
    55  C   -0.018072
    56  C    0.039510
    57  C   -0.025083
    58  C   -0.027530
    59  C   -0.065554
    60  C   -0.010834
    61  C    0.190329
    62  C   -0.077355
    63  C   -0.081743
    64  C   -0.054887
    65  H    0.023127
    66  H   -0.039339
    67  H    0.006338
    68  H   -0.011345
    69  H    0.019476
    70  H    0.008677
    71  H    0.006540
    72  H    0.019541
    73  H   -0.010924
    74  H   -0.014948
    75  H    0.033902
    76  H    0.044393
    77  H    0.042053
    78  H    0.053222
    79  H    0.056290
    80  H    0.040956
    81  H    0.060948
    82  H    0.046170
    83  H    0.035328
    84  H    0.040305
    85  H    0.002587
    86  H   -0.007881
    87  H    0.005812
    88  H    0.051736
    89  H    0.050237
    90  H    0.030118
    91  H    0.038505
    92  H    0.058927
    93  H    0.021587
    94  H    0.023624
    95  H    0.043763
    96  H    0.051313
    97  H    0.071507
    98  H    0.046028
    99  H   -0.014915
   100  H    0.020892
   101  H    0.040387
   102  H    0.038264
   103  H    0.005401
   104  H   -0.058082
   105  H   -0.043989
   106  H    0.019190
   107  H    0.021583
   108  H   -0.011212
   109  H   -0.025906
   110  H   -0.018691
   111  H    0.000766
   112  H    0.030523
   113  H   -0.014925
   114  H    0.022856
   115  H   -0.010089
   116  H    0.000645
   117  H    0.010429
   118  H   -0.010874
   119  H   -0.037810
   120  H    0.013323
   121  H    0.005597
   122  H    0.012766
   123  H    0.042394
   124  H   -0.007658
   125  H    0.001570
   126  H    0.012128
   127  H   -0.000855
   128  H   -0.037958
   129  H   -0.032788
   130  H    0.011237
   131  H   -0.005001
   132  H    0.026991
   133  H    0.015508
   134  H    0.043693
   135  H    0.027407
   136  H    0.028592
   137  H    0.194952
   138  H    0.140733
 Sum of Mulliken charges =  -0.00000

 Dipole moment (field-independent basis, Debye):
    X=              1.9395    Y=              2.2863    Z=              1.2601  Tot=              3.2522
 Quadrupole moment (field-independent basis, Debye-Ang):
   XX=           -359.7894   YY=           -388.2668   ZZ=           -399.9004
   XY=            -11.9906   XZ=              5.9787   YZ=             -1.3454

 Normal termination of Gaussian 16 at Fri Aug 23 07:14:22 2019.
