 Gaussian 16, Revision A.03,
 Gaussian 16:  ES64L-G16RevA.03 25-Dec-2016

 --------------------------
 # td=(NStates=1) B3LYP/SVP
 --------------------------

 --
 TD
 --
 Symbolic Z-matrix:
 Charge =  0 Multiplicity = 1

                         Standard orientation:
 ---------------------------------------------------------------------
 Center     Atomic      Atomic             Coordinates (Angstroms)
 Number     Number       Type             X           Y           Z
 ---------------------------------------------------------------------
      1          6           0       -5.155221   -1.987264    0.418996
      2          6           0       -4.705322    2.698282    1.325970
      3          6           0       -9.165126    3.377828   -0.196178
      4          6           0       -9.824543   -1.376573   -0.951911
      5          7           0       -5.193458    0.420513    0.863013
      6          6           0       -4.578568   -0.806224    0.875466
      7          6           0       -3.056384   -0.703885    1.275668
      8          6           0       -3.022412    0.690393    2.007640
      9          6           0       -4.317976    1.328764    1.315776
     10          6           0       -3.107044    0.659577    3.404170
     11          6           0       -2.027990   -0.789605    0.111124
     12          6           0       -0.590829   -0.981210    0.501860
     13          6           0        0.286632   -1.009948   -0.675589
     14          8           0        0.105056   -1.226718   -1.842990
     15          8           0        1.659271   -0.977229   -0.192988
     16          7           0       -6.905511    2.809221    0.501637
     17          6           0       -5.884995    3.419317    1.114469
     18          6           0       -6.082891    4.850867    1.284363
     19          6           0       -7.396173    5.056676    0.602299
     20          6           0       -7.911703    3.730664    0.308857
     21          6           0       -5.035837    5.855542    1.634855
     22          6           0       -7.855388    6.412168    0.314203
     23          6           0       -8.792328    6.711237   -0.676600
     24          7           0       -9.105726    0.881777   -0.541506
     25          6           0       -9.723128    2.122200   -0.584078
     26          6           0      -11.177941    1.982363   -0.897390
     27          6           0      -11.335208    0.670382   -1.225297
     28          6           0      -10.030635    0.020526   -0.901610
     29          6           0      -12.075499    3.203073   -1.017945
     30          6           0      -12.569012   -0.098896   -1.778527
     31          6           0      -12.510291   -0.361567   -3.239052
     32          7           0       -7.439663   -1.282946   -0.418333
     33          6           0       -8.575853   -1.943617   -0.682747
     34          6           0       -8.215172   -3.403757   -0.639655
     35          6           0       -6.953892   -3.428003   -0.298112
     36          6           0       -6.441608   -2.081902   -0.088894
     37          6           0       -9.132809   -4.547000   -1.076920
     38          6           0       -5.796552   -4.428032    0.091961
     39          8           0       -5.747129   -5.579054    0.017471
     40          6           0       -4.591302   -3.441441    0.515240
     41          6           0       -4.102634   -3.872911    1.850462
     42          8           0       -4.448669   -3.389196    2.967387
     43          8           0       -3.194350   -4.867382    1.779953
     44          6           0       -2.815061   -5.665215    2.885392
     45          6           0        2.703956   -1.110289   -1.209561
     46          6           0        3.994115   -0.713406   -0.532275
     47          6           0        4.875788    0.123035   -1.081519
     48          6           0        4.715594    0.653537   -2.422606
     49          6           0        6.176684    0.359815   -0.362262
     50          6           0        7.465001   -0.282390   -1.070830
     51          6           0        8.668037   -0.186422   -0.196890
     52          6           0       10.004956   -0.581367   -0.938769
     53          6           0       10.016369   -2.067155   -1.526354
     54          6           0       11.180131   -0.219182   -0.125669
     55          6           0       12.566719   -0.570460   -0.614599
     56          6           0       13.824255   -0.128143    0.236779
     57          6           0       15.185361   -0.102712   -0.597671
     58          6           0       15.624548   -1.556878   -1.061456
     59          6           0       16.217125    0.557546    0.343310
     60          6           0       17.614765    0.734183   -0.258036
     61          6           0       18.548656    1.492465    0.743686
     62          6           0       20.056705    1.621359    0.458374
     63          6           0       20.342102    2.176481   -0.884001
     64          6           0       20.810788    2.252519    1.527803
     65          1           0       -3.909462    3.326045    1.827849
     66          1           0       -9.900463    4.232242   -0.126415
     67          1           0      -10.590054   -1.876949   -1.464613
     68          1           0       -2.551915   -1.245240    2.073830
     69          1           0       -2.060255    1.312757    1.810178
     70          1           0       -2.243270    0.003834    3.989026
     71          1           0       -3.061075    1.746847    3.862724
     72          1           0       -3.905709    0.076903    3.931003
     73          1           0       -2.555543   -1.765864   -0.675301
     74          1           0       -2.055186    0.080606   -0.563739
     75          1           0       -0.348465   -0.125434    0.883138
     76          1           0       -0.275040   -1.872741    1.234967
     77          1           0       -4.314948    6.244568    0.771593
     78          1           0       -5.587150    6.810687    2.260329
     79          1           0       -4.469138    5.337780    2.596475
     80          1           0       -7.775952    7.167631    0.998871
     81          1           0       -9.173748    5.914362   -1.398162
     82          1           0       -9.173527    7.744642   -1.040742
     83          1           0      -12.073294    3.419988    0.057731
     84          1           0      -11.808095    4.126377   -1.688856
     85          1           0      -13.072029    2.789658   -1.224002
     86          1           0      -12.604015   -0.972543   -1.304093
     87          1           0      -13.547418    0.576171   -1.412087
     88          1           0      -12.526065    0.578151   -3.697165
     89          1           0      -11.460063   -0.814354   -3.692363
     90          1           0      -13.449805   -0.991757   -3.630636
     91          1           0      -10.229949   -4.667632   -0.477530
     92          1           0       -9.385647   -4.301685   -2.089383
     93          1           0       -8.785351   -5.530350   -1.113759
     94          1           0       -3.755987   -3.558485   -0.239164
     95          1           0       -2.109282   -6.354132    2.593469
     96          1           0       -2.436538   -5.093930    3.583968
     97          1           0       -3.530088   -6.180651    3.420417
     98          1           0        2.732720   -2.290716   -1.411702
     99          1           0        2.382530   -0.716401   -2.021820
    100          1           0        4.002595   -0.858360    0.620470
    101          1           0        5.000815    1.786835   -2.321296
    102          1           0        5.651377    0.264928   -3.123331
    103          1           0        3.756972    0.610029   -3.053188
    104          1           0        6.444389    1.338803   -0.176964
    105          1           0        6.059030   -0.123412    0.606553
    106          1           0        7.310258   -1.395421   -1.307895
    107          1           0        7.710360    0.041545   -2.138184
    108          1           0        8.690714    0.836812    0.264693
    109          1           0        8.556037   -0.994707    0.681293
    110          1           0       10.066611    0.086552   -1.855394
    111          1           0        9.197680   -2.212561   -2.028735
    112          1           0       10.933128   -2.452762   -1.968094
    113          1           0        9.940159   -2.880388   -0.682725
    114          1           0       11.137280    0.908220    0.415205
    115          1           0       11.083355   -0.875704    0.774662
    116          1           0       12.697227   -1.731921   -0.691402
    117          1           0       12.648532   -0.110148   -1.637300
    118          1           0       13.820528    0.971111    0.704690
    119          1           0       13.801910   -0.810254    1.127647
    120          1           0       14.924337    0.474416   -1.417631
    121          1           0       14.750416   -2.018560   -1.804514
    122          1           0       16.595106   -1.447885   -1.813404
    123          1           0       15.689089   -2.221624   -0.042130
    124          1           0       15.721391    1.553493    0.750006
    125          1           0       16.471116   -0.063724    1.203099
    126          1           0       18.166380   -0.084658   -0.458202
    127          1           0       17.575271    1.307640   -1.135643
    128          1           0       18.109240    2.541004    0.750307
    129          1           0       18.457280    0.976808    1.910892
    130          1           0       20.402727    0.478405    0.396288
    131          1           0       19.851617    3.079527   -0.879304
    132          1           0       21.424105    2.253644   -1.119128
    133          1           0       19.830861    1.455575   -1.620155
    134          1           0       20.759194    1.729702    2.637932
    135          1           0       22.009757    2.302973    1.403444
    136          1           0       20.452860    3.144786    1.762007
    137          1           0       -6.974936    1.707100    0.376701
    138          1           0       -7.524179   -0.073591   -0.413952
 ---------------------------------------------------------------------

 SCF Done:  E(RB3LYP) =  -2733.00375650     A.U. after   16 cycles

 Excitation energies and oscillator strengths:

 Excited State   1:      Singlet-A      2.0784 eV  596.55 nm  f=0.1471  <S**2>=0.000
     235 -> 237        0.10251
     235 -> 238       -0.32084
     236 -> 237        0.61251
 This state for optimization and/or second-order correction.
 Total Energy, E(TD-HF/TD-DFT) =  -2732.92737835
 Copying the excited state density for this state as the 1-particle RhoCI density.

 The electronic state is 1-A.
 Alpha  occ. eigenvalues --  -19.17848 -19.15073 -19.14678 -19.13566 -19.11690
 Alpha  occ. eigenvalues --  -14.37310 -14.37192 -14.33040 -14.30965 -10.32076
 Alpha  occ. eigenvalues --  -10.31682 -10.29748 -10.23780 -10.23763 -10.23617
 Alpha  occ. eigenvalues --  -10.23490 -10.23358 -10.23214 -10.23192 -10.23133
 Alpha  occ. eigenvalues --  -10.22546 -10.22456 -10.21935 -10.21930 -10.21614
 Alpha  occ. eigenvalues --  -10.21556 -10.21306 -10.21257 -10.21254 -10.21037
 Alpha  occ. eigenvalues --  -10.20987 -10.20879 -10.20816 -10.20782 -10.20701
 Alpha  occ. eigenvalues --  -10.20669 -10.20413 -10.20226 -10.19975 -10.19905
 Alpha  occ. eigenvalues --  -10.19862 -10.19814 -10.19712 -10.19641 -10.19486
 Alpha  occ. eigenvalues --  -10.19399 -10.19387 -10.19358 -10.19333 -10.19184
 Alpha  occ. eigenvalues --  -10.19171 -10.19117 -10.19052 -10.19042 -10.18826
 Alpha  occ. eigenvalues --  -10.18822 -10.18813 -10.18802 -10.18726 -10.18505
 Alpha  occ. eigenvalues --  -10.18130 -10.17860 -10.17365 -10.16935  -1.08732
 Alpha  occ. eigenvalues --   -1.07762  -1.07204  -0.99574  -0.98813  -0.98234
 Alpha  occ. eigenvalues --   -0.97924  -0.94368  -0.94132  -0.84224  -0.82848
 Alpha  occ. eigenvalues --   -0.82317  -0.81834  -0.81036  -0.80931  -0.80467
 Alpha  occ. eigenvalues --   -0.79950  -0.79639  -0.79605  -0.79274  -0.78688
 Alpha  occ. eigenvalues --   -0.76912  -0.76460  -0.75590  -0.74733  -0.74555
 Alpha  occ. eigenvalues --   -0.74190  -0.72851  -0.72016  -0.71141  -0.70569
 Alpha  occ. eigenvalues --   -0.70104  -0.69441  -0.68593  -0.68164  -0.67984
 Alpha  occ. eigenvalues --   -0.67767  -0.66599  -0.65146  -0.65121  -0.64304
 Alpha  occ. eigenvalues --   -0.63898  -0.62252  -0.61945  -0.61529  -0.61083
 Alpha  occ. eigenvalues --   -0.60892  -0.58903  -0.58228  -0.57937  -0.57285
 Alpha  occ. eigenvalues --   -0.56633  -0.56463  -0.55319  -0.55198  -0.55187
 Alpha  occ. eigenvalues --   -0.55057  -0.54418  -0.54099  -0.53829  -0.53183
 Alpha  occ. eigenvalues --   -0.52443  -0.52118  -0.51677  -0.51123  -0.50340
 Alpha  occ. eigenvalues --   -0.50078  -0.49667  -0.48714  -0.48606  -0.48051
 Alpha  occ. eigenvalues --   -0.47672  -0.47469  -0.47288  -0.46822  -0.46616
 Alpha  occ. eigenvalues --   -0.46536  -0.46125  -0.45916  -0.45726  -0.45622
 Alpha  occ. eigenvalues --   -0.45352  -0.45301  -0.45184  -0.44864  -0.44597
 Alpha  occ. eigenvalues --   -0.44409  -0.44141  -0.44026  -0.43912  -0.43688
 Alpha  occ. eigenvalues --   -0.43502  -0.43120  -0.43060  -0.42773  -0.42629
 Alpha  occ. eigenvalues --   -0.42523  -0.42287  -0.42082  -0.41611  -0.41588
 Alpha  occ. eigenvalues --   -0.41134  -0.41037  -0.40786  -0.40662  -0.40421
 Alpha  occ. eigenvalues --   -0.40117  -0.40033  -0.39949  -0.39840  -0.39587
 Alpha  occ. eigenvalues --   -0.39137  -0.39061  -0.38873  -0.38677  -0.38633
 Alpha  occ. eigenvalues --   -0.38517  -0.38280  -0.38010  -0.37808  -0.37723
 Alpha  occ. eigenvalues --   -0.36963  -0.36882  -0.36703  -0.36698  -0.36491
 Alpha  occ. eigenvalues --   -0.36340  -0.36210  -0.35854  -0.35814  -0.35539
 Alpha  occ. eigenvalues --   -0.35502  -0.35329  -0.35173  -0.35129  -0.34555
 Alpha  occ. eigenvalues --   -0.34346  -0.34243  -0.34062  -0.33955  -0.33530
 Alpha  occ. eigenvalues --   -0.33444  -0.32700  -0.32556  -0.32368  -0.32343
 Alpha  occ. eigenvalues --   -0.32244  -0.31932  -0.31678  -0.31324  -0.31127
 Alpha  occ. eigenvalues --   -0.30628  -0.30387  -0.30250  -0.29858  -0.29566
 Alpha  occ. eigenvalues --   -0.29448  -0.28929  -0.28791  -0.28269  -0.27882
 Alpha  occ. eigenvalues --   -0.27755  -0.27450  -0.27282  -0.27035  -0.26385
 Alpha  occ. eigenvalues --   -0.25818  -0.24039  -0.23621  -0.23299  -0.19715
 Alpha  occ. eigenvalues --   -0.18786
 Alpha virt. eigenvalues --   -0.09912  -0.07800  -0.04350  -0.02711  -0.01097
 Alpha virt. eigenvalues --   -0.01075  -0.00023   0.00324   0.01889   0.03460
 Alpha virt. eigenvalues --    0.03737   0.03740   0.03832   0.04117   0.04757

 Mulliken charges:
               1
     1  C    0.008674
     2  C   -0.064114
     3  C   -0.119942
     4  C   -0.069039
     5  N   -0.177212
     6  C   -0.012497
     7  C    0.003309
     8  C   -0.050948
     9  C   -0.021195
    10  C    0.005702
    11  C   -0.050728
    12  C    0.165260
    13  C    0.151420
    14  O   -0.201061
    15  O   -0.414218
    16  N   -0.090581
    17  C    0.090499
    18  C   -0.104129
    19  C    0.023775
    20  C    0.100473
    21  C   -0.045385
    22  C    0.002345
    23  C   -0.112792
    24  N   -0.237242
    25  C    0.064029
    26  C   -0.174279
    27  C   -0.114577
    28  C    0.020025
    29  C    0.097930
    30  C    0.116437
    31  C   -0.029565
    32  N   -0.067873
    33  C    0.076171
    34  C   -0.173734
    35  C   -0.026201
    36  C    0.063944
    37  C    0.082783
    38  C    0.120682
    39  O   -0.076691
    40  C   -0.050863
    41  C    0.216839
    42  O   -0.278559
    43  O   -0.310643
    44  C    0.328580
    45  C    0.345625
    46  C   -0.106162
    47  C   -0.114822
    48  C   -0.010111
    49  C    0.159384
    50  C   -0.047659
    51  C   -0.004463
    52  C   -0.069983
    53  C    0.072622
    54  C    0.013857
    55  C    0.002917
    56  C   -0.028492
    57  C   -0.018992
    58  C   -0.089260
    59  C    0.017231
    60  C    0.128871
    61  C   -0.109476
    62  C   -0.075387
    63  C    0.067220
    64  C    0.036690
    65  H   -0.029812
    66  H    0.001899
    67  H   -0.032314
    68  H   -0.007463
    69  H    0.008767
    70  H    0.017743
    71  H    0.029061
    72  H    0.029533
    73  H    0.033229
    74  H    0.014181
    75  H   -0.040529
    76  H    0.082099
    77  H    0.080745
    78  H    0.043998
    79  H    0.050676
    80  H   -0.008464
    81  H    0.038614
    82  H    0.046663
    83  H    0.028078
    84  H    0.063252
    85  H   -0.002314
    86  H   -0.030188
    87  H    0.024865
    88  H   -0.003032
    89  H    0.036569
    90  H    0.033785
    91  H    0.040378
    92  H    0.021855
    93  H    0.011829
    94  H    0.065988
    95  H    0.002616
    96  H   -0.033778
    97  H   -0.001634
    98  H    0.015425
    99  H   -0.055677
   100  H    0.023299
   101  H    0.021672
   102  H    0.038191
   103  H    0.045149
   104  H   -0.022171
   105  H   -0.014778
   106  H    0.006646
   107  H    0.007841
   108  H    0.004452
   109  H    0.013877
   110  H   -0.006901
   111  H   -0.036315
   112  H    0.018769
   113  H   -0.006004
   114  H    0.011694
   115  H   -0.023308
   116  H    0.024454
   117  H   -0.007657
   118  H    0.003736
   119  H   -0.000393
   120  H   -0.024544
   121  H    0.033998
   122  H    0.045758
   123  H    0.043512
   124  H    0.012789
   125  H   -0.010617
   126  H   -0.030010
   127  H   -0.023346
   128  H   -0.004310
   129  H    0.015692
   130  H   -0.009611
   131  H   -0.021010
   132  H    0.015590
   133  H    0.015882
   134  H    0.005428
   135  H    0.021681
   136  H   -0.034333
   137  H    0.195171
   138  H    0.238962
 Sum of Mulliken charges =  -0.00000

 Dipole moment (field-independent basis, Debye):
    X=              0.7988    Y=              2.7729    Z=             -0.1575  Tot=              2.8900
 Quadrupole moment (field-independent basis, Debye-Ang):
   XX=           -362.5669   YY=           -375.3143   ZZ=           -397.1256
   XY=            -14.6255   XZ=              8.8457   YZ=             -1.8299

 Normal termination of Gaussian 16 at Mon Aug 19 16:31:06 2019.
