 Gaussian 16, Revision A.03,
 Gaussian 16:  ES64L-G16RevA.03 25-Dec-2016

 --------------------------
 # td=(NStates=1) B3LYP/SVP
 --------------------------

 --
 TD
 --
 Symbolic Z-matrix:
 Charge =  0 Multiplicity = 1

                         Standard orientation:
 ---------------------------------------------------------------------
 Center     Atomic      Atomic             Coordinates (Angstroms)
 Number     Number       Type             X           Y           Z
 ---------------------------------------------------------------------
      1          6           0       -5.104502   -1.948448    0.282590
      2          6           0       -4.643143    2.675939    1.233101
      3          6           0       -9.312996    3.427985   -0.049771
      4          6           0       -9.880599   -1.359029   -0.910256
      5          7           0       -5.052218    0.387791    0.738937
      6          6           0       -4.468027   -0.882510    0.699229
      7          6           0       -3.029047   -0.753709    1.183587
      8          6           0       -2.974031    0.760607    1.746850
      9          6           0       -4.204112    1.303055    1.215112
     10          6           0       -2.739977    0.921100    3.216566
     11          6           0       -2.006094   -1.047285   -0.078930
     12          6           0       -0.568454   -1.046871    0.424774
     13          6           0        0.456244   -1.096476   -0.654565
     14          8           0        0.202383   -1.437748   -1.798595
     15          8           0        1.669599   -0.843581   -0.262987
     16          7           0       -7.097771    2.805443    0.594403
     17          6           0       -5.788472    3.371631    0.989089
     18          6           0       -6.047471    4.712257    1.037490
     19          6           0       -7.353803    5.056623    0.518558
     20          6           0       -8.020292    3.783374    0.400483
     21          6           0       -5.051372    5.716554    1.340610
     22          6           0       -7.996754    6.342599    0.401747
     23          6           0       -8.890341    6.661851   -0.558400
     24          7           0       -9.154251    0.999061   -0.371085
     25          6           0       -9.914858    2.233500   -0.393280
     26          6           0      -11.302097    1.974020   -0.753879
     27          6           0      -11.442211    0.679780   -0.999584
     28          6           0      -10.097312    0.118087   -0.733872
     29          6           0      -12.323838    3.058650   -0.837632
     30          6           0      -12.693359   -0.141799   -1.550707
     31          6           0      -12.633456   -0.476704   -3.006132
     32          7           0       -7.522309   -1.223014   -0.123694
     33          6           0       -8.649292   -1.939247   -0.581307
     34          6           0       -8.264482   -3.304487   -0.663427
     35          6           0       -6.907215   -3.340179   -0.381952
     36          6           0       -6.520781   -2.084685   -0.097200
     37          6           0       -9.324635   -4.442396   -0.853262
     38          6           0       -5.860790   -4.382612    0.008254
     39          8           0       -5.851822   -5.599311   -0.010270
     40          6           0       -4.602853   -3.345761    0.352243
     41          6           0       -4.030080   -3.886580    1.622457
     42          8           0       -4.466778   -3.573536    2.762769
     43          8           0       -3.066336   -4.840548    1.446968
     44          6           0       -2.583019   -5.339954    2.621221
     45          6           0        2.638985   -1.112651   -1.241841
     46          6           0        3.956901   -0.834770   -0.610584
     47          6           0        4.935843    0.058618   -1.083699
     48          6           0        4.800341    0.916472   -2.337032
     49          6           0        6.311750    0.300292   -0.333712
     50          6           0        7.498375   -0.236895   -1.061911
     51          6           0        8.808087   -0.103739   -0.210449
     52          6           0       10.048815   -0.797327   -0.787774
     53          6           0        9.945199   -2.284814   -0.884926
     54          6           0       11.276339   -0.352550    0.011524
     55          6           0       12.624986   -0.632395   -0.630551
     56          6           0       13.696277   -0.039914    0.217469
     57          6           0       15.191265   -0.146607   -0.404276
     58          6           0       15.462864   -1.543792   -0.593501
     59          6           0       16.293707    0.565799    0.529171
     60          6           0       17.746654    0.801305   -0.240560
     61          6           0       18.722041    1.452804    0.831802
     62          6           0       20.090449    1.613512    0.216917
     63          6           0       20.178969    2.427025   -1.195448
     64          6           0       21.013459    2.183542    1.217340
     65          1           0       -3.568350    3.036389    1.549298
     66          1           0       -9.969923    4.404047   -0.165408
     67          1           0      -10.655594   -1.899392   -1.444309
     68          1           0       -2.855219   -1.385022    1.904352
     69          1           0       -2.209860    1.417385    1.044356
     70          1           0       -1.785896    0.326263    3.461309
     71          1           0       -2.685635    1.838880    3.700622
     72          1           0       -3.584323    0.359537    3.560451
     73          1           0       -2.296723   -2.059576   -0.580401
     74          1           0       -2.290893   -0.248176   -0.742696
     75          1           0       -0.227125   -0.189389    0.981451
     76          1           0       -0.340021   -1.823936    1.342277
     77          1           0       -4.304643    5.853229    0.482345
     78          1           0       -5.543935    6.823030    1.272475
     79          1           0       -4.810668    5.572407    2.446160
     80          1           0       -7.744999    7.160602    1.153216
     81          1           0       -9.209155    5.975460   -1.250168
     82          1           0       -9.178001    7.738660   -0.509139
     83          1           0      -12.165420    3.909745   -0.038456
     84          1           0      -12.365725    3.586670   -1.931055
     85          1           0      -13.343279    2.549530   -0.803295
     86          1           0      -12.916354   -1.043167   -1.063537
     87          1           0      -13.397139    0.610751   -1.442430
     88          1           0      -12.613373    0.400665   -3.822372
     89          1           0      -11.736897   -1.115589   -3.263597
     90          1           0      -13.540063   -0.932795   -3.563066
     91          1           0      -10.043958   -4.443161   -0.055379
     92          1           0       -9.690932   -4.460270   -1.840791
     93          1           0       -8.598300   -5.372490   -0.621113
     94          1           0       -3.988344   -3.667569   -0.373010
     95          1           0       -1.632122   -6.110821    2.370885
     96          1           0       -2.208385   -4.724385    3.227207
     97          1           0       -3.422779   -5.831528    3.296661
     98          1           0        2.411460   -2.201407   -1.546559
     99          1           0        2.449684   -0.553363   -2.192265
    100          1           0        3.943505   -1.315793    0.263734
    101          1           0        5.439067    1.811007   -2.226766
    102          1           0        5.091085    0.400511   -3.407342
    103          1           0        3.611279    1.162657   -2.575323
    104          1           0        6.457029    1.404870   -0.272135
    105          1           0        6.347835   -0.091653    0.777280
    106          1           0        7.048453   -1.204201   -1.087958
    107          1           0        7.867007    0.184920   -2.082390
    108          1           0        9.107123    0.969243   -0.178263
    109          1           0        8.549428   -0.241297    0.645448
    110          1           0       10.184186   -0.372727   -1.779358
    111          1           0        8.908526   -2.676217   -1.312561
    112          1           0       10.651966   -2.812504   -1.325137
    113          1           0        9.777224   -2.442763    0.300225
    114          1           0       11.145297    0.757167    0.253544
    115          1           0       11.167690   -1.021231    1.056923
    116          1           0       12.680836   -1.670431   -0.892696
    117          1           0       12.746706   -0.008332   -1.621972
    118          1           0       13.521710    0.916796    0.353461
    119          1           0       13.832265   -0.661095    1.265472
    120          1           0       14.936336    0.376614   -1.360886
    121          1           0       14.895731   -2.068573   -1.312673
    122          1           0       16.562865   -1.803432   -0.878531
    123          1           0       15.294594   -2.043311    0.370124
    124          1           0       15.945765    1.605105    0.753145
    125          1           0       16.290520   -0.058751    1.373879
    126          1           0       18.250308   -0.018441   -0.521727
    127          1           0       17.458535    1.601042   -1.110269
    128          1           0       18.375400    2.498546    1.402255
    129          1           0       18.805785    0.761687    1.801009
    130          1           0       20.591351    0.465684    0.124030
    131          1           0       19.692433    3.530443   -1.086286
    132          1           0       21.153388    2.603612   -1.653819
    133          1           0       19.486957    1.930885   -1.981513
    134          1           0       21.240334    1.476952    2.260517
    135          1           0       22.006657    2.182549    0.652746
    136          1           0       20.883360    3.191934    1.674746
    137          1           0       -7.089388    1.803625    0.352795
    138          1           0       -7.713500   -0.330280   -0.117341
 ---------------------------------------------------------------------

 SCF Done:  E(RB3LYP) =  -2732.96833722     A.U. after   17 cycles

 Excitation energies and oscillator strengths:

 Excited State   1:      Singlet-A      1.9300 eV  642.40 nm  f=0.2283  <S**2>=0.000
     235 -> 237       -0.13350
     235 -> 238       -0.18898
     236 -> 237        0.65531
     236 -> 238       -0.13933
     236 <- 237       -0.10242
 This state for optimization and/or second-order correction.
 Total Energy, E(TD-HF/TD-DFT) =  -2732.89741011
 Copying the excited state density for this state as the 1-particle RhoCI density.

 The electronic state is 1-A.
 Alpha  occ. eigenvalues --  -19.18891 -19.18577 -19.14628 -19.12195 -19.11533
 Alpha  occ. eigenvalues --  -14.36540 -14.35740 -14.31548 -14.30770 -10.32072
 Alpha  occ. eigenvalues --  -10.31000 -10.30083 -10.24794 -10.24199 -10.23979
 Alpha  occ. eigenvalues --  -10.23872 -10.23493 -10.22851 -10.22780 -10.22152
 Alpha  occ. eigenvalues --  -10.22084 -10.22058 -10.21986 -10.21946 -10.21753
 Alpha  occ. eigenvalues --  -10.21514 -10.21236 -10.21168 -10.21135 -10.21081
 Alpha  occ. eigenvalues --  -10.20995 -10.20946 -10.20869 -10.20622 -10.20568
 Alpha  occ. eigenvalues --  -10.20470 -10.20455 -10.20395 -10.20324 -10.20261
 Alpha  occ. eigenvalues --  -10.20195 -10.20176 -10.20084 -10.19983 -10.19777
 Alpha  occ. eigenvalues --  -10.19659 -10.19548 -10.19500 -10.19454 -10.19281
 Alpha  occ. eigenvalues --  -10.19251 -10.19179 -10.19025 -10.18948 -10.18912
 Alpha  occ. eigenvalues --  -10.18827 -10.18651 -10.18637 -10.18526 -10.18449
 Alpha  occ. eigenvalues --  -10.18314 -10.17813 -10.16992 -10.16696  -1.12381
 Alpha  occ. eigenvalues --   -1.10275  -1.04062  -1.00338  -1.00293  -0.99001
 Alpha  occ. eigenvalues --   -0.96151  -0.94127  -0.92879  -0.85745  -0.82956
 Alpha  occ. eigenvalues --   -0.81836  -0.81661  -0.81457  -0.80963  -0.80623
 Alpha  occ. eigenvalues --   -0.80297  -0.80004  -0.79743  -0.79239  -0.78607
 Alpha  occ. eigenvalues --   -0.77626  -0.76419  -0.76328  -0.75122  -0.74872
 Alpha  occ. eigenvalues --   -0.73651  -0.73431  -0.72705  -0.72102  -0.70724
 Alpha  occ. eigenvalues --   -0.70190  -0.69883  -0.68586  -0.68049  -0.67556
 Alpha  occ. eigenvalues --   -0.66747  -0.66487  -0.66337  -0.65988  -0.65560
 Alpha  occ. eigenvalues --   -0.64713  -0.63967  -0.63024  -0.61882  -0.61809
 Alpha  occ. eigenvalues --   -0.60739  -0.59680  -0.58844  -0.58469  -0.58036
 Alpha  occ. eigenvalues --   -0.57932  -0.57062  -0.56995  -0.55676  -0.55032
 Alpha  occ. eigenvalues --   -0.54729  -0.54656  -0.53897  -0.53774  -0.53166
 Alpha  occ. eigenvalues --   -0.52537  -0.52078  -0.51739  -0.51425  -0.51024
 Alpha  occ. eigenvalues --   -0.50562  -0.50473  -0.49527  -0.49487  -0.49066
 Alpha  occ. eigenvalues --   -0.48494  -0.48394  -0.48205  -0.47543  -0.47463
 Alpha  occ. eigenvalues --   -0.47263  -0.47035  -0.46420  -0.46237  -0.46057
 Alpha  occ. eigenvalues --   -0.45786  -0.45607  -0.45557  -0.45328  -0.45040
 Alpha  occ. eigenvalues --   -0.44731  -0.44630  -0.44417  -0.44193  -0.43581
 Alpha  occ. eigenvalues --   -0.43403  -0.43299  -0.42982  -0.42812  -0.42559
 Alpha  occ. eigenvalues --   -0.42211  -0.42179  -0.41827  -0.41697  -0.41624
 Alpha  occ. eigenvalues --   -0.41382  -0.41316  -0.40798  -0.40622  -0.40509
 Alpha  occ. eigenvalues --   -0.40300  -0.39887  -0.39792  -0.39489  -0.39346
 Alpha  occ. eigenvalues --   -0.39135  -0.38778  -0.38727  -0.38410  -0.38318
 Alpha  occ. eigenvalues --   -0.38245  -0.37997  -0.37774  -0.37716  -0.37533
 Alpha  occ. eigenvalues --   -0.36971  -0.36938  -0.36820  -0.36794  -0.36558
 Alpha  occ. eigenvalues --   -0.36335  -0.36269  -0.35953  -0.35749  -0.35371
 Alpha  occ. eigenvalues --   -0.35193  -0.35044  -0.34947  -0.34816  -0.34516
 Alpha  occ. eigenvalues --   -0.34450  -0.34410  -0.34037  -0.33906  -0.33859
 Alpha  occ. eigenvalues --   -0.33765  -0.33645  -0.33097  -0.32803  -0.32717
 Alpha  occ. eigenvalues --   -0.32281  -0.32266  -0.31765  -0.31705  -0.31494
 Alpha  occ. eigenvalues --   -0.30934  -0.30769  -0.30269  -0.30171  -0.30119
 Alpha  occ. eigenvalues --   -0.29784  -0.29684  -0.28624  -0.27883  -0.27691
 Alpha  occ. eigenvalues --   -0.27639  -0.27342  -0.27333  -0.26841  -0.25990
 Alpha  occ. eigenvalues --   -0.25787  -0.24511  -0.23938  -0.23452  -0.21038
 Alpha  occ. eigenvalues --   -0.18131
 Alpha virt. eigenvalues --   -0.10836  -0.07756  -0.04573  -0.01967  -0.01882
 Alpha virt. eigenvalues --   -0.01356  -0.00244  -0.00087   0.02485   0.03517
 Alpha virt. eigenvalues --    0.03668   0.04062   0.04109   0.04624   0.04843

 Mulliken charges:
               1
     1  C    0.151474
     2  C   -0.057519
     3  C   -0.115654
     4  C   -0.068481
     5  N   -0.186793
     6  C   -0.153159
     7  C    0.075948
     8  C   -0.054107
     9  C   -0.175879
    10  C    0.122097
    11  C    0.053998
    12  C    0.018960
    13  C    0.152169
    14  O   -0.260565
    15  O   -0.254768
    16  N   -0.136855
    17  C    0.234018
    18  C   -0.142651
    19  C    0.050604
    20  C    0.085971
    21  C    0.045444
    22  C   -0.102173
    23  C    0.011224
    24  N   -0.273662
    25  C    0.100336
    26  C   -0.080539
    27  C   -0.132808
    28  C    0.023329
    29  C    0.001366
    30  C    0.228214
    31  C   -0.094717
    32  N    0.097749
    33  C    0.055344
    34  C   -0.172625
    35  C   -0.044289
    36  C    0.084559
    37  C    0.095142
    38  C    0.111329
    39  O   -0.151887
    40  C   -0.005773
    41  C    0.191753
    42  O   -0.281660
    43  O   -0.266512
    44  C    0.219012
    45  C    0.207085
    46  C   -0.007771
    47  C   -0.088559
    48  C   -0.030879
    49  C    0.018771
    50  C    0.002244
    51  C    0.147714
    52  C   -0.005804
    53  C    0.041046
    54  C   -0.054438
    55  C    0.060297
    56  C    0.038769
    57  C   -0.085184
    58  C    0.064805
    59  C    0.058033
    60  C    0.052545
    61  C   -0.059747
    62  C   -0.093285
    63  C   -0.031478
    64  C   -0.034024
    65  H   -0.007589
    66  H    0.003366
    67  H   -0.011140
    68  H   -0.073411
    69  H    0.019362
    70  H    0.021338
    71  H    0.010978
    72  H    0.021121
    73  H    0.051113
    74  H    0.014711
    75  H    0.006104
    76  H    0.050773
    77  H    0.050262
    78  H    0.007278
    79  H    0.043631
    80  H    0.025160
    81  H    0.005636
    82  H    0.030943
    83  H    0.050987
    84  H    0.040445
    85  H    0.026729
    86  H    0.002418
    87  H   -0.036801
    88  H    0.012015
    89  H    0.021673
    90  H    0.021326
    91  H    0.033806
    92  H    0.028867
    93  H    0.052444
    94  H    0.000035
    95  H    0.038305
    96  H   -0.049928
    97  H    0.034362
    98  H    0.027402
    99  H    0.014252
   100  H   -0.056389
   101  H    0.029756
   102  H    0.053481
   103  H    0.048270
   104  H   -0.005278
   105  H    0.023880
   106  H   -0.000240
   107  H    0.019153
   108  H   -0.021721
   109  H   -0.124410
   110  H   -0.034343
   111  H    0.018626
   112  H   -0.012245
   113  H    0.005376
   114  H    0.001087
   115  H    0.005231
   116  H   -0.005737
   117  H   -0.004132
   118  H   -0.052911
   119  H   -0.000116
   120  H   -0.022309
   121  H   -0.002731
   122  H    0.001645
   123  H   -0.013104
   124  H    0.001921
   125  H   -0.013694
   126  H   -0.018674
   127  H    0.038320
   128  H    0.011561
   129  H    0.014083
   130  H    0.020735
   131  H    0.021565
   132  H    0.022811
   133  H    0.029430
   134  H    0.015622
   135  H    0.009729
   136  H    0.016233
   137  H    0.154492
   138  H    0.039950
 Sum of Mulliken charges =  -0.00000

 Dipole moment (field-independent basis, Debye):
    X=              1.9118    Y=              4.4904    Z=             -0.1196  Tot=              4.8819
 Quadrupole moment (field-independent basis, Debye-Ang):
   XX=           -351.1037   YY=           -391.3960   ZZ=           -396.6756
   XY=            -20.0994   XZ=              9.0286   YZ=              0.7390

 Normal termination of Gaussian 16 at Tue Aug 20 09:09:21 2019.
