 Gaussian 16, Revision A.03,
 Gaussian 16:  ES64L-G16RevA.03 25-Dec-2016

 --------------------------
 # td=(NStates=1) B3LYP/SVP
 --------------------------

 --
 TD
 --
 Symbolic Z-matrix:
 Charge =  0 Multiplicity = 1

                         Standard orientation:
 ---------------------------------------------------------------------
 Center     Atomic      Atomic             Coordinates (Angstroms)
 Number     Number       Type             X           Y           Z
 ---------------------------------------------------------------------
      1          6           0       -5.092666   -1.990143    0.453364
      2          6           0       -4.701490    2.668256    1.449494
      3          6           0       -9.195532    3.506491   -0.221916
      4          6           0       -9.811255   -1.227187   -0.970709
      5          7           0       -5.170760    0.305178    0.951315
      6          6           0       -4.437401   -0.829343    0.814758
      7          6           0       -3.011432   -0.651727    1.257692
      8          6           0       -2.978202    0.815080    1.866782
      9          6           0       -4.374193    1.284383    1.380685
     10          6           0       -2.878512    0.749940    3.352682
     11          6           0       -2.130894   -0.814082    0.027777
     12          6           0       -0.666091   -0.845198    0.637564
     13          6           0        0.243312   -1.193617   -0.553758
     14          8           0       -0.047440   -1.760436   -1.647437
     15          8           0        1.534589   -0.783982   -0.257844
     16          7           0       -6.938479    2.821723    0.464657
     17          6           0       -5.879974    3.428095    1.040766
     18          6           0       -6.032466    4.828363    1.002622
     19          6           0       -7.310592    5.051253    0.440568
     20          6           0       -7.890432    3.714492    0.155269
     21          6           0       -5.124842    5.861161    1.492189
     22          6           0       -7.891746    6.350936    0.190055
     23          6           0       -8.868067    6.767950   -0.619360
     24          7           0       -9.152477    1.031941   -0.543445
     25          6           0       -9.742891    2.207105   -0.496682
     26          6           0      -11.191766    2.122897   -0.938520
     27          6           0      -11.432266    0.808539   -1.075881
     28          6           0      -10.097741    0.140223   -0.783171
     29          6           0      -12.209663    3.245322   -0.919331
     30          6           0      -12.666012   -0.022418   -1.523248
     31          6           0      -12.734227   -0.221468   -2.996451
     32          7           0       -7.553377   -1.263679   -0.280653
     33          6           0       -8.619657   -1.892177   -0.610973
     34          6           0       -8.315915   -3.328178   -0.554879
     35          6           0       -6.958740   -3.319923   -0.256308
     36          6           0       -6.496048   -2.030884   -0.001013
     37          6           0       -9.191675   -4.455898   -0.878354
     38          6           0       -5.843161   -4.318219   -0.046519
     39          8           0       -5.756232   -5.511510   -0.063163
     40          6           0       -4.523563   -3.394827    0.415694
     41          6           0       -3.934528   -3.945272    1.572126
     42          8           0       -4.068428   -3.442672    2.739106
     43          8           0       -3.211868   -5.067929    1.321328
     44          6           0       -2.647842   -5.691623    2.481329
     45          6           0        2.598143   -1.260258   -1.128306
     46          6           0        3.825552   -0.898458   -0.513781
     47          6           0        4.914285   -0.210175   -1.151496
     48          6           0        4.863736    0.443388   -2.497474
     49          6           0        6.263196   -0.091463   -0.324161
     50          6           0        7.558271   -0.606964   -0.920346
     51          6           0        8.800877   -0.351431   -0.202844
     52          6           0       10.042196   -0.858011   -0.793057
     53          6           0       10.104361   -2.457992   -1.025315
     54          6           0       11.300586   -0.486751    0.042854
     55          6           0       12.610334   -0.636547   -0.551414
     56          6           0       13.724730    0.068134    0.286077
     57          6           0       15.246079    0.045909   -0.363082
     58          6           0       15.668478   -1.476591   -0.638833
     59          6           0       16.310402    0.759066    0.488558
     60          6           0       17.692819    0.886074   -0.084001
     61          6           0       18.581266    1.812336    0.691795
     62          6           0       20.010132    1.901494    0.161895
     63          6           0       20.001520    2.495435   -1.270131
     64          6           0       21.059901    2.446633    1.155984
     65          1           0       -3.815821    3.318610    1.480852
     66          1           0       -9.766799    4.294922   -0.206766
     67          1           0      -10.660656   -1.735267   -1.169413
     68          1           0       -2.598872   -1.526853    1.858150
     69          1           0       -2.208459    1.279551    1.508807
     70          1           0       -1.827732    0.478241    3.659951
     71          1           0       -3.061197    1.702059    3.853600
     72          1           0       -3.430739   -0.164090    3.965365
     73          1           0       -2.300419   -1.780225   -0.549440
     74          1           0       -2.220445   -0.122499   -0.789700
     75          1           0       -0.303598    0.136742    1.050189
     76          1           0       -0.558802   -1.759724    1.249983
     77          1           0       -4.254175    6.375777    0.601453
     78          1           0       -5.844782    6.756683    2.279569
     79          1           0       -4.310624    4.967196    2.296611
     80          1           0       -7.359729    7.161799    0.721693
     81          1           0       -9.587883    5.854220   -0.999166
     82          1           0       -9.128792    7.685810   -0.526635
     83          1           0      -12.242636    3.641690    0.057699
     84          1           0      -12.194456    4.045037   -1.534260
     85          1           0      -13.247938    2.706672   -0.847523
     86          1           0      -12.689899   -1.065767   -1.003497
     87          1           0      -13.620533    0.590226   -1.344982
     88          1           0      -13.044051    0.664119   -3.530294
     89          1           0      -11.806120   -0.686704   -3.367000
     90          1           0      -13.578148   -0.922378   -3.325034
     91          1           0      -10.201026   -4.556309   -0.689338
     92          1           0       -9.151507   -4.466460   -2.076285
     93          1           0       -8.476872   -5.332801   -0.737734
     94          1           0       -3.740392   -3.446579   -0.544539
     95          1           0       -1.903299   -6.556376    2.283095
     96          1           0       -2.030501   -5.087875    3.245739
     97          1           0       -3.507590   -5.948599    3.085062
     98          1           0        2.282147   -2.234191   -1.386836
     99          1           0        2.353955   -0.734928   -2.052291
    100          1           0        3.883633   -1.120613    0.493551
    101          1           0        5.342145    1.447534   -2.646976
    102          1           0        5.483801   -0.319396   -3.044388
    103          1           0        3.899490    0.603523   -2.706942
    104          1           0        6.473394    0.981425   -0.331039
    105          1           0        6.113527   -0.530520    0.661059
    106          1           0        7.278602   -1.685355   -1.110462
    107          1           0        7.743989   -0.290197   -2.073599
    108          1           0        8.661466    0.677107    0.041477
    109          1           0        8.646721   -0.795796    0.814302
    110          1           0        9.952751   -0.584933   -1.843170
    111          1           0        9.139963   -2.775238   -1.583386
    112          1           0       11.078969   -2.700894   -1.560879
    113          1           0       10.056041   -2.912678   -0.048138
    114          1           0       10.946298    0.596069    0.183948
    115          1           0       11.135231   -0.877037    1.136247
    116          1           0       12.987025   -1.740817   -0.476362
    117          1           0       12.597370   -0.183466   -1.537775
    118          1           0       13.530640    1.145919    0.373882
    119          1           0       13.873837   -0.453987    1.285425
    120          1           0       15.054636    0.706107   -1.342633
    121          1           0       14.838694   -1.946610   -1.378026
    122          1           0       16.667585   -1.398968   -1.160423
    123          1           0       15.807350   -2.231968    0.123471
    124          1           0       15.933138    1.667773    0.597131
    125          1           0       16.351155    0.475487    1.589390
    126          1           0       17.977661   -0.196513   -0.198441
    127          1           0       17.613515    1.392828   -1.031348
    128          1           0       18.090742    2.852873    0.653508
    129          1           0       18.594527    1.367673    1.498432
    130          1           0       20.319116    0.687150    0.124686
    131          1           0       19.251772    3.398602   -1.419632
    132          1           0       21.013854    2.727144   -1.422677
    133          1           0       19.524614    1.952314   -1.851037
    134          1           0       21.068951    2.068017    2.142621
    135          1           0       22.070959    2.114991    0.672780
    136          1           0       20.790347    3.531352    1.180599
    137          1           0       -7.121364    1.838909    0.416204
    138          1           0       -7.765222   -0.166215   -0.301103
 ---------------------------------------------------------------------

 SCF Done:  E(RB3LYP) =  -2732.94995721     A.U. after   17 cycles

 Excitation energies and oscillator strengths:

 Excited State   1:      Singlet-A      2.0234 eV  612.75 nm  f=0.2023  <S**2>=0.000
     235 -> 237       -0.10705
     235 -> 238       -0.29902
     236 -> 237        0.62782
 This state for optimization and/or second-order correction.
 Total Energy, E(TD-HF/TD-DFT) =  -2732.87559847
 Copying the excited state density for this state as the 1-particle RhoCI density.

 The electronic state is 1-A.
 Alpha  occ. eigenvalues --  -19.18505 -19.16713 -19.13882 -19.12717 -19.11632
 Alpha  occ. eigenvalues --  -14.37424 -14.37199 -14.31991 -14.31236 -10.31755
 Alpha  occ. eigenvalues --  -10.31495 -10.29442 -10.26159 -10.24927 -10.24309
 Alpha  occ. eigenvalues --  -10.23748 -10.23545 -10.23234 -10.23124 -10.22851
 Alpha  occ. eigenvalues --  -10.22371 -10.22304 -10.22156 -10.22010 -10.21819
 Alpha  occ. eigenvalues --  -10.21475 -10.21396 -10.21141 -10.20842 -10.20753
 Alpha  occ. eigenvalues --  -10.20660 -10.20616 -10.20277 -10.20237 -10.19944
 Alpha  occ. eigenvalues --  -10.19833 -10.19763 -10.19569 -10.19489 -10.19446
 Alpha  occ. eigenvalues --  -10.19446 -10.19395 -10.19329 -10.19304 -10.19293
 Alpha  occ. eigenvalues --  -10.19239 -10.19221 -10.19087 -10.19048 -10.19026
 Alpha  occ. eigenvalues --  -10.18995 -10.18946 -10.18940 -10.18929 -10.18889
 Alpha  occ. eigenvalues --  -10.18669 -10.18463 -10.18417 -10.18358 -10.17847
 Alpha  occ. eigenvalues --  -10.17352 -10.16797 -10.16760 -10.16236  -1.08540
 Alpha  occ. eigenvalues --   -1.06914  -1.04713  -1.01350  -1.00039  -0.98231
 Alpha  occ. eigenvalues --   -0.97644  -0.95986  -0.94648  -0.84561  -0.83240
 Alpha  occ. eigenvalues --   -0.82406  -0.82199  -0.81712  -0.81257  -0.81080
 Alpha  occ. eigenvalues --   -0.80434  -0.79960  -0.79378  -0.79330  -0.78080
 Alpha  occ. eigenvalues --   -0.77612  -0.76674  -0.76377  -0.75657  -0.74910
 Alpha  occ. eigenvalues --   -0.74147  -0.73701  -0.72870  -0.72205  -0.70423
 Alpha  occ. eigenvalues --   -0.70047  -0.69199  -0.69155  -0.68813  -0.68445
 Alpha  occ. eigenvalues --   -0.68009  -0.67252  -0.66108  -0.66038  -0.64899
 Alpha  occ. eigenvalues --   -0.64401  -0.63732  -0.63107  -0.62189  -0.61293
 Alpha  occ. eigenvalues --   -0.61057  -0.59423  -0.58856  -0.58248  -0.57839
 Alpha  occ. eigenvalues --   -0.56793  -0.56240  -0.56002  -0.56001  -0.55225
 Alpha  occ. eigenvalues --   -0.54883  -0.54777  -0.53944  -0.53655  -0.53551
 Alpha  occ. eigenvalues --   -0.53402  -0.52225  -0.52182  -0.50962  -0.50409
 Alpha  occ. eigenvalues --   -0.49997  -0.49587  -0.49554  -0.49109  -0.48945
 Alpha  occ. eigenvalues --   -0.48551  -0.48322  -0.47773  -0.47509  -0.47422
 Alpha  occ. eigenvalues --   -0.47236  -0.47017  -0.46668  -0.46415  -0.46267
 Alpha  occ. eigenvalues --   -0.45852  -0.45661  -0.45577  -0.45215  -0.45034
 Alpha  occ. eigenvalues --   -0.44984  -0.44878  -0.44621  -0.44307  -0.44130
 Alpha  occ. eigenvalues --   -0.44055  -0.43746  -0.43733  -0.43107  -0.42717
 Alpha  occ. eigenvalues --   -0.42349  -0.42138  -0.41767  -0.41634  -0.41469
 Alpha  occ. eigenvalues --   -0.41013  -0.40976  -0.40906  -0.40644  -0.40544
 Alpha  occ. eigenvalues --   -0.40449  -0.40296  -0.39748  -0.39598  -0.39505
 Alpha  occ. eigenvalues --   -0.39359  -0.39222  -0.39071  -0.39003  -0.38876
 Alpha  occ. eigenvalues --   -0.38704  -0.38537  -0.38347  -0.38057  -0.37836
 Alpha  occ. eigenvalues --   -0.37576  -0.37455  -0.37208  -0.37112  -0.36975
 Alpha  occ. eigenvalues --   -0.36793  -0.36189  -0.36143  -0.36122  -0.35924
 Alpha  occ. eigenvalues --   -0.35738  -0.35637  -0.35272  -0.35009  -0.34827
 Alpha  occ. eigenvalues --   -0.34468  -0.34381  -0.34272  -0.34195  -0.34010
 Alpha  occ. eigenvalues --   -0.33386  -0.33118  -0.32813  -0.32560  -0.32466
 Alpha  occ. eigenvalues --   -0.32199  -0.32062  -0.31733  -0.31664  -0.31441
 Alpha  occ. eigenvalues --   -0.31073  -0.30615  -0.29937  -0.29750  -0.29540
 Alpha  occ. eigenvalues --   -0.28791  -0.28397  -0.28319  -0.27947  -0.27879
 Alpha  occ. eigenvalues --   -0.27597  -0.27104  -0.26755  -0.26478  -0.25660
 Alpha  occ. eigenvalues --   -0.25295  -0.24499  -0.24051  -0.23261  -0.19631
 Alpha  occ. eigenvalues --   -0.19085
 Alpha virt. eigenvalues --   -0.10658  -0.07622  -0.04515  -0.02664  -0.01789
 Alpha virt. eigenvalues --   -0.01478  -0.00762   0.00417   0.00535   0.02313
 Alpha virt. eigenvalues --    0.03673   0.03837   0.04229   0.04499   0.04670

 Mulliken charges:
               1
     1  C   -0.012056
     2  C   -0.057523
     3  C   -0.033527
     4  C    0.012674
     5  N   -0.145269
     6  C   -0.028972
     7  C   -0.053844
     8  C    0.123796
     9  C   -0.032506
    10  C    0.015568
    11  C   -0.020752
    12  C    0.056851
    13  C    0.173296
    14  O   -0.286969
    15  O   -0.355478
    16  N    0.014080
    17  C    0.056641
    18  C   -0.006246
    19  C    0.039360
    20  C    0.083134
    21  C   -0.187444
    22  C   -0.084731
    23  C    0.037720
    24  N   -0.194200
    25  C    0.065518
    26  C   -0.180517
    27  C   -0.055396
    28  C   -0.009452
    29  C    0.153221
    30  C    0.037438
    31  C    0.007406
    32  N    0.029993
    33  C    0.002808
    34  C   -0.147085
    35  C   -0.044730
    36  C    0.097059
    37  C    0.102942
    38  C    0.100193
    39  O   -0.128255
    40  C   -0.112539
    41  C    0.235505
    42  O   -0.293644
    43  O   -0.286186
    44  C    0.167525
    45  C    0.321085
    46  C   -0.048558
    47  C   -0.180409
    48  C    0.117692
    49  C    0.120943
    50  C   -0.100859
    51  C    0.108797
    52  C   -0.069605
    53  C   -0.014255
    54  C    0.005520
    55  C    0.096569
    56  C   -0.022550
    57  C   -0.106722
    58  C   -0.032782
    59  C    0.108754
    60  C    0.005645
    61  C    0.171036
    62  C   -0.204265
    63  C    0.164255
    64  C    0.051053
    65  H   -0.002260
    66  H   -0.114069
    67  H   -0.088049
    68  H    0.020340
    69  H   -0.073444
    70  H    0.001905
    71  H    0.010773
    72  H    0.055320
    73  H    0.029700
    74  H   -0.001902
    75  H    0.055667
    76  H    0.046701
    77  H    0.085794
    78  H    0.082309
    79  H    0.043903
    80  H   -0.016729
    81  H    0.041695
    82  H   -0.032959
    83  H   -0.000074
    84  H   -0.001220
    85  H    0.009493
    86  H    0.030148
    87  H    0.005727
    88  H    0.008651
    89  H    0.014508
    90  H    0.006469
    91  H    0.015387
    92  H    0.031397
    93  H    0.041105
    94  H    0.104053
    95  H    0.049459
    96  H    0.027092
    97  H    0.024146
    98  H    0.005094
    99  H   -0.010899
   100  H   -0.033881
   101  H    0.025114
   102  H    0.048640
   103  H   -0.011326
   104  H   -0.008463
   105  H   -0.000001
   106  H    0.000330
   107  H   -0.005751
   108  H   -0.027771
   109  H   -0.024522
   110  H   -0.018710
   111  H    0.020243
   112  H    0.031846
   113  H   -0.003940
   114  H   -0.010622
   115  H    0.005511
   116  H    0.027574
   117  H   -0.006623
   118  H   -0.004279
   119  H    0.006699
   120  H    0.008293
   121  H    0.024673
   122  H    0.019912
   123  H    0.016014
   124  H   -0.075807
   125  H   -0.016461
   126  H    0.007469
   127  H   -0.029319
   128  H    0.001244
   129  H   -0.104115
   130  H   -0.009281
   131  H   -0.005999
   132  H    0.000511
   133  H   -0.060198
   134  H    0.000288
   135  H    0.026791
   136  H    0.014107
   137  H    0.129936
   138  H    0.189897
 Sum of Mulliken charges =  -0.00000

 Dipole moment (field-independent basis, Debye):
    X=              1.5605    Y=              3.7271    Z=              0.0622  Tot=              4.0410
 Quadrupole moment (field-independent basis, Debye-Ang):
   XX=           -337.3863   YY=           -389.0973   ZZ=           -401.1360
   XY=            -18.7421   XZ=             12.6972   YZ=             -2.8870

 Normal termination of Gaussian 16 at Fri Aug  9 21:37:27 2019.
