 Gaussian 16, Revision A.03,
 Gaussian 16:  ES64L-G16RevA.03 25-Dec-2016

 --------------------------
 # td=(NStates=1) B3LYP/SVP
 --------------------------

 --
 TD
 --
 Symbolic Z-matrix:
 Charge =  0 Multiplicity = 1

                         Standard orientation:
 ---------------------------------------------------------------------
 Center     Atomic      Atomic             Coordinates (Angstroms)
 Number     Number       Type             X           Y           Z
 ---------------------------------------------------------------------
      1          6           0       -5.146079   -1.910872    0.621137
      2          6           0       -4.645174    2.702595    1.494359
      3          6           0       -9.101067    3.423506   -0.130143
      4          6           0       -9.789803   -1.196144   -0.942651
      5          7           0       -5.179190    0.383668    0.905114
      6          6           0       -4.545749   -0.789422    0.930429
      7          6           0       -3.053603   -0.664274    1.334153
      8          6           0       -3.043847    0.748570    1.976334
      9          6           0       -4.285961    1.389868    1.420119
     10          6           0       -2.909077    0.797453    3.459927
     11          6           0       -2.111863   -0.931020    0.127156
     12          6           0       -0.611696   -0.991946    0.530826
     13          6           0        0.321253   -1.314530   -0.531597
     14          8           0       -0.026196   -1.850270   -1.542741
     15          8           0        1.686767   -1.028816   -0.185674
     16          7           0       -6.939420    2.721448    0.533482
     17          6           0       -5.790590    3.392129    0.976077
     18          6           0       -6.000710    4.744111    1.029185
     19          6           0       -7.281723    5.065403    0.489940
     20          6           0       -7.860339    3.757054    0.195766
     21          6           0       -5.036713    5.825731    1.548154
     22          6           0       -7.939560    6.276384    0.398703
     23          6           0       -8.948116    6.659683   -0.447331
     24          7           0       -9.167122    1.078333   -0.560583
     25          6           0       -9.677309    2.208618   -0.520056
     26          6           0      -11.101620    2.140944   -1.040421
     27          6           0      -11.271658    0.826667   -1.248471
     28          6           0      -10.043666    0.109979   -0.893224
     29          6           0      -12.059347    3.339434   -1.254604
     30          6           0      -12.502840    0.116131   -1.833821
     31          6           0      -12.448124   -0.184997   -3.326334
     32          7           0       -7.537553   -1.219264   -0.179949
     33          6           0       -8.613023   -1.898940   -0.628474
     34          6           0       -8.258675   -3.297422   -0.617481
     35          6           0       -6.945795   -3.423086   -0.158830
     36          6           0       -6.510620   -2.013205    0.190710
     37          6           0       -9.191536   -4.372957   -1.140087
     38          6           0       -5.772571   -4.240447   -0.067065
     39          8           0       -5.714223   -5.456180   -0.177584
     40          6           0       -4.457930   -3.360574    0.498148
     41          6           0       -4.072491   -3.941962    1.784312
     42          8           0       -4.207323   -3.523690    2.943354
     43          8           0       -3.338674   -4.984661    1.597212
     44          6           0       -2.743414   -5.679451    2.697941
     45          6           0        2.677665   -1.509160   -1.062368
     46          6           0        3.968227   -1.020001   -0.508278
     47          6           0        4.881497   -0.154981   -1.034621
     48          6           0        4.726378    0.485892   -2.297448
     49          6           0        6.177730    0.073028   -0.332945
     50          6           0        7.431130   -0.489978   -1.027284
     51          6           0        8.713924   -0.380478   -0.154047
     52          6           0       10.021212   -0.751050   -0.988645
     53          6           0       10.064084   -2.266925   -1.452922
     54          6           0       11.253817   -0.340417   -0.186803
     55          6           0       12.663257   -0.392062   -0.811665
     56          6           0       13.774212    0.027904    0.061283
     57          6           0       15.174841   -0.142167   -0.478045
     58          6           0       15.495633   -1.708859   -0.619314
     59          6           0       16.173815    0.599578    0.424365
     60          6           0       17.597767    0.879673   -0.167787
     61          6           0       18.445657    1.718529    0.738545
     62          6           0       19.952789    1.844439    0.192555
     63          6           0       20.045825    2.734325   -1.048731
     64          6           0       20.821499    2.509964    1.337075
     65          1           0       -3.711016    3.250770    1.763174
     66          1           0       -9.821219    4.438276   -0.194298
     67          1           0      -10.570283   -1.986207   -1.381480
     68          1           0       -3.044741   -1.639784    2.133007
     69          1           0       -2.211317    1.380942    1.424783
     70          1           0       -2.096991    0.285097    3.741120
     71          1           0       -2.862984    1.932666    3.717294
     72          1           0       -3.845616    0.407308    3.896967
     73          1           0       -2.228801   -1.893892   -0.310540
     74          1           0       -2.271780   -0.184885   -0.621629
     75          1           0       -0.546657   -0.076882    1.140679
     76          1           0       -0.755151   -1.889631    1.334314
     77          1           0       -3.931872    5.757652    1.047605
     78          1           0       -5.132009    6.764464    1.518270
     79          1           0       -5.023211    5.554843    2.744751
     80          1           0       -7.560289    6.982722    1.370645
     81          1           0       -9.058645    5.756213   -1.378802
     82          1           0       -9.612752    7.435621   -0.407657
     83          1           0      -12.096063    3.894630   -0.398849
     84          1           0      -11.606030    3.857760   -2.106932
     85          1           0      -13.183465    3.322946   -1.428193
     86          1           0      -12.632350   -0.967998   -1.418652
     87          1           0      -13.454313    0.725743   -1.766954
     88          1           0      -12.262522    0.927424   -3.844994
     89          1           0      -11.665395   -0.868401   -3.752071
     90          1           0      -13.347376   -0.607091   -3.668412
     91          1           0      -10.269256   -4.389976   -0.914365
     92          1           0       -9.336468   -4.266954   -2.298801
     93          1           0       -8.652998   -5.565114   -0.730510
     94          1           0       -3.662564   -3.265069   -0.099655
     95          1           0       -2.114544   -6.200045    2.384660
     96          1           0       -2.201326   -5.014739    3.403695
     97          1           0       -3.676296   -6.104074    3.194759
     98          1           0        2.636843   -2.604678   -1.116007
     99          1           0        2.246159   -1.041329   -2.037523
    100          1           0        4.145389   -1.611310    0.409110
    101          1           0        5.105230    1.547426   -2.140650
    102          1           0        5.427224    0.262978   -3.288134
    103          1           0        3.497740    0.619048   -2.554579
    104          1           0        6.446112    1.068999   -0.085320
    105          1           0        6.225142   -0.490697    0.619816
    106          1           0        7.180483   -1.536029   -1.020767
    107          1           0        7.526161   -0.007034   -1.924852
    108          1           0        8.781022    0.546462    0.154851
    109          1           0        8.647080   -1.075864    0.647666
    110          1           0        9.957911   -0.339778   -1.879641
    111          1           0        9.413426   -2.559225   -2.370760
    112          1           0       10.847431   -2.279883   -2.253352
    113          1           0       10.025825   -3.069309   -0.631380
    114          1           0       11.073031    0.673815    0.029120
    115          1           0       11.326393   -0.917253    0.745541
    116          1           0       12.833016   -1.452141   -1.076814
    117          1           0       12.803901    0.132395   -1.864308
    118          1           0       13.633682    1.074318    0.426261
    119          1           0       13.648632   -0.491137    1.126927
    120          1           0       15.251484    0.187483   -1.603829
    121          1           0       14.675921   -2.361245   -1.148075
    122          1           0       16.526020   -1.679925   -0.908070
    123          1           0       15.510144   -2.194217    0.408007
    124          1           0       15.758423    1.623180    0.734489
    125          1           0       16.401347    0.008648    1.323633
    126          1           0       18.008144   -0.085577   -0.362188
    127          1           0       17.519327    1.275026   -1.196081
    128          1           0       18.158182    2.727636    1.044866
    129          1           0       18.508636    1.113164    1.694195
    130          1           0       20.440141    0.916497   -0.079705
    131          1           0       19.753976    3.743636   -0.770608
    132          1           0       21.114685    2.765278   -1.385422
    133          1           0       19.553695    2.260012   -2.099370
    134          1           0       20.784704    1.896897    2.323526
    135          1           0       21.938665    2.482131    1.023319
    136          1           0       20.718187    3.408634    1.624359
    137          1           0       -7.119651    1.751763    0.276540
    138          1           0       -7.582892   -0.225087    0.095056
 ---------------------------------------------------------------------

 SCF Done:  E(RB3LYP) =  -2732.96753558     A.U. after   17 cycles

 Excitation energies and oscillator strengths:

 Excited State   1:      Singlet-A      2.0335 eV  609.71 nm  f=0.2881  <S**2>=0.000
     235 -> 237       -0.18923
     235 -> 238        0.22354
     236 -> 237        0.63410
     236 -> 238        0.11012
 This state for optimization and/or second-order correction.
 Total Energy, E(TD-HF/TD-DFT) =  -2732.89280656
 Copying the excited state density for this state as the 1-particle RhoCI density.

 The electronic state is 1-A.
 Alpha  occ. eigenvalues --  -19.17319 -19.16200 -19.13779 -19.12093 -19.10737
 Alpha  occ. eigenvalues --  -14.37711 -14.36839 -14.31634 -14.29863 -10.32016
 Alpha  occ. eigenvalues --  -10.30724 -10.28388 -10.24639 -10.24170 -10.24167
 Alpha  occ. eigenvalues --  -10.23488 -10.23471 -10.23193 -10.22695 -10.22534
 Alpha  occ. eigenvalues --  -10.22481 -10.22292 -10.21850 -10.21603 -10.21470
 Alpha  occ. eigenvalues --  -10.21402 -10.21292 -10.21248 -10.21239 -10.21183
 Alpha  occ. eigenvalues --  -10.21171 -10.21163 -10.21108 -10.21088 -10.21055
 Alpha  occ. eigenvalues --  -10.20141 -10.20070 -10.19952 -10.19887 -10.19771
 Alpha  occ. eigenvalues --  -10.19656 -10.19513 -10.19493 -10.19356 -10.19126
 Alpha  occ. eigenvalues --  -10.18985 -10.18928 -10.18796 -10.18783 -10.18765
 Alpha  occ. eigenvalues --  -10.18642 -10.18562 -10.18535 -10.18467 -10.18319
 Alpha  occ. eigenvalues --  -10.18213 -10.18194 -10.18127 -10.17897 -10.17649
 Alpha  occ. eigenvalues --  -10.17602 -10.17481 -10.17182 -10.16934  -1.10862
 Alpha  occ. eigenvalues --   -1.08265  -1.02125  -1.01413  -0.99393  -0.98188
 Alpha  occ. eigenvalues --   -0.97451  -0.96533  -0.93168  -0.83929  -0.82928
 Alpha  occ. eigenvalues --   -0.82765  -0.81638  -0.81633  -0.81120  -0.80473
 Alpha  occ. eigenvalues --   -0.80298  -0.80098  -0.79206  -0.78922  -0.78639
 Alpha  occ. eigenvalues --   -0.77135  -0.76655  -0.76109  -0.75052  -0.74764
 Alpha  occ. eigenvalues --   -0.74402  -0.73427  -0.72638  -0.71730  -0.71100
 Alpha  occ. eigenvalues --   -0.70621  -0.69957  -0.69504  -0.68349  -0.67616
 Alpha  occ. eigenvalues --   -0.67133  -0.66819  -0.66701  -0.66170  -0.65269
 Alpha  occ. eigenvalues --   -0.65084  -0.63554  -0.63045  -0.62170  -0.61111
 Alpha  occ. eigenvalues --   -0.60649  -0.59267  -0.58856  -0.57900  -0.57507
 Alpha  occ. eigenvalues --   -0.57416  -0.56985  -0.56076  -0.56030  -0.55914
 Alpha  occ. eigenvalues --   -0.55153  -0.54870  -0.54393  -0.53648  -0.53208
 Alpha  occ. eigenvalues --   -0.52914  -0.52342  -0.52001  -0.51747  -0.51232
 Alpha  occ. eigenvalues --   -0.50512  -0.49910  -0.49718  -0.49482  -0.48628
 Alpha  occ. eigenvalues --   -0.48483  -0.48018  -0.47846  -0.47396  -0.47318
 Alpha  occ. eigenvalues --   -0.46795  -0.46635  -0.46084  -0.45922  -0.45730
 Alpha  occ. eigenvalues --   -0.45699  -0.45418  -0.45219  -0.45110  -0.44689
 Alpha  occ. eigenvalues --   -0.44596  -0.44247  -0.44148  -0.44011  -0.43853
 Alpha  occ. eigenvalues --   -0.43656  -0.43452  -0.43343  -0.43176  -0.42797
 Alpha  occ. eigenvalues --   -0.42617  -0.42512  -0.42434  -0.41896  -0.41621
 Alpha  occ. eigenvalues --   -0.41311  -0.41108  -0.41028  -0.40897  -0.40667
 Alpha  occ. eigenvalues --   -0.40012  -0.39740  -0.39460  -0.39414  -0.39353
 Alpha  occ. eigenvalues --   -0.39103  -0.39042  -0.38857  -0.38762  -0.38529
 Alpha  occ. eigenvalues --   -0.38398  -0.37831  -0.37679  -0.37472  -0.37340
 Alpha  occ. eigenvalues --   -0.36998  -0.36639  -0.36606  -0.36557  -0.36136
 Alpha  occ. eigenvalues --   -0.35922  -0.35722  -0.35503  -0.35471  -0.35240
 Alpha  occ. eigenvalues --   -0.35108  -0.34720  -0.34648  -0.34503  -0.34313
 Alpha  occ. eigenvalues --   -0.34080  -0.33867  -0.33746  -0.33535  -0.33432
 Alpha  occ. eigenvalues --   -0.33369  -0.33340  -0.33084  -0.32757  -0.32535
 Alpha  occ. eigenvalues --   -0.32343  -0.31914  -0.31850  -0.31583  -0.31504
 Alpha  occ. eigenvalues --   -0.31357  -0.31111  -0.30941  -0.30023  -0.29540
 Alpha  occ. eigenvalues --   -0.29225  -0.28925  -0.28859  -0.28540  -0.28338
 Alpha  occ. eigenvalues --   -0.27569  -0.26879  -0.26552  -0.26242  -0.26068
 Alpha  occ. eigenvalues --   -0.24696  -0.24295  -0.24218  -0.23625  -0.20542
 Alpha  occ. eigenvalues --   -0.18967
 Alpha virt. eigenvalues --   -0.11040  -0.07607  -0.04572  -0.02633  -0.01800
 Alpha virt. eigenvalues --   -0.00984   0.00224   0.00591   0.02315   0.03276
 Alpha virt. eigenvalues --    0.03385   0.03908   0.04121   0.04393   0.04599

 Mulliken charges:
               1
     1  C   -0.004717
     2  C   -0.079781
     3  C   -0.163172
     4  C   -0.099588
     5  N   -0.227295
     6  C   -0.070573
     7  C   -0.140233
     8  C   -0.040309
     9  C   -0.029830
    10  C    0.163925
    11  C    0.070951
    12  C   -0.012073
    13  C    0.242888
    14  O   -0.203119
    15  O   -0.365887
    16  N   -0.121366
    17  C    0.171352
    18  C   -0.109918
    19  C    0.085205
    20  C    0.082434
    21  C    0.095773
    22  C   -0.094687
    23  C   -0.058720
    24  N   -0.109656
    25  C   -0.006149
    26  C   -0.152758
    27  C   -0.048096
    28  C    0.102338
    29  C    0.112891
    30  C    0.049777
    31  C   -0.038452
    32  N   -0.001820
    33  C   -0.008779
    34  C   -0.083070
    35  C    0.049851
    36  C    0.021702
    37  C   -0.030547
    38  C    0.043144
    39  O   -0.179925
    40  C    0.037323
    41  C    0.194605
    42  O   -0.276076
    43  O   -0.265324
    44  C    0.321033
    45  C    0.242864
    46  C   -0.082118
    47  C   -0.054812
    48  C   -0.034605
    49  C    0.078504
    50  C    0.036956
    51  C    0.118898
    52  C   -0.001711
    53  C   -0.041898
    54  C    0.089381
    55  C    0.033637
    56  C    0.009470
    57  C   -0.080709
    58  C   -0.000504
    59  C    0.012995
    60  C    0.060320
    61  C    0.046033
    62  C   -0.079827
    63  C   -0.011648
    64  C    0.047756
    65  H   -0.015190
    66  H    0.027068
    67  H    0.011783
    68  H    0.060967
    69  H    0.010448
    70  H   -0.010556
    71  H    0.014786
    72  H    0.028328
    73  H    0.005096
    74  H    0.001145
    75  H    0.022125
    76  H    0.052926
    77  H    0.043779
    78  H   -0.050661
    79  H    0.045501
    80  H    0.037183
    81  H    0.071408
    82  H    0.010630
    83  H    0.004287
    84  H    0.026012
    85  H    0.016485
    86  H    0.006768
    87  H    0.009663
    88  H    0.015542
    89  H    0.016107
    90  H    0.004049
    91  H    0.031180
    92  H    0.042599
    93  H    0.079016
    94  H    0.001079
    95  H   -0.081930
    96  H    0.021534
    97  H    0.049413
    98  H    0.014696
    99  H    0.018859
   100  H   -0.006694
   101  H    0.010086
   102  H    0.062350
   103  H    0.046031
   104  H   -0.017169
   105  H   -0.020778
   106  H   -0.006450
   107  H   -0.027543
   108  H   -0.056863
   109  H   -0.017555
   110  H   -0.069656
   111  H    0.002237
   112  H    0.002494
   113  H    0.036048
   114  H   -0.023801
   115  H   -0.009493
   116  H   -0.016223
   117  H   -0.005950
   118  H   -0.020971
   119  H   -0.011855
   120  H    0.006450
   121  H    0.042936
   122  H    0.001515
   123  H   -0.003445
   124  H    0.005983
   125  H   -0.004714
   126  H   -0.025634
   127  H   -0.013987
   128  H   -0.002671
   129  H   -0.006701
   130  H   -0.008238
   131  H    0.009936
   132  H    0.005732
   133  H    0.029315
   134  H    0.007913
   135  H    0.001202
   136  H   -0.045301
   137  H    0.144272
   138  H    0.152813
 Sum of Mulliken charges =  -0.00000

 Dipole moment (field-independent basis, Debye):
    X=              1.9534    Y=              4.9646    Z=              0.4931  Tot=              5.3578
 Quadrupole moment (field-independent basis, Debye-Ang):
   XX=           -344.7982   YY=           -378.7696   ZZ=           -398.1247
   XY=            -29.0567   XZ=              8.9385   YZ=             -0.6868

 Normal termination of Gaussian 16 at Sat Aug 10 15:58:07 2019.
