 Gaussian 16, Revision A.03,
 Gaussian 16:  ES64L-G16RevA.03 25-Dec-2016

 --------------------------
 # td=(NStates=1) B3LYP/SVP
 --------------------------

 --
 TD
 --
 Symbolic Z-matrix:
 Charge =  0 Multiplicity = 1

                         Standard orientation:
 ---------------------------------------------------------------------
 Center     Atomic      Atomic             Coordinates (Angstroms)
 Number     Number       Type             X           Y           Z
 ---------------------------------------------------------------------
      1          6           0       -5.130382   -1.993446    0.307426
      2          6           0       -4.831855    2.809158    1.471968
      3          6           0       -9.291049    3.326537   -0.457968
      4          6           0       -9.783886   -1.448535   -1.106901
      5          7           0       -5.188870    0.364727    0.901800
      6          6           0       -4.430870   -0.830907    0.758511
      7          6           0       -3.112213   -0.583026    1.377114
      8          6           0       -3.103280    0.959092    1.885959
      9          6           0       -4.468805    1.407796    1.358004
     10          6           0       -3.077592    1.055904    3.451602
     11          6           0       -2.011308   -0.798278    0.238765
     12          6           0       -0.556379   -0.765880    0.693485
     13          6           0        0.404822   -0.946738   -0.519017
     14          8           0        0.044704   -1.533096   -1.543422
     15          8           0        1.695900   -0.701164   -0.232577
     16          7           0       -7.145295    2.723937    0.517065
     17          6           0       -6.020087    3.377949    1.058009
     18          6           0       -6.294931    4.762297    1.208478
     19          6           0       -7.607864    4.876166    0.672552
     20          6           0       -8.071972    3.650316    0.146158
     21          6           0       -5.429801    5.810676    1.680278
     22          6           0       -8.228312    6.209402    0.397457
     23          6           0       -9.012669    6.588925   -0.594330
     24          7           0       -9.245744    0.874019   -0.517739
     25          6           0       -9.900689    2.046463   -0.675987
     26          6           0      -11.241278    1.881440   -1.101729
     27          6           0      -11.339827    0.549992   -1.286123
     28          6           0      -10.095647   -0.048284   -0.936575
     29          6           0      -12.335439    2.948435   -1.342068
     30          6           0      -12.628307   -0.168273   -1.756968
     31          6           0      -12.558914   -0.509675   -3.226494
     32          7           0       -7.452270   -1.248223   -0.185698
     33          6           0       -8.616826   -2.022641   -0.644951
     34          6           0       -8.150194   -3.388168   -0.636623
     35          6           0       -6.937906   -3.412420   -0.151767
     36          6           0       -6.424657   -2.018078    0.010572
     37          6           0       -9.017732   -4.532301   -1.031644
     38          6           0       -5.731221   -4.276027   -0.001355
     39          8           0       -5.670577   -5.479032   -0.201339
     40          6           0       -4.493407   -3.426657    0.460858
     41          6           0       -3.922335   -3.846643    1.793681
     42          8           0       -4.147738   -3.273242    2.789675
     43          8           0       -3.126007   -4.861745    1.639999
     44          6           0       -2.548176   -5.471457    2.776983
     45          6           0        2.683259   -0.973667   -1.140661
     46          6           0        3.941134   -0.678615   -0.511924
     47          6           0        4.969714   -0.052592   -1.069530
     48          6           0        4.979775    0.510914   -2.416662
     49          6           0        6.308675    0.247033   -0.357222
     50          6           0        7.525606   -0.422748   -0.958857
     51          6           0        8.779477   -0.223191   -0.090129
     52          6           0       10.053794   -0.743777   -0.677496
     53          6           0       10.079883   -2.324934   -0.791720
     54          6           0       11.317400   -0.256398    0.060379
     55          6           0       12.677748   -0.608028   -0.595647
     56          6           0       13.836754    0.074234    0.214136
     57          6           0       15.275794   -0.254789   -0.414053
     58          6           0       15.718370   -1.721051   -0.184875
     59          6           0       16.261761    0.785886    0.366523
     60          6           0       17.668769    0.630582   -0.085741
     61          6           0       18.628003    1.747924    0.457497
     62          6           0       20.032547    1.701531   -0.037984
     63          6           0       20.266457    2.207644   -1.522165
     64          6           0       20.981919    2.587287    0.876382
     65          1           0       -4.094861    3.394998    1.970673
     66          1           0      -10.070075    4.205134   -0.541324
     67          1           0      -10.498679   -2.258536   -1.269224
     68          1           0       -2.880973   -1.100995    2.210778
     69          1           0       -2.381044    1.552502    1.533071
     70          1           0       -2.168475    0.605348    3.724170
     71          1           0       -3.171704    2.050922    3.915921
     72          1           0       -3.798637    0.406075    3.958883
     73          1           0       -2.148157   -1.784479   -0.309958
     74          1           0       -2.079324   -0.000270   -0.500013
     75          1           0       -0.130478    0.235023    1.139446
     76          1           0       -0.312954   -1.378129    1.528924
     77          1           0       -4.537457    6.202566    1.094709
     78          1           0       -5.833363    6.754640    1.979265
     79          1           0       -5.061919    5.360417    2.582719
     80          1           0       -7.972247    6.950603    1.296560
     81          1           0       -9.246964    6.019384   -1.501438
     82          1           0       -9.536914    7.548596   -0.549868
     83          1           0      -12.843080    3.421833   -0.514618
     84          1           0      -11.973106    3.777655   -1.907661
     85          1           0      -13.171371    2.459705   -1.984560
     86          1           0      -12.485056   -1.255053   -1.140605
     87          1           0      -13.724551    0.236534   -1.524586
     88          1           0      -12.795261    0.405904   -3.833152
     89          1           0      -11.438703   -0.816685   -3.636761
     90          1           0      -13.391734   -1.119451   -3.789294
     91          1           0       -9.838054   -4.638018   -0.374519
     92          1           0       -9.291834   -4.573211   -2.136218
     93          1           0       -8.341834   -5.280437   -1.026283
     94          1           0       -3.598470   -3.571673   -0.328993
     95          1           0       -1.916694   -6.322766    2.291742
     96          1           0       -1.714603   -4.720731    3.322452
     97          1           0       -3.363565   -5.662120    3.692523
     98          1           0        2.450701   -2.154571   -1.383604
     99          1           0        2.545159   -0.422586   -2.056705
    100          1           0        4.085067   -0.922571    0.568232
    101          1           0        5.378476    1.541185   -2.317243
    102          1           0        5.740929    0.023828   -3.232394
    103          1           0        3.929737    0.579635   -2.750799
    104          1           0        6.421114    1.397579   -0.346210
    105          1           0        6.194564    0.038808    0.690049
    106          1           0        7.482570   -1.554993   -1.036962
    107          1           0        7.915923   -0.069084   -2.055400
    108          1           0        8.810699    0.848314   -0.003411
    109          1           0        8.530558   -0.557635    0.926302
    110          1           0       10.364279   -0.552924   -1.804310
    111          1           0        9.194573   -2.682641   -1.485986
    112          1           0       10.993401   -2.815135   -1.306572
    113          1           0       10.156915   -2.831235    0.247330
    114          1           0       11.191025    0.714467    0.134401
    115          1           0       11.323624   -0.696203    1.026580
    116          1           0       12.900139   -1.621496   -0.745142
    117          1           0       12.511345   -0.177024   -1.855662
    118          1           0       13.800191    1.116674    0.434671
    119          1           0       13.742204   -0.327064    1.157018
    120          1           0       15.168913   -0.090353   -1.569744
    121          1           0       14.868494   -2.458639   -0.536466
    122          1           0       16.569416   -1.901414   -0.568486
    123          1           0       15.923100   -1.998845    0.859040
    124          1           0       15.702018    1.779735   -0.067486
    125          1           0       16.059057    0.606895    1.470188
    126          1           0       17.978575   -0.407440    0.181497
    127          1           0       17.739647    0.627545   -1.271148
    128          1           0       18.227900    2.767364    0.121665
    129          1           0       18.882726    1.698154    1.708293
    130          1           0       20.442574    0.791390    0.039525
    131          1           0       19.905185    3.109115   -1.456492
    132          1           0       21.374865    2.010998   -1.733389
    133          1           0       19.797548    1.578791   -2.172195
    134          1           0       20.882246    1.964228    1.832631
    135          1           0       22.080626    2.541238    0.623433
    136          1           0       20.463034    3.563375    1.085388
    137          1           0       -7.299579    1.805699    0.450274
    138          1           0       -7.677517   -0.221611   -0.185818
 ---------------------------------------------------------------------

 SCF Done:  E(RB3LYP) =  -2733.09394701     A.U. after   17 cycles

 Excitation energies and oscillator strengths:

 Excited State   1:      Singlet-A      2.0601 eV  601.85 nm  f=0.1210  <S**2>=0.000
     235 -> 237        0.14237
     235 -> 238       -0.30623
     236 -> 237        0.59751
     236 -> 238        0.16210
 This state for optimization and/or second-order correction.
 Total Energy, E(TD-HF/TD-DFT) =  -2733.01824126
 Copying the excited state density for this state as the 1-particle RhoCI density.

 The electronic state is 1-A.
 Alpha  occ. eigenvalues --  -19.19139 -19.18265 -19.12696 -19.12607 -19.12207
 Alpha  occ. eigenvalues --  -14.36554 -14.35816 -14.31642 -14.29599 -10.32135
 Alpha  occ. eigenvalues --  -10.31738 -10.28192 -10.28137 -10.25247 -10.23737
 Alpha  occ. eigenvalues --  -10.23547 -10.23360 -10.22963 -10.22830 -10.22729
 Alpha  occ. eigenvalues --  -10.22222 -10.21282 -10.21190 -10.21080 -10.20730
 Alpha  occ. eigenvalues --  -10.20667 -10.20633 -10.20450 -10.20393 -10.20309
 Alpha  occ. eigenvalues --  -10.20212 -10.20137 -10.20121 -10.20059 -10.20012
 Alpha  occ. eigenvalues --  -10.19990 -10.19960 -10.19957 -10.19868 -10.19841
 Alpha  occ. eigenvalues --  -10.19798 -10.19772 -10.19644 -10.19643 -10.19632
 Alpha  occ. eigenvalues --  -10.19591 -10.19581 -10.19520 -10.19233 -10.19090
 Alpha  occ. eigenvalues --  -10.18878 -10.18768 -10.18524 -10.18483 -10.18479
 Alpha  occ. eigenvalues --  -10.18317 -10.18281 -10.17733 -10.17666 -10.17546
 Alpha  occ. eigenvalues --  -10.17472 -10.17242 -10.16741 -10.16074  -1.12671
 Alpha  occ. eigenvalues --   -1.10837  -1.03437  -1.02354  -1.00595  -0.98061
 Alpha  occ. eigenvalues --   -0.97853  -0.95091  -0.92459  -0.84232  -0.83394
 Alpha  occ. eigenvalues --   -0.82293  -0.81886  -0.81704  -0.81023  -0.80492
 Alpha  occ. eigenvalues --   -0.79999  -0.79428  -0.78888  -0.78503  -0.77870
 Alpha  occ. eigenvalues --   -0.77079  -0.76135  -0.75801  -0.74930  -0.74051
 Alpha  occ. eigenvalues --   -0.73793  -0.73324  -0.72426  -0.72057  -0.71559
 Alpha  occ. eigenvalues --   -0.70889  -0.69214  -0.68765  -0.68144  -0.67908
 Alpha  occ. eigenvalues --   -0.67822  -0.67256  -0.66432  -0.65755  -0.65436
 Alpha  occ. eigenvalues --   -0.64958  -0.62574  -0.62210  -0.61631  -0.61239
 Alpha  occ. eigenvalues --   -0.60038  -0.59511  -0.58728  -0.57652  -0.57386
 Alpha  occ. eigenvalues --   -0.57167  -0.56910  -0.56722  -0.55881  -0.55466
 Alpha  occ. eigenvalues --   -0.55295  -0.54675  -0.54512  -0.53363  -0.53142
 Alpha  occ. eigenvalues --   -0.53070  -0.52118  -0.51503  -0.51083  -0.50933
 Alpha  occ. eigenvalues --   -0.50282  -0.49881  -0.49268  -0.49101  -0.48198
 Alpha  occ. eigenvalues --   -0.48163  -0.47905  -0.47386  -0.47004  -0.46868
 Alpha  occ. eigenvalues --   -0.46712  -0.46572  -0.46446  -0.46060  -0.45739
 Alpha  occ. eigenvalues --   -0.45632  -0.45408  -0.45270  -0.44933  -0.44748
 Alpha  occ. eigenvalues --   -0.44598  -0.44279  -0.43817  -0.43760  -0.43654
 Alpha  occ. eigenvalues --   -0.43354  -0.42988  -0.42842  -0.42760  -0.42572
 Alpha  occ. eigenvalues --   -0.42487  -0.42313  -0.42043  -0.41761  -0.41455
 Alpha  occ. eigenvalues --   -0.41351  -0.40808  -0.40708  -0.40695  -0.40267
 Alpha  occ. eigenvalues --   -0.40172  -0.40066  -0.39859  -0.39743  -0.39539
 Alpha  occ. eigenvalues --   -0.39229  -0.38967  -0.38857  -0.38835  -0.38462
 Alpha  occ. eigenvalues --   -0.38183  -0.38120  -0.38055  -0.37633  -0.37523
 Alpha  occ. eigenvalues --   -0.37453  -0.37300  -0.37227  -0.36861  -0.36789
 Alpha  occ. eigenvalues --   -0.36620  -0.36461  -0.36390  -0.36188  -0.36122
 Alpha  occ. eigenvalues --   -0.35985  -0.35962  -0.35785  -0.35179  -0.35165
 Alpha  occ. eigenvalues --   -0.34608  -0.34379  -0.33923  -0.33788  -0.33578
 Alpha  occ. eigenvalues --   -0.33552  -0.33140  -0.32612  -0.32302  -0.32199
 Alpha  occ. eigenvalues --   -0.32016  -0.32006  -0.31624  -0.31580  -0.31005
 Alpha  occ. eigenvalues --   -0.30620  -0.30490  -0.30317  -0.30300  -0.29974
 Alpha  occ. eigenvalues --   -0.29797  -0.29608  -0.28764  -0.28138  -0.28054
 Alpha  occ. eigenvalues --   -0.27850  -0.27446  -0.27398  -0.26134  -0.25243
 Alpha  occ. eigenvalues --   -0.24980  -0.24715  -0.23587  -0.22906  -0.20192
 Alpha  occ. eigenvalues --   -0.18336
 Alpha virt. eigenvalues --   -0.09535  -0.08319  -0.04526  -0.01256  -0.01119
 Alpha virt. eigenvalues --   -0.00219   0.00396   0.01028   0.01943   0.03667
 Alpha virt. eigenvalues --    0.03741   0.04088   0.04351   0.04604   0.04930

 Mulliken charges:
               1
     1  C   -0.075291
     2  C   -0.086694
     3  C   -0.102452
     4  C   -0.045795
     5  N   -0.208668
     6  C   -0.024906
     7  C    0.083669
     8  C   -0.012409
     9  C   -0.019727
    10  C    0.065852
    11  C    0.017153
    12  C    0.011239
    13  C    0.184848
    14  O   -0.258132
    15  O   -0.277145
    16  N   -0.010355
    17  C    0.181136
    18  C   -0.093633
    19  C    0.002598
    20  C    0.069908
    21  C    0.098395
    22  C   -0.047961
    23  C   -0.039726
    24  N   -0.212290
    25  C    0.006003
    26  C   -0.101058
    27  C   -0.075991
    28  C    0.060605
    29  C    0.098539
    30  C   -0.000284
    31  C   -0.058656
    32  N   -0.041576
    33  C    0.031182
    34  C   -0.187192
    35  C   -0.010722
    36  C    0.166919
    37  C    0.180774
    38  C    0.080001
    39  O   -0.174726
    40  C   -0.083974
    41  C    0.183130
    42  O   -0.184155
    43  O   -0.241112
    44  C    0.072019
    45  C    0.256987
    46  C   -0.061571
    47  C   -0.159379
    48  C    0.060109
    49  C    0.092289
    50  C   -0.046477
    51  C    0.088020
    52  C   -0.097904
    53  C   -0.069054
    54  C    0.150361
    55  C   -0.024918
    56  C    0.106299
    57  C   -0.148558
    58  C    0.090739
    59  C   -0.015526
    60  C    0.022083
    61  C   -0.004708
    62  C   -0.087136
    63  C    0.124867
    64  C   -0.010918
    65  H   -0.042439
    66  H    0.013585
    67  H   -0.005935
    68  H   -0.034569
    69  H   -0.044331
    70  H   -0.008536
    71  H    0.018215
    72  H    0.019743
    73  H    0.040568
    74  H    0.010215
    75  H    0.021404
    76  H    0.020275
    77  H    0.038921
    78  H   -0.006558
    79  H    0.015292
    80  H    0.024174
    81  H    0.030193
    82  H    0.019658
    83  H    0.018399
    84  H    0.004307
    85  H    0.016804
    86  H    0.016287
    87  H    0.038488
    88  H   -0.002442
    89  H    0.040522
    90  H    0.020287
    91  H    0.033282
    92  H    0.026175
    93  H   -0.016307
    94  H    0.085759
    95  H    0.069893
    96  H    0.040939
    97  H    0.076398
    98  H    0.034293
    99  H    0.001921
   100  H   -0.014704
   101  H    0.006869
   102  H    0.055075
   103  H    0.002795
   104  H    0.013011
   105  H   -0.025027
   106  H    0.013590
   107  H    0.018108
   108  H   -0.025072
   109  H   -0.007172
   110  H    0.005890
   111  H    0.029840
   112  H    0.018963
   113  H    0.012226
   114  H   -0.051679
   115  H   -0.025789
   116  H   -0.009716
   117  H   -0.008167
   118  H   -0.023996
   119  H   -0.038931
   120  H    0.015205
   121  H    0.016965
   122  H   -0.042361
   123  H   -0.009249
   124  H    0.022934
   125  H    0.018776
   126  H    0.000722
   127  H    0.013111
   128  H    0.004893
   129  H    0.012304
   130  H   -0.048790
   131  H   -0.030111
   132  H    0.008526
   133  H   -0.022992
   134  H    0.003008
   135  H    0.023511
   136  H    0.019222
   137  H    0.071531
   138  H    0.156857
 Sum of Mulliken charges =  -0.00000

 Dipole moment (field-independent basis, Debye):
    X=              4.0709    Y=              3.1668    Z=              2.2070  Tot=              5.6099
 Quadrupole moment (field-independent basis, Debye-Ang):
   XX=           -366.3936   YY=           -384.6955   ZZ=           -393.3584
   XY=            -27.8692   XZ=              8.4784   YZ=             -3.7697

 Normal termination of Gaussian 16 at Sat Aug 17 21:43:58 2019.
