 Gaussian 16, Revision A.03,
 Gaussian 16:  ES64L-G16RevA.03 25-Dec-2016

 --------------------------
 # td=(NStates=1) B3LYP/SVP
 --------------------------

 --
 TD
 --
 Symbolic Z-matrix:
 Charge =  0 Multiplicity = 1

                         Standard orientation:
 ---------------------------------------------------------------------
 Center     Atomic      Atomic             Coordinates (Angstroms)
 Number     Number       Type             X           Y           Z
 ---------------------------------------------------------------------
      1          6           0       -5.105115   -1.938200    0.569305
      2          6           0       -4.707620    2.709088    1.310285
      3          6           0       -9.477244    3.380718   -0.099603
      4          6           0       -9.875898   -1.519485   -0.844477
      5          7           0       -5.152579    0.406483    0.623103
      6          6           0       -4.430139   -0.785250    0.767040
      7          6           0       -3.010203   -0.596385    1.196372
      8          6           0       -3.080325    0.879889    1.731061
      9          6           0       -4.381272    1.395874    1.191211
     10          6           0       -2.803794    1.108530    3.210030
     11          6           0       -2.011701   -0.862774    0.133562
     12          6           0       -0.539260   -0.699755    0.531501
     13          6           0        0.477441   -1.014624   -0.520858
     14          8           0        0.147252   -1.858811   -1.516142
     15          8           0        1.623062   -0.528790   -0.279852
     16          7           0       -7.092813    2.733087    0.365441
     17          6           0       -5.933864    3.355490    0.846458
     18          6           0       -6.150798    4.751593    0.879526
     19          6           0       -7.607762    4.942569    0.495297
     20          6           0       -8.122511    3.638845    0.155684
     21          6           0       -5.182055    5.892645    1.190898
     22          6           0       -8.253819    6.231155    0.440160
     23          6           0       -9.177934    6.528941   -0.526721
     24          7           0       -9.303984    0.843370   -0.444311
     25          6           0       -9.905053    2.037833   -0.410194
     26          6           0      -11.359906    1.818336   -0.771878
     27          6           0      -11.581838    0.460522   -0.917505
     28          6           0      -10.171209   -0.147262   -0.873259
     29          6           0      -12.437049    2.881037   -0.889009
     30          6           0      -12.794048   -0.329006   -1.278379
     31          6           0      -12.922743   -0.830644   -2.855199
     32          7           0       -7.549204   -1.196164   -0.086561
     33          6           0       -8.574443   -2.053854   -0.506674
     34          6           0       -8.225992   -3.356372   -0.532847
     35          6           0       -6.886692   -3.387466   -0.059910
     36          6           0       -6.453658   -2.102936    0.109565
     37          6           0       -9.104442   -4.579548   -0.720579
     38          6           0       -5.835621   -4.305064    0.079008
     39          8           0       -5.803649   -5.505389    0.127864
     40          6           0       -4.557959   -3.304950    0.401759
     41          6           0       -3.642778   -3.783992    1.639242
     42          8           0       -3.928002   -3.460362    2.813605
     43          8           0       -2.832300   -4.845637    1.259472
     44          6           0       -2.187332   -5.407144    2.337533
     45          6           0        2.819196   -0.928120   -1.186523
     46          6           0        4.091921   -0.454837   -0.661405
     47          6           0        4.919582    0.381167   -1.250270
     48          6           0        4.815493    1.185151   -2.461428
     49          6           0        6.307014    0.533577   -0.562498
     50          6           0        7.467530   -0.146414   -1.263112
     51          6           0        8.781440   -0.118213   -0.415727
     52          6           0        9.995613   -0.596943   -1.015221
     53          6           0        9.918602   -2.055308   -1.411375
     54          6           0       11.286035   -0.328140   -0.049591
     55          6           0       12.649651   -0.558106   -0.791224
     56          6           0       13.834153   -0.131566    0.188992
     57          6           0       15.252400   -0.243056   -0.376707
     58          6           0       15.671740   -1.687587   -0.400725
     59          6           0       16.253259    0.590201    0.457127
     60          6           0       17.636887    0.727437   -0.087732
     61          6           0       18.484845    1.573091    0.845955
     62          6           0       20.057872    1.466869    0.493844
     63          6           0       20.393111    2.058930   -0.988244
     64          6           0       21.048165    2.030680    1.551405
     65          1           0       -3.905572    3.302526    1.645590
     66          1           0      -10.050620    4.299290   -0.427139
     67          1           0      -10.650948   -2.291448   -0.894174
     68          1           0       -3.009179   -1.249258    2.010536
     69          1           0       -2.172980    1.423761    1.254486
     70          1           0       -1.750986    0.947881    3.404712
     71          1           0       -3.048734    2.247419    3.238784
     72          1           0       -3.374650    0.316827    3.641989
     73          1           0       -2.084268   -1.879247   -0.165185
     74          1           0       -2.095882   -0.108883   -0.686717
     75          1           0       -0.449830    0.306939    0.971867
     76          1           0       -0.312172   -1.413870    1.334580
     77          1           0       -4.387691    5.799771    0.642242
     78          1           0       -5.646677    6.893868    1.029876
     79          1           0       -4.844980    5.659537    2.334077
     80          1           0       -7.688413    7.187664    0.927642
     81          1           0       -9.361662    5.821542   -1.383758
     82          1           0       -9.756525    7.458946   -0.607678
     83          1           0      -12.304005    3.613218   -0.030949
     84          1           0      -12.059247    3.591286   -1.775979
     85          1           0      -13.377386    2.282345   -1.098735
     86          1           0      -12.679451   -1.384955   -0.831291
     87          1           0      -13.752888    0.214509   -1.037049
     88          1           0      -12.827957    0.246460   -3.371754
     89          1           0      -12.328742   -1.608140   -3.229870
     90          1           0      -13.990917   -1.022042   -3.111096
     91          1           0       -9.726339   -4.881803    0.133756
     92          1           0       -9.964516   -4.500781   -1.531777
     93          1           0       -8.267507   -5.458151   -0.765646
     94          1           0       -4.074608   -3.695416   -0.598539
     95          1           0       -1.530277   -6.255132    1.974950
     96          1           0       -1.555750   -4.609895    3.115468
     97          1           0       -2.772763   -6.035397    2.874805
     98          1           0        2.673248   -2.004562   -1.420529
     99          1           0        2.670060   -0.480971   -2.130655
    100          1           0        4.188826   -0.851546    0.390843
    101          1           0        5.083869    2.208286   -2.410252
    102          1           0        5.138257    0.695559   -3.412715
    103          1           0        3.718528    1.252164   -2.834972
    104          1           0        6.607010    1.605642   -0.584973
    105          1           0        6.253503    0.126982    0.472551
    106          1           0        7.216776   -1.144691   -1.448494
    107          1           0        7.637043    0.412693   -2.090241
    108          1           0        8.993059    1.058016   -0.146413
    109          1           0        8.611085   -0.695717    0.605839
    110          1           0       10.290783   -0.002286   -2.032449
    111          1           0        9.078147   -2.306847   -2.102636
    112          1           0       10.746912   -2.475014   -1.845959
    113          1           0        9.748907   -2.609184   -0.481597
    114          1           0       11.208483    0.870902    0.164965
    115          1           0       11.105266   -0.904637    0.895075
    116          1           0       12.687527   -1.687636   -1.306479
    117          1           0       12.628871    0.063284   -1.634193
    118          1           0       13.612786    0.923151    0.505775
    119          1           0       13.665818   -0.925162    1.140372
    120          1           0       15.244854    0.452888   -1.499911
    121          1           0       15.237261   -2.565535   -1.035604
    122          1           0       16.858010   -2.005784   -0.894570
    123          1           0       15.714938   -2.220037    0.657184
    124          1           0       15.874458    1.577383    0.483665
    125          1           0       15.949818    0.044436    1.541639
    126          1           0       18.290911   -0.238156   -0.141040
    127          1           0       17.713454    1.084129   -1.144937
    128          1           0       18.257684    2.766464    0.600152
    129          1           0       18.260908    1.245371    1.772536
    130          1           0       20.162752    0.453627    0.499283
    131          1           0       20.241214    3.230675   -1.090708
    132          1           0       21.574832    2.029687   -1.199679
    133          1           0       19.759218    1.717996   -1.717551
    134          1           0       20.888046    1.641758    2.552900
    135          1           0       22.070332    1.829097    1.171086
    136          1           0       20.912321    3.306310    1.857914
    137          1           0       -7.152540    1.738755    0.104167
    138          1           0       -7.599202   -0.195367   -0.384346
 ---------------------------------------------------------------------

 SCF Done:  E(RB3LYP) =  -2733.01784155     A.U. after   17 cycles

 Excitation energies and oscillator strengths:

 Excited State   1:      Singlet-A      1.9611 eV  632.22 nm  f=0.2272  <S**2>=0.000
     235 -> 237       -0.41233
     235 -> 238        0.18777
     236 -> 237        0.50515
     236 -> 238        0.19252
 This state for optimization and/or second-order correction.
 Total Energy, E(TD-HF/TD-DFT) =  -2732.94577278
 Copying the excited state density for this state as the 1-particle RhoCI density.

 The electronic state is 1-A.
 Alpha  occ. eigenvalues --  -19.19482 -19.18624 -19.13010 -19.12215 -19.09941
 Alpha  occ. eigenvalues --  -14.37276 -14.36108 -14.32144 -14.30930 -10.32285
 Alpha  occ. eigenvalues --  -10.31320 -10.27362 -10.25532 -10.24953 -10.24296
 Alpha  occ. eigenvalues --  -10.24237 -10.23299 -10.22726 -10.22330 -10.22308
 Alpha  occ. eigenvalues --  -10.22266 -10.22262 -10.22209 -10.21689 -10.21676
 Alpha  occ. eigenvalues --  -10.21520 -10.21492 -10.21331 -10.21172 -10.21125
 Alpha  occ. eigenvalues --  -10.20947 -10.20919 -10.20866 -10.20744 -10.20729
 Alpha  occ. eigenvalues --  -10.20701 -10.20679 -10.20600 -10.20387 -10.20379
 Alpha  occ. eigenvalues --  -10.20182 -10.20004 -10.19983 -10.19960 -10.19863
 Alpha  occ. eigenvalues --  -10.19765 -10.19713 -10.19627 -10.19580 -10.19531
 Alpha  occ. eigenvalues --  -10.19486 -10.19431 -10.19414 -10.19359 -10.19114
 Alpha  occ. eigenvalues --  -10.18932 -10.18848 -10.18828 -10.18787 -10.18596
 Alpha  occ. eigenvalues --  -10.18519 -10.18094 -10.17940 -10.17315  -1.09814
 Alpha  occ. eigenvalues --   -1.08895  -1.03184  -0.99710  -0.97149  -0.96693
 Alpha  occ. eigenvalues --   -0.93441  -0.93311  -0.92891  -0.84968  -0.84353
 Alpha  occ. eigenvalues --   -0.82144  -0.81698  -0.81537  -0.81195  -0.80982
 Alpha  occ. eigenvalues --   -0.79947  -0.79072  -0.79006  -0.78400  -0.78166
 Alpha  occ. eigenvalues --   -0.77051  -0.76088  -0.75298  -0.74881  -0.74261
 Alpha  occ. eigenvalues --   -0.73825  -0.72569  -0.72437  -0.72236  -0.71004
 Alpha  occ. eigenvalues --   -0.70768  -0.69033  -0.68350  -0.68169  -0.67222
 Alpha  occ. eigenvalues --   -0.66707  -0.66554  -0.66511  -0.66208  -0.65313
 Alpha  occ. eigenvalues --   -0.63485  -0.63144  -0.62519  -0.61602  -0.61315
 Alpha  occ. eigenvalues --   -0.60936  -0.59115  -0.58395  -0.58061  -0.56997
 Alpha  occ. eigenvalues --   -0.56769  -0.56576  -0.55981  -0.55846  -0.55067
 Alpha  occ. eigenvalues --   -0.54944  -0.54329  -0.54060  -0.53366  -0.53243
 Alpha  occ. eigenvalues --   -0.52227  -0.51969  -0.51205  -0.50493  -0.50174
 Alpha  occ. eigenvalues --   -0.49867  -0.49286  -0.49059  -0.48564  -0.48224
 Alpha  occ. eigenvalues --   -0.48012  -0.47937  -0.47688  -0.47272  -0.47186
 Alpha  occ. eigenvalues --   -0.46572  -0.46489  -0.46064  -0.45797  -0.45731
 Alpha  occ. eigenvalues --   -0.45402  -0.45176  -0.45036  -0.44774  -0.44591
 Alpha  occ. eigenvalues --   -0.44475  -0.44385  -0.44338  -0.44143  -0.43841
 Alpha  occ. eigenvalues --   -0.43609  -0.43589  -0.43374  -0.43056  -0.43004
 Alpha  occ. eigenvalues --   -0.42555  -0.42182  -0.41704  -0.41658  -0.41579
 Alpha  occ. eigenvalues --   -0.41475  -0.41154  -0.40915  -0.40695  -0.40659
 Alpha  occ. eigenvalues --   -0.40197  -0.39943  -0.39563  -0.39398  -0.39328
 Alpha  occ. eigenvalues --   -0.39091  -0.38919  -0.38742  -0.38526  -0.38285
 Alpha  occ. eigenvalues --   -0.38088  -0.37699  -0.37626  -0.37580  -0.37320
 Alpha  occ. eigenvalues --   -0.37220  -0.37060  -0.36847  -0.36773  -0.36495
 Alpha  occ. eigenvalues --   -0.36264  -0.36143  -0.35992  -0.35866  -0.35773
 Alpha  occ. eigenvalues --   -0.35699  -0.35398  -0.35307  -0.35171  -0.34719
 Alpha  occ. eigenvalues --   -0.34504  -0.34317  -0.34211  -0.33669  -0.33604
 Alpha  occ. eigenvalues --   -0.33200  -0.33067  -0.32758  -0.32403  -0.32144
 Alpha  occ. eigenvalues --   -0.31895  -0.31876  -0.31637  -0.31578  -0.31386
 Alpha  occ. eigenvalues --   -0.31211  -0.31017  -0.30302  -0.30034  -0.29731
 Alpha  occ. eigenvalues --   -0.29602  -0.28369  -0.28263  -0.28124  -0.27693
 Alpha  occ. eigenvalues --   -0.27229  -0.27085  -0.26496  -0.26043  -0.25655
 Alpha  occ. eigenvalues --   -0.24790  -0.24280  -0.23030  -0.22322  -0.20050
 Alpha  occ. eigenvalues --   -0.19337
 Alpha virt. eigenvalues --   -0.11605  -0.07615  -0.04587  -0.03159  -0.02332
 Alpha virt. eigenvalues --   -0.02181  -0.00302   0.00168   0.02052   0.03222
 Alpha virt. eigenvalues --    0.03453   0.03594   0.03712   0.04084   0.04489

 Mulliken charges:
               1
     1  C    0.106504
     2  C   -0.068074
     3  C   -0.095509
     4  C   -0.056437
     5  N   -0.215143
     6  C   -0.120028
     7  C    0.081161
     8  C   -0.142740
     9  C    0.053246
    10  C    0.105884
    11  C    0.114682
    12  C    0.043413
    13  C    0.197446
    14  O   -0.378914
    15  O   -0.266704
    16  N   -0.101037
    17  C    0.143380
    18  C   -0.175962
    19  C    0.000277
    20  C    0.089157
    21  C    0.155249
    22  C   -0.064850
    23  C   -0.085259
    24  N   -0.249442
    25  C    0.097204
    26  C   -0.181412
    27  C   -0.067475
    28  C    0.087010
    29  C    0.073880
    30  C    0.007959
    31  C   -0.036611
    32  N   -0.097360
    33  C    0.059000
    34  C   -0.100550
    35  C    0.007446
    36  C    0.083431
    37  C    0.005166
    38  C    0.038241
    39  O   -0.156954
    40  C   -0.152656
    41  C    0.249372
    42  O   -0.256391
    43  O   -0.272267
    44  C    0.167148
    45  C    0.292434
    46  C   -0.110658
    47  C   -0.077700
    48  C    0.070362
    49  C    0.042423
    50  C    0.129197
    51  C   -0.035659
    52  C   -0.100908
    53  C    0.081883
    54  C   -0.041295
    55  C    0.032639
    56  C   -0.009725
    57  C   -0.066122
    58  C   -0.076206
    59  C    0.034671
    60  C    0.011448
    61  C    0.030600
    62  C   -0.043034
    63  C   -0.020526
    64  C   -0.010606
    65  H   -0.043667
    66  H    0.006978
    67  H   -0.012309
    68  H   -0.022404
    69  H   -0.000841
    70  H    0.005582
    71  H    0.020497
    72  H    0.029959
    73  H    0.012719
    74  H    0.005819
    75  H    0.006383
    76  H    0.021859
    77  H   -0.015446
    78  H    0.023744
    79  H    0.045649
    80  H    0.044677
    81  H    0.055100
    82  H    0.035244
    83  H    0.036132
    84  H    0.027830
    85  H    0.034298
    86  H    0.020228
    87  H    0.021498
    88  H    0.020238
    89  H    0.026512
    90  H    0.013477
    91  H    0.034346
    92  H    0.036025
    93  H    0.069399
    94  H    0.074638
    95  H    0.015581
    96  H    0.049312
    97  H   -0.002883
    98  H    0.047110
    99  H   -0.011232
   100  H    0.011435
   101  H    0.026293
   102  H    0.038974
   103  H    0.005404
   104  H   -0.008638
   105  H   -0.002324
   106  H   -0.015140
   107  H   -0.034943
   108  H    0.002780
   109  H    0.006804
   110  H   -0.003843
   111  H    0.008991
   112  H   -0.020387
   113  H   -0.013547
   114  H    0.013776
   115  H    0.010843
   116  H    0.026158
   117  H   -0.022081
   118  H    0.006768
   119  H    0.020318
   120  H    0.008097
   121  H    0.029542
   122  H    0.013202
   123  H    0.027365
   124  H   -0.016696
   125  H    0.016511
   126  H    0.001282
   127  H    0.005093
   128  H    0.012188
   129  H   -0.027226
   130  H   -0.023742
   131  H    0.012121
   132  H    0.028222
   133  H   -0.002009
   134  H    0.008342
   135  H    0.024209
   136  H    0.014067
   137  H    0.151289
   138  H    0.170754
 Sum of Mulliken charges =  -0.00000

 Dipole moment (field-independent basis, Debye):
    X=              3.9553    Y=              5.8604    Z=             -1.1643  Tot=              7.1655
 Quadrupole moment (field-independent basis, Debye-Ang):
   XX=           -359.3672   YY=           -383.7797   ZZ=           -401.0794
   XY=            -34.0576   XZ=             10.1514   YZ=             -5.7147

 Normal termination of Gaussian 16 at Wed Aug 21 14:11:16 2019.
