 Gaussian 16, Revision A.03,
 Gaussian 16:  ES64L-G16RevA.03 25-Dec-2016

 --------------------------
 # td=(NStates=1) B3LYP/SVP
 --------------------------

 --
 TD
 --
 Symbolic Z-matrix:
 Charge =  0 Multiplicity = 1

                         Standard orientation:
 ---------------------------------------------------------------------
 Center     Atomic      Atomic             Coordinates (Angstroms)
 Number     Number       Type             X           Y           Z
 ---------------------------------------------------------------------
      1          6           0       -5.068982   -1.986752    0.473658
      2          6           0       -4.701221    2.672971    1.532250
      3          6           0       -9.239665    3.342720   -0.427271
      4          6           0       -9.762434   -1.442469   -1.209572
      5          7           0       -5.181942    0.392532    0.909354
      6          6           0       -4.525723   -0.726951    0.807416
      7          6           0       -3.105270   -0.644717    1.293068
      8          6           0       -3.102786    0.845810    1.922660
      9          6           0       -4.326135    1.353583    1.414789
     10          6           0       -2.905532    0.928836    3.506623
     11          6           0       -2.061890   -0.749889    0.191141
     12          6           0       -0.599478   -0.804616    0.740646
     13          6           0        0.395451   -1.030727   -0.438867
     14          8           0        0.101241   -1.290058   -1.594077
     15          8           0        1.574794   -0.742038   -0.092610
     16          7           0       -7.007901    2.746508    0.405240
     17          6           0       -5.951116    3.351980    1.106416
     18          6           0       -6.203533    4.759433    1.076381
     19          6           0       -7.548445    4.984755    0.600163
     20          6           0       -7.966492    3.657564    0.212608
     21          6           0       -5.220200    5.796208    1.645609
     22          6           0       -8.306900    6.254619    0.575026
     23          6           0       -9.284962    6.552589   -0.332222
     24          7           0       -9.198025    0.866919   -0.486121
     25          6           0       -9.909363    2.011496   -0.552513
     26          6           0      -11.269780    1.922727   -1.050080
     27          6           0      -11.320996    0.600597   -1.449651
     28          6           0      -10.050137   -0.013317   -1.022968
     29          6           0      -12.272914    2.967560   -1.233010
     30          6           0      -12.560981   -0.219216   -1.804583
     31          6           0      -12.763464   -0.341725   -3.348684
     32          7           0       -7.396168   -1.255930   -0.212877
     33          6           0       -8.512557   -1.985771   -0.776557
     34          6           0       -8.071951   -3.392309   -0.785864
     35          6           0       -6.798210   -3.496069   -0.279957
     36          6           0       -6.375618   -2.099843    0.005916
     37          6           0       -8.983006   -4.530384   -1.352548
     38          6           0       -5.675196   -4.317678    0.045268
     39          8           0       -5.574408   -5.580539   -0.123024
     40          6           0       -4.463504   -3.425663    0.425957
     41          6           0       -3.996815   -3.902310    1.783296
     42          8           0       -4.314418   -3.516787    2.905971
     43          8           0       -3.063084   -4.925588    1.629580
     44          6           0       -2.610078   -5.603623    2.867383
     45          6           0        2.624155   -1.010337   -1.127504
     46          6           0        4.013146   -0.703192   -0.528001
     47          6           0        4.994379    0.178261   -1.006455
     48          6           0        4.891411    0.979612   -2.290610
     49          6           0        6.202428    0.371396   -0.041626
     50          6           0        7.311160   -0.313715   -0.830214
     51          6           0        8.741764   -0.215821   -0.008385
     52          6           0        9.966471   -0.665394   -0.724014
     53          6           0        9.985777   -2.305002   -0.700380
     54          6           0       11.252771   -0.205419    0.000563
     55          6           0       12.652912   -0.346830   -0.804373
     56          6           0       13.886550    0.108400    0.073215
     57          6           0       15.228599   -0.150469   -0.513752
     58          6           0       15.548744   -1.638271   -0.559245
     59          6           0       16.298692    0.698121    0.259255
     60          6           0       17.764797    0.512652   -0.277709
     61          6           0       18.660591    1.558458    0.469062
     62          6           0       20.118594    1.559708    0.006379
     63          6           0       20.377143    2.037471   -1.409923
     64          6           0       20.943907    2.402272    0.931252
     65          1           0       -4.056273    3.511429    1.931299
     66          1           0      -10.105590    4.076003   -0.622820
     67          1           0      -10.575794   -1.982902   -1.681190
     68          1           0       -2.690687   -1.371646    2.064613
     69          1           0       -2.223117    1.449585    1.444332
     70          1           0       -1.825678    0.747373    3.742585
     71          1           0       -3.115701    1.891738    4.029566
     72          1           0       -3.516488    0.230238    3.955661
     73          1           0       -2.290323   -1.732542   -0.111163
     74          1           0       -2.242927   -0.009545   -0.611348
     75          1           0       -0.225171    0.089002    1.363794
     76          1           0       -0.721042   -1.521157    1.701226
     77          1           0       -4.070348    5.507453    1.337821
     78          1           0       -5.573906    6.893212    1.093311
     79          1           0       -5.379657    5.875289    2.876054
     80          1           0       -7.956366    6.946826    1.472767
     81          1           0       -9.677111    5.905551   -1.203004
     82          1           0       -9.820434    7.429053   -0.053596
     83          1           0      -12.449041    3.312712   -0.140756
     84          1           0      -11.950210    3.687860   -2.072089
     85          1           0      -13.430264    2.497834   -1.276924
     86          1           0      -12.565850   -1.278463   -1.605922
     87          1           0      -13.502022    0.123156   -1.502539
     88          1           0      -12.859593    0.654714   -3.895791
     89          1           0      -12.026914   -0.954236   -3.817575
     90          1           0      -13.614352   -0.860523   -3.875479
     91          1           0       -9.860554   -4.973981   -0.694997
     92          1           0       -9.373267   -4.155981   -2.405538
     93          1           0       -8.240980   -5.268996   -1.655484
     94          1           0       -3.610977   -3.727125   -0.380539
     95          1           0       -1.931106   -6.384979    2.556842
     96          1           0       -2.173883   -4.984386    3.511834
     97          1           0       -3.425680   -5.930860    3.375168
     98          1           0        2.505939   -2.119352   -1.373954
     99          1           0        2.414044   -0.396624   -1.913029
    100          1           0        4.195645   -1.072252    0.582938
    101          1           0        4.848964    2.118016   -1.986678
    102          1           0        5.728616    0.881805   -3.075977
    103          1           0        3.751358    0.957128   -2.771661
    104          1           0        6.596244    1.403905    0.283597
    105          1           0        6.069108   -0.131004    0.746300
    106          1           0        7.125430   -1.345161   -1.034078
    107          1           0        7.434815    0.194310   -1.852233
    108          1           0        8.724275    1.031235    0.195344
    109          1           0        8.612907   -0.669581    0.907920
    110          1           0        9.976260   -0.372758   -1.730832
    111          1           0        8.978547   -2.552336   -1.322701
    112          1           0       10.745970   -2.689385   -1.088633
    113          1           0        9.959858   -2.608127    0.462761
    114          1           0       11.234792    1.006306    0.190551
    115          1           0       11.260496   -0.769301    0.905064
    116          1           0       12.847857   -1.448583   -1.199803
    117          1           0       12.545473    0.285507   -1.704236
    118          1           0       13.731025    1.194778    0.398120
    119          1           0       13.716579   -0.425196    1.084718
    120          1           0       15.138139    0.171396   -1.553801
    121          1           0       14.835551   -2.110228   -1.231437
    122          1           0       16.571284   -1.753271   -1.082961
    123          1           0       15.541189   -2.120400    0.395817
    124          1           0       16.030816    1.770646    0.423202
    125          1           0       16.305194    0.369759    1.457716
    126          1           0       17.982165   -0.568178    0.014031
    127          1           0       17.896069    0.698840   -1.431074
    128          1           0       18.221199    2.504231    0.457099
    129          1           0       18.717604    1.137942    1.668367
    130          1           0       20.321260    0.532626    0.250963
    131          1           0       19.930822    3.105080   -1.528054
    132          1           0       21.451025    2.081323   -1.626415
    133          1           0       19.837541    1.224894   -2.114855
    134          1           0       21.051094    1.788138    1.974056
    135          1           0       22.018928    2.457547    0.627362
    136          1           0       20.421559    3.401926    1.101443
    137          1           0       -6.947396    1.684987    0.167388
    138          1           0       -7.616346   -0.200328   -0.115150
 ---------------------------------------------------------------------

 SCF Done:  E(RB3LYP) =  -2733.07461854     A.U. after   17 cycles

 Excitation energies and oscillator strengths:

 Excited State   1:      Singlet-A      1.9447 eV  637.54 nm  f=0.1826  <S**2>=0.000
     235 -> 238       -0.29144
     236 -> 237        0.63568
 This state for optimization and/or second-order correction.
 Total Energy, E(TD-HF/TD-DFT) =  -2733.00315096
 Copying the excited state density for this state as the 1-particle RhoCI density.

 The electronic state is 1-A.
 Alpha  occ. eigenvalues --  -19.18173 -19.16595 -19.12493 -19.11719 -19.10971
 Alpha  occ. eigenvalues --  -14.37566 -14.37548 -14.32438 -14.30748 -10.31747
 Alpha  occ. eigenvalues --  -10.31059 -10.28099 -10.25680 -10.24564 -10.24182
 Alpha  occ. eigenvalues --  -10.24127 -10.23863 -10.23761 -10.23376 -10.23154
 Alpha  occ. eigenvalues --  -10.22627 -10.22393 -10.22384 -10.22359 -10.22300
 Alpha  occ. eigenvalues --  -10.22006 -10.21973 -10.21921 -10.21841 -10.21780
 Alpha  occ. eigenvalues --  -10.21446 -10.21336 -10.21041 -10.20782 -10.20689
 Alpha  occ. eigenvalues --  -10.20666 -10.20484 -10.20382 -10.20269 -10.20102
 Alpha  occ. eigenvalues --  -10.20047 -10.19835 -10.19636 -10.19621 -10.19530
 Alpha  occ. eigenvalues --  -10.19363 -10.19325 -10.19319 -10.19269 -10.19241
 Alpha  occ. eigenvalues --  -10.19047 -10.19021 -10.18999 -10.18930 -10.18918
 Alpha  occ. eigenvalues --  -10.18911 -10.18903 -10.18769 -10.18703 -10.18695
 Alpha  occ. eigenvalues --  -10.18674 -10.18092 -10.17905 -10.17842  -1.11635
 Alpha  occ. eigenvalues --   -1.06796  -0.99281  -0.99235  -0.98523  -0.97887
 Alpha  occ. eigenvalues --   -0.97136  -0.95687  -0.94860  -0.84563  -0.82426
 Alpha  occ. eigenvalues --   -0.81555  -0.80804  -0.80615  -0.80557  -0.80534
 Alpha  occ. eigenvalues --   -0.79993  -0.79814  -0.79192  -0.78538  -0.77256
 Alpha  occ. eigenvalues --   -0.76642  -0.75527  -0.74712  -0.74311  -0.73983
 Alpha  occ. eigenvalues --   -0.73143  -0.72474  -0.71892  -0.71318  -0.69863
 Alpha  occ. eigenvalues --   -0.69380  -0.69107  -0.68346  -0.67767  -0.67174
 Alpha  occ. eigenvalues --   -0.66796  -0.66348  -0.65911  -0.65461  -0.64882
 Alpha  occ. eigenvalues --   -0.64226  -0.62947  -0.62549  -0.61933  -0.61492
 Alpha  occ. eigenvalues --   -0.60907  -0.58910  -0.58016  -0.57624  -0.57257
 Alpha  occ. eigenvalues --   -0.56643  -0.56210  -0.56075  -0.55473  -0.55316
 Alpha  occ. eigenvalues --   -0.54555  -0.54302  -0.53806  -0.53684  -0.53234
 Alpha  occ. eigenvalues --   -0.52733  -0.51926  -0.51319  -0.50887  -0.50559
 Alpha  occ. eigenvalues --   -0.49764  -0.49463  -0.48672  -0.48258  -0.47872
 Alpha  occ. eigenvalues --   -0.47668  -0.46889  -0.46746  -0.46502  -0.46438
 Alpha  occ. eigenvalues --   -0.46178  -0.45996  -0.45933  -0.45812  -0.45517
 Alpha  occ. eigenvalues --   -0.45350  -0.45225  -0.44930  -0.44628  -0.44518
 Alpha  occ. eigenvalues --   -0.44113  -0.43923  -0.43777  -0.43616  -0.43236
 Alpha  occ. eigenvalues --   -0.43116  -0.42854  -0.42815  -0.42574  -0.42442
 Alpha  occ. eigenvalues --   -0.42022  -0.41678  -0.41565  -0.41431  -0.41395
 Alpha  occ. eigenvalues --   -0.40884  -0.40838  -0.40338  -0.40277  -0.40122
 Alpha  occ. eigenvalues --   -0.39849  -0.39798  -0.39615  -0.39378  -0.39155
 Alpha  occ. eigenvalues --   -0.39039  -0.38675  -0.38405  -0.38332  -0.38302
 Alpha  occ. eigenvalues --   -0.38015  -0.37891  -0.37710  -0.37612  -0.37365
 Alpha  occ. eigenvalues --   -0.37175  -0.36900  -0.36587  -0.36450  -0.36357
 Alpha  occ. eigenvalues --   -0.36019  -0.35909  -0.35663  -0.35610  -0.35398
 Alpha  occ. eigenvalues --   -0.35385  -0.35159  -0.35093  -0.34897  -0.34644
 Alpha  occ. eigenvalues --   -0.34512  -0.34450  -0.34404  -0.33960  -0.33784
 Alpha  occ. eigenvalues --   -0.33598  -0.33464  -0.33042  -0.32868  -0.32282
 Alpha  occ. eigenvalues --   -0.32086  -0.32073  -0.31522  -0.31314  -0.30959
 Alpha  occ. eigenvalues --   -0.30914  -0.30672  -0.30466  -0.30175  -0.30141
 Alpha  occ. eigenvalues --   -0.29778  -0.29604  -0.28536  -0.28485  -0.27835
 Alpha  occ. eigenvalues --   -0.27680  -0.27487  -0.27141  -0.26856  -0.26005
 Alpha  occ. eigenvalues --   -0.24896  -0.24559  -0.23663  -0.23503  -0.19821
 Alpha  occ. eigenvalues --   -0.19044
 Alpha virt. eigenvalues --   -0.10844  -0.08395  -0.05043  -0.02690  -0.01871
 Alpha virt. eigenvalues --   -0.00752   0.00131   0.00185   0.01822   0.03190
 Alpha virt. eigenvalues --    0.03370   0.03535   0.03631   0.04184   0.04489

 Mulliken charges:
               1
     1  C    0.017166
     2  C   -0.062897
     3  C   -0.085471
     4  C   -0.041055
     5  N   -0.151611
     6  C   -0.021549
     7  C   -0.137783
     8  C   -0.026684
     9  C    0.051567
    10  C    0.080283
    11  C    0.115527
    12  C   -0.078510
    13  C    0.193251
    14  O   -0.265800
    15  O   -0.262163
    16  N   -0.081612
    17  C    0.039361
    18  C   -0.128556
    19  C    0.007560
    20  C    0.098453
    21  C   -0.077276
    22  C   -0.076011
    23  C   -0.017912
    24  N   -0.216463
    25  C   -0.008071
    26  C   -0.136628
    27  C   -0.041830
    28  C   -0.003078
    29  C    0.023000
    30  C    0.115317
    31  C   -0.069642
    32  N   -0.102381
    33  C    0.121554
    34  C   -0.172761
    35  C    0.102985
    36  C    0.056835
    37  C    0.042971
    38  C    0.032605
    39  O   -0.232584
    40  C   -0.046281
    41  C    0.223069
    42  O   -0.239199
    43  O   -0.358466
    44  C    0.301675
    45  C    0.322250
    46  C   -0.134566
    47  C   -0.143726
    48  C   -0.025214
    49  C    0.211194
    50  C   -0.057641
    51  C    0.022781
    52  C   -0.004966
    53  C    0.035503
    54  C   -0.001862
    55  C   -0.015671
    56  C   -0.007893
    57  C    0.003949
    58  C    0.038433
    59  C   -0.044700
    60  C    0.003966
    61  C   -0.030653
    62  C   -0.053589
    63  C    0.009497
    64  C   -0.003882
    65  H   -0.018582
    66  H    0.001684
    67  H   -0.016727
    68  H    0.020510
    69  H    0.012734
    70  H    0.010240
    71  H    0.014550
    72  H    0.013187
    73  H   -0.007467
    74  H    0.018398
    75  H    0.037030
    76  H    0.038906
    77  H    0.067580
    78  H    0.056024
    79  H    0.068566
    80  H    0.040412
    81  H    0.063258
    82  H    0.015910
    83  H    0.041308
    84  H    0.073307
    85  H    0.033452
    86  H   -0.001709
    87  H   -0.011220
    88  H    0.012658
    89  H   -0.004960
    90  H   -0.000881
    91  H    0.071510
    92  H    0.033124
    93  H    0.033676
    94  H    0.110025
    95  H    0.030862
    96  H   -0.018505
    97  H   -0.001505
    98  H    0.045476
    99  H   -0.012699
   100  H    0.026835
   101  H    0.037811
   102  H    0.061964
   103  H    0.038140
   104  H    0.017835
   105  H   -0.084483
   106  H   -0.002022
   107  H    0.007874
   108  H   -0.000183
   109  H   -0.025062
   110  H   -0.031842
   111  H    0.030490
   112  H   -0.048834
   113  H    0.023322
   114  H    0.013506
   115  H   -0.013531
   116  H    0.011694
   117  H   -0.000755
   118  H   -0.004426
   119  H   -0.008218
   120  H   -0.017618
   121  H   -0.000808
   122  H    0.017073
   123  H    0.004567
   124  H   -0.002605
   125  H   -0.000074
   126  H    0.024063
   127  H    0.020686
   128  H   -0.020828
   129  H    0.006416
   130  H   -0.019019
   131  H    0.019474
   132  H    0.015123
   133  H    0.027196
   134  H    0.007279
   135  H    0.010177
   136  H    0.018869
   137  H    0.185876
   138  H    0.179786
 Sum of Mulliken charges =  -0.00000

 Dipole moment (field-independent basis, Debye):
    X=              2.6311    Y=              4.2968    Z=              0.3938  Tot=              5.0537
 Quadrupole moment (field-independent basis, Debye-Ang):
   XX=           -341.3363   YY=           -393.2850   ZZ=           -394.9376
   XY=            -27.6019   XZ=              4.7771   YZ=             -1.4918

 Normal termination of Gaussian 16 at Wed Aug 28 15:35:26 2019.
