 Gaussian 16, Revision A.03,
 Gaussian 16:  ES64L-G16RevA.03 25-Dec-2016

 --------------------------
 # td=(NStates=1) B3LYP/SVP
 --------------------------

 --
 TD
 --
 Symbolic Z-matrix:
 Charge =  0 Multiplicity = 1

                         Standard orientation:
 ---------------------------------------------------------------------
 Center     Atomic      Atomic             Coordinates (Angstroms)
 Number     Number       Type             X           Y           Z
 ---------------------------------------------------------------------
      1          6           0       -5.113620   -1.927432    0.364252
      2          6           0       -4.793535    2.843942    1.444026
      3          6           0       -9.405490    3.366953   -0.286279
      4          6           0       -9.804718   -1.488863   -0.933519
      5          7           0       -5.140794    0.388955    0.737712
      6          6           0       -4.562822   -0.717885    0.743180
      7          6           0       -3.120780   -0.521277    1.305813
      8          6           0       -3.081089    0.826417    1.930957
      9          6           0       -4.449810    1.400922    1.419298
     10          6           0       -2.974848    0.919427    3.452443
     11          6           0       -2.140809   -0.690258    0.132775
     12          6           0       -0.681509   -0.607091    0.640353
     13          6           0        0.392834   -0.924812   -0.499611
     14          8           0        0.045337   -1.489762   -1.534522
     15          8           0        1.631183   -0.697833   -0.126247
     16          7           0       -7.119294    2.782616    0.429872
     17          6           0       -6.002823    3.364007    1.020212
     18          6           0       -6.222882    4.793789    0.984073
     19          6           0       -7.544548    4.979200    0.509193
     20          6           0       -8.064637    3.636055    0.185207
     21          6           0       -5.313403    5.777928    1.533010
     22          6           0       -8.238528    6.339559    0.349156
     23          6           0       -9.148227    6.631138   -0.573024
     24          7           0       -9.191837    0.873258   -0.434810
     25          6           0       -9.866923    2.036352   -0.619722
     26          6           0      -11.193438    1.776858   -1.072703
     27          6           0      -11.331582    0.454338   -1.232544
     28          6           0      -10.071220   -0.102935   -0.898403
     29          6           0      -12.199763    2.962822   -1.194101
     30          6           0      -12.617548   -0.296532   -1.694056
     31          6           0      -12.576702   -0.617747   -3.227019
     32          7           0       -7.490775   -1.352053   -0.106005
     33          6           0       -8.539994   -2.044043   -0.472672
     34          6           0       -8.165390   -3.443480   -0.663226
     35          6           0       -6.781449   -3.433927   -0.249112
     36          6           0       -6.444000   -2.122602    0.071222
     37          6           0       -8.824163   -4.678470   -1.028437
     38          6           0       -5.679035   -4.306776   -0.074083
     39          8           0       -5.638225   -5.570122   -0.145639
     40          6           0       -4.531799   -3.346829    0.349016
     41          6           0       -4.002888   -3.786909    1.730424
     42          8           0       -4.203197   -3.335759    2.832757
     43          8           0       -3.077977   -4.769037    1.597195
     44          6           0       -2.535394   -5.428327    2.719807
     45          6           0        2.706976   -0.979764   -1.111870
     46          6           0        4.062304   -0.652534   -0.426479
     47          6           0        4.931417    0.142879   -0.977108
     48          6           0        4.715504    0.919052   -2.324713
     49          6           0        6.260557    0.345075   -0.231612
     50          6           0        7.524801   -0.300910   -0.939564
     51          6           0        8.758584   -0.144754   -0.205888
     52          6           0       10.090442   -0.664188   -0.891599
     53          6           0       10.104243   -2.210880   -0.934363
     54          6           0       11.201638   -0.196408    0.004836
     55          6           0       12.595893   -0.653585   -0.528001
     56          6           0       13.873832   -0.097292    0.233125
     57          6           0       15.191229   -0.329687   -0.424716
     58          6           0       15.675942   -1.821201   -0.503471
     59          6           0       16.289577    0.663911    0.253308
     60          6           0       17.700422    0.652789   -0.255289
     61          6           0       18.664189    1.494372    0.576358
     62          6           0       20.042120    1.644233    0.070764
     63          6           0       20.267977    2.197507   -1.260554
     64          6           0       20.985389    2.397976    1.063573
     65          1           0       -4.038042    3.408900    1.716571
     66          1           0       -9.939273    4.319653   -0.213904
     67          1           0      -10.494800   -2.172370   -1.133690
     68          1           0       -2.765772   -1.356719    2.012532
     69          1           0       -2.534940    1.462037    1.339915
     70          1           0       -1.773209    0.667305    3.727329
     71          1           0       -2.970771    1.832547    3.869080
     72          1           0       -3.691444    0.359789    4.137535
     73          1           0       -2.140260   -1.621520   -0.343605
     74          1           0       -2.253954    0.221884   -0.489243
     75          1           0       -0.394490    0.352152    0.999669
     76          1           0       -0.515439   -1.346100    1.573957
     77          1           0       -4.476711    5.872195    0.854976
     78          1           0       -5.672287    6.761249    1.527727
     79          1           0       -4.950605    5.391650    2.333975
     80          1           0       -7.895321    6.912696    0.933877
     81          1           0       -9.380094    6.024476   -1.473942
     82          1           0       -9.466541    7.567430   -0.401881
     83          1           0      -12.295071    3.611597   -0.257455
     84          1           0      -11.917837    3.568980   -1.982734
     85          1           0      -13.433565    2.593341   -1.514314
     86          1           0      -12.652700   -1.185336   -1.129783
     87          1           0      -13.526701    0.219803   -1.640558
     88          1           0      -12.625713    0.324288   -3.770690
     89          1           0      -11.720809   -1.140705   -3.699923
     90          1           0      -13.531429   -1.159457   -3.630383
     91          1           0       -9.860673   -4.794584   -0.679310
     92          1           0       -9.255357   -4.811884   -1.985702
     93          1           0       -8.107897   -5.539721   -0.793255
     94          1           0       -3.853112   -3.509454   -0.405583
     95          1           0       -1.743143   -6.050383    2.365743
     96          1           0       -2.292435   -4.423138    3.345265
     97          1           0       -3.444744   -5.978101    3.100663
     98          1           0        2.637249   -2.031304   -1.312807
     99          1           0        2.361539   -0.586979   -2.042606
    100          1           0        4.279243   -1.328228    0.532059
    101          1           0        5.492467    1.896285   -2.302894
    102          1           0        5.152254    0.233690   -3.168430
    103          1           0        3.628845    1.259672   -2.563393
    104          1           0        6.530883    1.393769    0.106336
    105          1           0        6.107010   -0.321663    0.678430
    106          1           0        7.403219   -1.416396   -1.310617
    107          1           0        7.864349    0.173101   -2.052276
    108          1           0        8.908368    0.987659    0.156950
    109          1           0        8.660877   -0.327084    0.828388
    110          1           0       10.019414   -0.065115   -1.834954
    111          1           0        9.134393   -2.691087   -1.460783
    112          1           0       10.962337   -2.690287   -1.779432
    113          1           0       10.179844   -2.796985    0.029043
    114          1           0       11.035030    0.799155    0.229009
    115          1           0       11.192886   -0.510516    1.063446
    116          1           0       12.835229   -1.800086   -0.478525
    117          1           0       12.705025   -0.393546   -1.483445
    118          1           0       13.639896    0.986372    0.482666
    119          1           0       13.763116   -0.471831    1.418404
    120          1           0       14.954976    0.126003   -1.459723
    121          1           0       15.171682   -2.277785   -1.507207
    122          1           0       16.734794   -2.138349   -0.666884
    123          1           0       15.427581   -2.370602    0.438702
    124          1           0       15.899642    1.656253    0.441983
    125          1           0       16.293279    0.446415    1.317552
    126          1           0       18.141703   -0.423917   -0.234079
    127          1           0       17.489232    1.026447   -1.164753
    128          1           0       18.180819    2.446831    0.782115
    129          1           0       18.772932    1.136981    1.672922
    130          1           0       20.618744    0.729146    0.064211
    131          1           0       19.914769    3.321406   -1.388027
    132          1           0       21.257943    2.213504   -1.444148
    133          1           0       19.774297    1.875395   -2.299426
    134          1           0       20.942789    2.217933    2.054833
    135          1           0       22.092943    2.271399    0.491209
    136          1           0       20.659556    3.565057    1.159509
    137          1           0       -7.322436    1.677784    0.479970
    138          1           0       -7.404675   -0.310945   -0.257759
 ---------------------------------------------------------------------

 SCF Done:  E(RB3LYP) =  -2732.97335456     A.U. after   17 cycles

 Excitation energies and oscillator strengths:

 Excited State   1:      Singlet-A      2.0349 eV  609.30 nm  f=0.1595  <S**2>=0.000
     235 -> 237       -0.13615
     235 -> 238       -0.30349
     236 -> 237        0.61451
 This state for optimization and/or second-order correction.
 Total Energy, E(TD-HF/TD-DFT) =  -2732.89857499
 Copying the excited state density for this state as the 1-particle RhoCI density.

 The electronic state is 1-A.
 Alpha  occ. eigenvalues --  -19.18051 -19.15638 -19.11987 -19.11550 -19.11526
 Alpha  occ. eigenvalues --  -14.37652 -14.37169 -14.31957 -14.30080 -10.31313
 Alpha  occ. eigenvalues --  -10.31178 -10.27138 -10.25084 -10.24414 -10.24167
 Alpha  occ. eigenvalues --  -10.23993 -10.23603 -10.23531 -10.22508 -10.22183
 Alpha  occ. eigenvalues --  -10.22142 -10.21638 -10.21432 -10.21247 -10.21091
 Alpha  occ. eigenvalues --  -10.21048 -10.21042 -10.21011 -10.20754 -10.20553
 Alpha  occ. eigenvalues --  -10.20518 -10.20432 -10.20415 -10.20386 -10.20376
 Alpha  occ. eigenvalues --  -10.20371 -10.20243 -10.20074 -10.19936 -10.19888
 Alpha  occ. eigenvalues --  -10.19880 -10.19721 -10.19704 -10.19395 -10.19372
 Alpha  occ. eigenvalues --  -10.19354 -10.19327 -10.19045 -10.19015 -10.18971
 Alpha  occ. eigenvalues --  -10.18655 -10.18572 -10.18514 -10.18466 -10.18277
 Alpha  occ. eigenvalues --  -10.18103 -10.18042 -10.17976 -10.17923 -10.17828
 Alpha  occ. eigenvalues --  -10.17758 -10.17752 -10.17403 -10.17391  -1.09219
 Alpha  occ. eigenvalues --   -1.08865  -1.01387  -0.99662  -0.99322  -0.99213
 Alpha  occ. eigenvalues --   -0.99158  -0.95875  -0.93650  -0.85854  -0.82814
 Alpha  occ. eigenvalues --   -0.82688  -0.82087  -0.81654  -0.81497  -0.80982
 Alpha  occ. eigenvalues --   -0.80389  -0.79766  -0.78989  -0.78453  -0.77931
 Alpha  occ. eigenvalues --   -0.77127  -0.76318  -0.75516  -0.75150  -0.74032
 Alpha  occ. eigenvalues --   -0.73434  -0.73323  -0.72804  -0.72091  -0.70922
 Alpha  occ. eigenvalues --   -0.70259  -0.69533  -0.68901  -0.67633  -0.67530
 Alpha  occ. eigenvalues --   -0.67433  -0.66680  -0.66389  -0.66264  -0.65516
 Alpha  occ. eigenvalues --   -0.64544  -0.63208  -0.62734  -0.62429  -0.61933
 Alpha  occ. eigenvalues --   -0.61334  -0.59461  -0.58709  -0.58340  -0.57849
 Alpha  occ. eigenvalues --   -0.57147  -0.57109  -0.57086  -0.56223  -0.56159
 Alpha  occ. eigenvalues --   -0.56002  -0.54985  -0.54794  -0.54223  -0.53162
 Alpha  occ. eigenvalues --   -0.52552  -0.52001  -0.51887  -0.51287  -0.50434
 Alpha  occ. eigenvalues --   -0.50208  -0.49604  -0.48952  -0.48718  -0.48417
 Alpha  occ. eigenvalues --   -0.47994  -0.47755  -0.47556  -0.47423  -0.47108
 Alpha  occ. eigenvalues --   -0.46864  -0.46797  -0.46339  -0.46290  -0.45797
 Alpha  occ. eigenvalues --   -0.45424  -0.45390  -0.45186  -0.45079  -0.44962
 Alpha  occ. eigenvalues --   -0.44792  -0.44549  -0.44226  -0.44200  -0.43968
 Alpha  occ. eigenvalues --   -0.43720  -0.43384  -0.43152  -0.43045  -0.42722
 Alpha  occ. eigenvalues --   -0.42642  -0.42382  -0.42184  -0.41883  -0.41830
 Alpha  occ. eigenvalues --   -0.41600  -0.41300  -0.40897  -0.40600  -0.40360
 Alpha  occ. eigenvalues --   -0.40197  -0.39924  -0.39802  -0.39477  -0.39437
 Alpha  occ. eigenvalues --   -0.39076  -0.38892  -0.38653  -0.38496  -0.38445
 Alpha  occ. eigenvalues --   -0.38273  -0.37980  -0.37897  -0.37552  -0.37149
 Alpha  occ. eigenvalues --   -0.37131  -0.37020  -0.36731  -0.36570  -0.36520
 Alpha  occ. eigenvalues --   -0.36376  -0.36209  -0.36120  -0.35966  -0.35776
 Alpha  occ. eigenvalues --   -0.35173  -0.35037  -0.35027  -0.34743  -0.34358
 Alpha  occ. eigenvalues --   -0.34332  -0.34263  -0.33957  -0.33755  -0.33493
 Alpha  occ. eigenvalues --   -0.33225  -0.33134  -0.33051  -0.32985  -0.32742
 Alpha  occ. eigenvalues --   -0.32696  -0.32059  -0.32049  -0.31366  -0.30983
 Alpha  occ. eigenvalues --   -0.30730  -0.30437  -0.30136  -0.29751  -0.29390
 Alpha  occ. eigenvalues --   -0.28824  -0.28651  -0.28544  -0.28280  -0.27619
 Alpha  occ. eigenvalues --   -0.27435  -0.26977  -0.26786  -0.26231  -0.25490
 Alpha  occ. eigenvalues --   -0.25143  -0.24534  -0.24135  -0.23053  -0.19732
 Alpha  occ. eigenvalues --   -0.18853
 Alpha virt. eigenvalues --   -0.10341  -0.07856  -0.04693  -0.01904  -0.00148
 Alpha virt. eigenvalues --    0.00118   0.00492   0.00736   0.03203   0.03268
 Alpha virt. eigenvalues --    0.04130   0.04207   0.04391   0.04449   0.04776

 Mulliken charges:
               1
     1  C    0.009544
     2  C   -0.028552
     3  C   -0.083977
     4  C   -0.018148
     5  N   -0.117065
     6  C   -0.094982
     7  C   -0.128132
     8  C    0.109012
     9  C   -0.089139
    10  C    0.092189
    11  C    0.092698
    12  C   -0.025845
    13  C    0.172935
    14  O   -0.269553
    15  O   -0.296179
    16  N   -0.047862
    17  C    0.160429
    18  C   -0.203757
    19  C   -0.042047
    20  C   -0.020677
    21  C    0.282460
    22  C    0.096765
    23  C    0.051409
    24  N   -0.274444
    25  C    0.117723
    26  C   -0.117882
    27  C   -0.120211
    28  C    0.100877
    29  C    0.065341
    30  C    0.176994
    31  C   -0.048800
    32  N    0.065964
    33  C    0.015266
    34  C   -0.095327
    35  C   -0.000445
    36  C    0.025468
    37  C    0.101000
    38  C    0.010428
    39  O   -0.228491
    40  C    0.067331
    41  C    0.210038
    42  O   -0.225275
    43  O   -0.317683
    44  C    0.150740
    45  C    0.271581
    46  C   -0.092630
    47  C   -0.102824
    48  C   -0.021296
    49  C    0.059044
    50  C   -0.013518
    51  C   -0.018955
    52  C    0.004609
    53  C   -0.055591
    54  C    0.073247
    55  C    0.084925
    56  C   -0.074391
    57  C   -0.009930
    58  C   -0.016985
    59  C   -0.008037
    60  C    0.141251
    61  C    0.025805
    62  C   -0.014390
    63  C    0.021567
    64  C   -0.021518
    65  H   -0.084577
    66  H   -0.015308
    67  H   -0.086847
    68  H    0.018926
    69  H   -0.040381
    70  H    0.011018
    71  H   -0.032262
    72  H    0.048321
    73  H    0.013165
    74  H   -0.000250
    75  H    0.003924
    76  H    0.043143
    77  H   -0.001224
    78  H   -0.008864
    79  H   -0.024771
    80  H   -0.146719
    81  H    0.047237
    82  H   -0.009835
    83  H    0.043076
    84  H    0.002474
    85  H    0.023317
    86  H   -0.010297
    87  H   -0.017871
    88  H    0.001950
    89  H    0.017161
    90  H    0.013034
    91  H   -0.005047
    92  H   -0.007024
    93  H    0.072399
    94  H    0.020484
    95  H    0.038595
    96  H    0.054417
    97  H    0.043734
    98  H    0.008454
    99  H    0.008956
   100  H    0.038435
   101  H    0.039056
   102  H    0.054822
   103  H    0.059171
   104  H    0.027025
   105  H    0.009557
   106  H    0.017182
   107  H   -0.006507
   108  H   -0.027462
   109  H   -0.048906
   110  H    0.009680
   111  H    0.016566
   112  H    0.032325
   113  H    0.037114
   114  H   -0.048892
   115  H   -0.019305
   116  H    0.020537
   117  H   -0.048603
   118  H   -0.007074
   119  H   -0.010036
   120  H    0.004803
   121  H    0.027885
   122  H    0.021417
   123  H    0.023501
   124  H   -0.031497
   125  H   -0.042071
   126  H    0.009648
   127  H   -0.031967
   128  H   -0.026659
   129  H   -0.011212
   130  H   -0.013249
   131  H   -0.007151
   132  H   -0.031225
   133  H    0.018124
   134  H   -0.017957
   135  H    0.033316
   136  H    0.001661
   137  H    0.205029
   138  H    0.168311
 Sum of Mulliken charges =  -0.00000

 Dipole moment (field-independent basis, Debye):
    X=              3.0022    Y=              5.6389    Z=              0.5007  Tot=              6.4079
 Quadrupole moment (field-independent basis, Debye-Ang):
   XX=           -364.3804   YY=           -383.4568   ZZ=           -395.0252
   XY=            -32.1477   XZ=             10.3026   YZ=              2.9682

 Normal termination of Gaussian 16 at Sun Sep  1 11:47:47 2019.
