 Gaussian 16, Revision A.03,
 Gaussian 16:  ES64L-G16RevA.03 25-Dec-2016

 --------------------------
 # td=(NStates=1) B3LYP/SVP
 --------------------------

 --
 TD
 --
 Symbolic Z-matrix:
 Charge =  0 Multiplicity = 1

                         Standard orientation:
 ---------------------------------------------------------------------
 Center     Atomic      Atomic             Coordinates (Angstroms)
 Number     Number       Type             X           Y           Z
 ---------------------------------------------------------------------
      1          6           0       -5.125397   -1.999010    0.416242
      2          6           0       -4.767188    2.724623    1.484901
      3          6           0       -9.314447    3.391824   -0.194572
      4          6           0       -9.841237   -1.324934   -0.976114
      5          7           0       -5.158839    0.411244    0.840611
      6          6           0       -4.462899   -0.751062    0.796515
      7          6           0       -3.111424   -0.591377    1.312662
      8          6           0       -3.075472    0.823250    1.875752
      9          6           0       -4.384053    1.388635    1.384309
     10          6           0       -3.006266    0.827372    3.380653
     11          6           0       -2.001476   -0.726207    0.125512
     12          6           0       -0.584526   -0.730742    0.623767
     13          6           0        0.371564   -1.039226   -0.519530
     14          8           0       -0.007781   -1.306649   -1.642736
     15          8           0        1.669249   -0.693674   -0.193976
     16          7           0       -7.044987    2.798452    0.461446
     17          6           0       -5.945785    3.458774    1.070265
     18          6           0       -6.257903    4.827849    1.022889
     19          6           0       -7.425940    5.059100    0.485501
     20          6           0       -7.950707    3.766406    0.200264
     21          6           0       -5.299150    5.807171    1.572376
     22          6           0       -8.018836    6.370730    0.332724
     23          6           0       -8.982605    6.709191   -0.550416
     24          7           0       -9.143936    0.968809   -0.484715
     25          6           0       -9.821152    2.105106   -0.598255
     26          6           0      -11.158054    1.914957   -1.026243
     27          6           0      -11.336734    0.633335   -1.137728
     28          6           0      -10.054634   -0.032424   -0.853395
     29          6           0      -12.240339    2.959515   -1.166731
     30          6           0      -12.544353   -0.241618   -1.638186
     31          6           0      -12.515455   -0.595053   -3.148284
     32          7           0       -7.518023   -1.237034   -0.217906
     33          6           0       -8.631379   -1.942383   -0.577441
     34          6           0       -8.271125   -3.360698   -0.510000
     35          6           0       -6.909301   -3.424599   -0.136209
     36          6           0       -6.485847   -2.117752    0.068058
     37          6           0       -9.080510   -4.501605   -0.868930
     38          6           0       -5.768535   -4.283577    0.111269
     39          8           0       -5.756140   -5.511684   -0.086003
     40          6           0       -4.493755   -3.341353    0.467300
     41          6           0       -3.908638   -3.888502    1.690771
     42          8           0       -4.038060   -3.469899    2.835026
     43          8           0       -3.169569   -4.999534    1.461241
     44          6           0       -2.677941   -5.841746    2.590908
     45          6           0        2.684034   -0.985620   -1.254920
     46          6           0        4.115698   -0.725797   -0.621563
     47          6           0        5.025826    0.043917   -1.050263
     48          6           0        4.898156    0.836755   -2.371686
     49          6           0        6.328270    0.121719   -0.292300
     50          6           0        7.625992   -0.303552   -1.181495
     51          6           0        8.889087   -0.264623   -0.282803
     52          6           0       10.023575   -0.769053   -0.965101
     53          6           0       10.038012   -2.271096   -1.418493
     54          6           0       11.285700   -0.484426   -0.046117
     55          6           0       12.634715   -0.630827   -0.666831
     56          6           0       13.775079   -0.218251    0.305598
     57          6           0       15.210005   -0.240099   -0.412265
     58          6           0       15.790235   -1.619201   -0.909052
     59          6           0       16.232738    0.461381    0.551393
     60          6           0       17.566869    0.862967   -0.110711
     61          6           0       18.520844    1.507187    0.868129
     62          6           0       19.964346    1.726244    0.336514
     63          6           0       20.064620    2.659893   -1.011806
     64          6           0       20.789594    2.370811    1.367693
     65          1           0       -4.053497    3.507879    1.844908
     66          1           0       -9.920338    4.197913   -0.368763
     67          1           0      -10.612782   -2.076785   -1.328928
     68          1           0       -2.793645   -1.210898    2.022167
     69          1           0       -2.166542    1.524872    1.436197
     70          1           0       -2.089455    0.312102    3.546133
     71          1           0       -3.080133    1.865272    3.701898
     72          1           0       -3.940779    0.263026    3.905589
     73          1           0       -2.189755   -1.659216   -0.386168
     74          1           0       -2.425634    0.149291   -0.670783
     75          1           0       -0.487217    0.274075    0.940919
     76          1           0       -0.616613   -1.474451    1.537478
     77          1           0       -4.265367    5.902295    0.988365
     78          1           0       -5.692540    6.732172    1.637439
     79          1           0       -5.101032    5.284942    2.573251
     80          1           0       -7.716162    7.296248    0.935187
     81          1           0       -9.396006    6.068004   -1.419096
     82          1           0       -9.251556    7.785990   -0.661826
     83          1           0      -12.239755    3.826600   -0.383710
     84          1           0      -12.128472    3.342311   -2.280360
     85          1           0      -13.310376    2.521037   -1.082650
     86          1           0      -12.394723   -1.229270   -0.956040
     87          1           0      -13.482321    0.372558   -1.314617
     88          1           0      -12.635612    0.351798   -3.780960
     89          1           0      -11.552383   -1.244514   -3.396112
     90          1           0      -13.377679   -1.298221   -3.359982
     91          1           0       -9.969456   -4.719754   -0.204120
     92          1           0       -9.646553   -4.107307   -1.672242
     93          1           0       -8.454151   -5.468863   -0.862970
     94          1           0       -3.766271   -3.435951   -0.423133
     95          1           0       -2.370732   -6.790080    2.273602
     96          1           0       -2.022775   -5.082360    3.418776
     97          1           0       -3.604305   -6.047006    3.211845
     98          1           0        2.706631   -2.176252   -1.284047
     99          1           0        2.529523   -0.442841   -2.354155
    100          1           0        4.260222   -1.233140    0.451705
    101          1           0        4.881375    1.945957   -2.218272
    102          1           0        5.689193    0.677725   -3.137391
    103          1           0        4.056580    0.744287   -2.833679
    104          1           0        6.590947    1.168855    0.016283
    105          1           0        6.141140   -0.578394    0.338561
    106          1           0        7.410616   -1.237798   -1.319634
    107          1           0        7.555942    0.212422   -2.187732
    108          1           0        9.010524    0.775162    0.048483
    109          1           0        8.761248   -0.960793    0.541183
    110          1           0       10.266613   -0.291722   -2.024117
    111          1           0        9.157305   -2.534841   -2.156846
    112          1           0       10.758506   -2.516731   -2.201500
    113          1           0       10.114769   -2.952203   -0.472074
    114          1           0       11.143688    0.513869    0.308617
    115          1           0       11.275092   -1.141261    0.783515
    116          1           0       12.593477   -1.799993   -1.039288
    117          1           0       12.716749    0.038794   -1.567578
    118          1           0       13.545176    0.841736    0.853146
    119          1           0       13.842215   -1.047231    1.124865
    120          1           0       15.086613    0.543758   -1.462547
    121          1           0       14.911826   -2.156502   -1.517711
    122          1           0       16.623684   -1.537234   -1.451913
    123          1           0       15.774604   -2.227549    0.151816
    124          1           0       15.702397    1.280394    0.834193
    125          1           0       16.361750   -0.173357    1.270834
    126          1           0       18.254670   -0.043694   -0.538258
    127          1           0       17.332635    1.445924   -1.104412
    128          1           0       18.178388    2.496985    1.179202
    129          1           0       18.319943    0.766179    1.844643
    130          1           0       20.404056    0.770969   -0.067886
    131          1           0       19.514668    3.588085   -0.969746
    132          1           0       21.205962    2.603763   -1.123270
    133          1           0       19.633868    2.105751   -2.061797
    134          1           0       20.982606    1.923930    2.420932
    135          1           0       21.965477    2.586060    1.065432
    136          1           0       20.288747    3.276610    1.537224
    137          1           0       -6.968460    1.847602    0.290783
    138          1           0       -7.638818   -0.249565   -0.240475
 ---------------------------------------------------------------------

 SCF Done:  E(RB3LYP) =  -2733.03332178     A.U. after   17 cycles

 Excitation energies and oscillator strengths:

 Excited State   1:      Singlet-A      1.9948 eV  621.53 nm  f=0.2053  <S**2>=0.000
     235 -> 237       -0.14169
     235 -> 238       -0.28465
     236 -> 237        0.62442
 This state for optimization and/or second-order correction.
 Total Energy, E(TD-HF/TD-DFT) =  -2732.96001336
 Copying the excited state density for this state as the 1-particle RhoCI density.

 The electronic state is 1-A.
 Alpha  occ. eigenvalues --  -19.18049 -19.17033 -19.13037 -19.12238 -19.11648
 Alpha  occ. eigenvalues --  -14.36420 -14.36377 -14.32261 -14.29735 -10.32089
 Alpha  occ. eigenvalues --  -10.31458 -10.28315 -10.27454 -10.26243 -10.24160
 Alpha  occ. eigenvalues --  -10.23454 -10.23238 -10.23204 -10.23094 -10.22747
 Alpha  occ. eigenvalues --  -10.22284 -10.21504 -10.21279 -10.21243 -10.21197
 Alpha  occ. eigenvalues --  -10.21101 -10.20884 -10.20871 -10.20865 -10.20668
 Alpha  occ. eigenvalues --  -10.20619 -10.20495 -10.20415 -10.20405 -10.20398
 Alpha  occ. eigenvalues --  -10.20223 -10.20150 -10.19999 -10.19974 -10.19893
 Alpha  occ. eigenvalues --  -10.19885 -10.19467 -10.19432 -10.19394 -10.19303
 Alpha  occ. eigenvalues --  -10.19291 -10.19284 -10.19270 -10.19216 -10.19201
 Alpha  occ. eigenvalues --  -10.19159 -10.19140 -10.19078 -10.18717 -10.18606
 Alpha  occ. eigenvalues --  -10.18559 -10.18174 -10.18084 -10.17819 -10.17657
 Alpha  occ. eigenvalues --  -10.17612 -10.17549 -10.16963 -10.16101  -1.07913
 Alpha  occ. eigenvalues --   -1.07804  -1.01074  -1.00159  -0.98659  -0.98575
 Alpha  occ. eigenvalues --   -0.98108  -0.94727  -0.94105  -0.85613  -0.83834
 Alpha  occ. eigenvalues --   -0.83321  -0.82005  -0.81327  -0.80952  -0.80804
 Alpha  occ. eigenvalues --   -0.80088  -0.79581  -0.79136  -0.79030  -0.77911
 Alpha  occ. eigenvalues --   -0.76794  -0.76477  -0.75651  -0.74533  -0.73972
 Alpha  occ. eigenvalues --   -0.73427  -0.72682  -0.72255  -0.71516  -0.71474
 Alpha  occ. eigenvalues --   -0.70440  -0.69298  -0.69051  -0.68269  -0.67261
 Alpha  occ. eigenvalues --   -0.67087  -0.66808  -0.65975  -0.65851  -0.65457
 Alpha  occ. eigenvalues --   -0.64205  -0.63168  -0.62821  -0.61977  -0.60789
 Alpha  occ. eigenvalues --   -0.60146  -0.58683  -0.58557  -0.57855  -0.57163
 Alpha  occ. eigenvalues --   -0.56168  -0.55596  -0.55296  -0.55018  -0.54907
 Alpha  occ. eigenvalues --   -0.54795  -0.54489  -0.54058  -0.52880  -0.52652
 Alpha  occ. eigenvalues --   -0.52349  -0.51863  -0.51560  -0.51140  -0.50515
 Alpha  occ. eigenvalues --   -0.49923  -0.49817  -0.49568  -0.48812  -0.48593
 Alpha  occ. eigenvalues --   -0.48270  -0.47932  -0.47532  -0.47369  -0.47099
 Alpha  occ. eigenvalues --   -0.46813  -0.46549  -0.46480  -0.46023  -0.45840
 Alpha  occ. eigenvalues --   -0.45616  -0.45111  -0.44751  -0.44684  -0.44233
 Alpha  occ. eigenvalues --   -0.44126  -0.44069  -0.44000  -0.43559  -0.43495
 Alpha  occ. eigenvalues --   -0.43214  -0.43114  -0.42980  -0.42965  -0.42517
 Alpha  occ. eigenvalues --   -0.42065  -0.41840  -0.41723  -0.41371  -0.41241
 Alpha  occ. eigenvalues --   -0.40967  -0.40767  -0.40642  -0.40576  -0.40508
 Alpha  occ. eigenvalues --   -0.40001  -0.39983  -0.39855  -0.39500  -0.39450
 Alpha  occ. eigenvalues --   -0.38921  -0.38861  -0.38680  -0.38620  -0.37988
 Alpha  occ. eigenvalues --   -0.37893  -0.37835  -0.37746  -0.37614  -0.37470
 Alpha  occ. eigenvalues --   -0.37433  -0.37267  -0.36999  -0.36852  -0.36761
 Alpha  occ. eigenvalues --   -0.36479  -0.36263  -0.36199  -0.35918  -0.35657
 Alpha  occ. eigenvalues --   -0.35474  -0.35255  -0.35065  -0.35043  -0.34651
 Alpha  occ. eigenvalues --   -0.34597  -0.34302  -0.34026  -0.33888  -0.33592
 Alpha  occ. eigenvalues --   -0.33348  -0.33150  -0.32611  -0.32476  -0.32328
 Alpha  occ. eigenvalues --   -0.32223  -0.32163  -0.31887  -0.31599  -0.31383
 Alpha  occ. eigenvalues --   -0.30776  -0.30710  -0.30584  -0.30256  -0.30082
 Alpha  occ. eigenvalues --   -0.29421  -0.29362  -0.28585  -0.28333  -0.27809
 Alpha  occ. eigenvalues --   -0.27423  -0.27076  -0.26758  -0.26380  -0.25726
 Alpha  occ. eigenvalues --   -0.25093  -0.24948  -0.24634  -0.23521  -0.19710
 Alpha  occ. eigenvalues --   -0.18578
 Alpha virt. eigenvalues --   -0.10411  -0.07429  -0.04678  -0.02084  -0.01214
 Alpha virt. eigenvalues --   -0.00259   0.00531   0.01460   0.01848   0.03464
 Alpha virt. eigenvalues --    0.03971   0.04091   0.04353   0.04461   0.04818

 Mulliken charges:
               1
     1  C   -0.017735
     2  C   -0.023098
     3  C   -0.017410
     4  C   -0.138278
     5  N   -0.165198
     6  C   -0.027945
     7  C    0.073463
     8  C   -0.119820
     9  C    0.016918
    10  C    0.083875
    11  C   -0.076672
    12  C    0.083225
    13  C    0.216371
    14  O   -0.225640
    15  O   -0.339523
    16  N   -0.023804
    17  C   -0.008380
    18  C   -0.108774
    19  C    0.119945
    20  C    0.040998
    21  C    0.107339
    22  C   -0.089141
    23  C   -0.084563
    24  N   -0.240113
    25  C    0.052492
    26  C   -0.111130
    27  C   -0.074375
    28  C    0.134018
    29  C    0.011289
    30  C   -0.004155
    31  C   -0.015264
    32  N   -0.011805
    33  C    0.025131
    34  C   -0.162131
    35  C    0.060941
    36  C    0.099395
    37  C    0.103228
    38  C    0.017292
    39  O   -0.197640
    40  C   -0.029484
    41  C    0.212930
    42  O   -0.242425
    43  O   -0.328815
    44  C    0.157983
    45  C    0.188557
    46  C   -0.132215
    47  C   -0.148801
    48  C    0.158629
    49  C    0.184052
    50  C    0.022273
    51  C    0.126367
    52  C   -0.117448
    53  C   -0.023406
    54  C    0.069999
    55  C   -0.000559
    56  C   -0.018360
    57  C   -0.193500
    58  C    0.041259
    59  C    0.207004
    60  C   -0.051210
    61  C    0.015594
    62  C   -0.069512
    63  C   -0.061109
    64  C    0.009250
    65  H   -0.026466
    66  H   -0.086545
    67  H   -0.003043
    68  H   -0.061120
    69  H    0.027455
    70  H    0.010738
    71  H    0.008753
    72  H    0.047078
    73  H    0.007190
    74  H    0.035963
    75  H    0.014625
    76  H    0.057044
    77  H    0.046818
    78  H   -0.027891
    79  H    0.042468
    80  H    0.025784
    81  H    0.049075
    82  H    0.026809
    83  H    0.047519
    84  H    0.038456
    85  H    0.024752
    86  H    0.026911
    87  H    0.017552
    88  H    0.035820
    89  H    0.032714
    90  H    0.024767
    91  H    0.017375
    92  H    0.002939
    93  H    0.066018
    94  H    0.089880
    95  H    0.041174
    96  H    0.065609
    97  H    0.036955
    98  H    0.042623
    99  H    0.082753
   100  H    0.021375
   101  H    0.007177
   102  H    0.020316
   103  H   -0.083570
   104  H    0.009654
   105  H   -0.077273
   106  H   -0.055102
   107  H    0.013829
   108  H   -0.002765
   109  H   -0.016090
   110  H   -0.009742
   111  H    0.011785
   112  H    0.014351
   113  H    0.024831
   114  H   -0.029651
   115  H   -0.028141
   116  H    0.022467
   117  H   -0.002649
   118  H    0.028726
   119  H    0.004659
   120  H   -0.006556
   121  H    0.022583
   122  H    0.005783
   123  H    0.019358
   124  H   -0.038434
   125  H   -0.061530
   126  H    0.007438
   127  H    0.007465
   128  H   -0.012775
   129  H    0.015618
   130  H    0.001169
   131  H    0.025324
   132  H    0.036228
   133  H    0.025685
   134  H    0.019989
   135  H    0.015275
   136  H   -0.008907
   137  H    0.108826
   138  H    0.114345
 Sum of Mulliken charges =  -0.00000

 Dipole moment (field-independent basis, Debye):
    X=              1.8872    Y=              4.1349    Z=              0.2784  Tot=              4.5537
 Quadrupole moment (field-independent basis, Debye-Ang):
   XX=           -364.5869   YY=           -376.6171   ZZ=           -396.6411
   XY=            -24.2011   XZ=             12.4920   YZ=             -3.6165

 Normal termination of Gaussian 16 at Tue Aug 13 14:06:02 2019.
