 Gaussian 16, Revision A.03,
 Gaussian 16:  ES64L-G16RevA.03 25-Dec-2016

 --------------------------
 # td=(NStates=1) B3LYP/SVP
 --------------------------

 --
 TD
 --
 Symbolic Z-matrix:
 Charge =  0 Multiplicity = 1

                         Standard orientation:
 ---------------------------------------------------------------------
 Center     Atomic      Atomic             Coordinates (Angstroms)
 Number     Number       Type             X           Y           Z
 ---------------------------------------------------------------------
      1          6           0       -5.084580   -1.929864    0.318211
      2          6           0       -4.743913    2.814542    1.313384
      3          6           0       -9.436307    3.315060   -0.260937
      4          6           0       -9.813024   -1.492571   -0.879279
      5          7           0       -5.203201    0.449962    0.776339
      6          6           0       -4.479404   -0.701304    0.691973
      7          6           0       -2.995934   -0.577221    1.210274
      8          6           0       -3.091023    0.804389    1.871556
      9          6           0       -4.455526    1.411173    1.397256
     10          6           0       -3.047210    0.884941    3.385942
     11          6           0       -1.929173   -0.717019    0.095535
     12          6           0       -0.559514   -0.836473    0.585576
     13          6           0        0.373179   -1.090326   -0.588468
     14          8           0        0.036122   -1.549191   -1.712463
     15          8           0        1.596815   -0.804475   -0.244512
     16          7           0       -7.116673    2.779800    0.456373
     17          6           0       -6.002300    3.383026    0.799769
     18          6           0       -6.275787    4.860508    0.993041
     19          6           0       -7.543804    5.029840    0.433090
     20          6           0       -8.148567    3.670517    0.103782
     21          6           0       -5.338006    5.817706    1.439923
     22          6           0       -8.180514    6.359566    0.359656
     23          6           0       -9.179095    6.548778   -0.567980
     24          7           0       -9.197577    0.874520   -0.587178
     25          6           0       -9.837354    2.072902   -0.568674
     26          6           0      -11.263650    1.836250   -0.862439
     27          6           0      -11.452089    0.499341   -1.051666
     28          6           0      -10.157027   -0.065699   -0.840641
     29          6           0      -12.296908    2.938484   -0.841166
     30          6           0      -12.681519   -0.272652   -1.490626
     31          6           0      -12.687304   -0.567085   -3.047725
     32          7           0       -7.491595   -1.245889   -0.252465
     33          6           0       -8.553363   -2.056173   -0.592993
     34          6           0       -8.152548   -3.449233   -0.667947
     35          6           0       -6.837920   -3.358198   -0.287921
     36          6           0       -6.383613   -2.032711   -0.010910
     37          6           0       -8.898838   -4.562363   -1.221655
     38          6           0       -5.638592   -4.256894   -0.002054
     39          8           0       -5.536749   -5.456245   -0.171128
     40          6           0       -4.435253   -3.332428    0.367381
     41          6           0       -3.881016   -3.799032    1.780379
     42          8           0       -4.173351   -3.229468    2.786750
     43          8           0       -3.161887   -4.899251    1.530232
     44          6           0       -2.633536   -5.572053    2.704458
     45          6           0        2.686622   -1.040338   -1.098670
     46          6           0        3.990231   -0.739292   -0.578085
     47          6           0        4.919777    0.134870   -1.102698
     48          6           0        5.025541    0.758421   -2.492889
     49          6           0        6.225910    0.251939   -0.312176
     50          6           0        7.504656   -0.422707   -0.845978
     51          6           0        8.707814   -0.073367   -0.091132
     52          6           0       10.073993   -0.744661   -0.701203
     53          6           0       10.016067   -2.296587   -0.709866
     54          6           0       11.223460   -0.165943    0.046695
     55          6           0       12.572950   -0.455514   -0.467204
     56          6           0       13.834149    0.035257    0.217677
     57          6           0       15.191386   -0.148056   -0.284032
     58          6           0       15.433300   -1.625031   -0.311995
     59          6           0       16.345512    0.747766    0.407400
     60          6           0       17.811295    0.617784   -0.146554
     61          6           0       18.711297    1.669203    0.620507
     62          6           0       20.157201    1.567491    0.134545
     63          6           0       20.269830    1.919988   -1.422916
     64          6           0       21.101685    2.494072    0.872376
     65          1           0       -4.112095    3.570429    2.051389
     66          1           0      -10.169927    4.129839   -0.324284
     67          1           0      -10.570324   -2.252543   -0.951283
     68          1           0       -3.012212   -1.352136    2.030120
     69          1           0       -2.259438    1.266650    1.320856
     70          1           0       -2.027795    0.571281    3.809239
     71          1           0       -3.107373    1.902381    3.905377
     72          1           0       -3.735655   -0.009271    3.782902
     73          1           0       -2.169037   -1.619012   -0.634790
     74          1           0       -1.985566    0.237039   -0.495829
     75          1           0       -0.090205   -0.006371    1.184329
     76          1           0       -0.367232   -1.693784    1.314994
     77          1           0       -4.222186    5.443299    1.068945
     78          1           0       -5.510786    6.849727    1.302730
     79          1           0       -5.187971    5.644514    2.565232
     80          1           0       -7.908360    7.130555    1.125174
     81          1           0       -9.482316    5.863461   -1.318605
     82          1           0       -9.571807    7.455078   -0.567354
     83          1           0      -12.422885    3.281528    0.164564
     84          1           0      -12.194273    3.567495   -1.825443
     85          1           0      -13.358013    2.578462   -0.937781
     86          1           0      -12.805475   -1.206899   -0.904403
     87          1           0      -13.387405    0.388885   -1.231377
     88          1           0      -12.728641    0.471935   -3.468539
     89          1           0      -11.884879   -1.090782   -3.299207
     90          1           0      -13.657010   -1.176948   -3.374309
     91          1           0       -9.702034   -4.824337   -0.521965
     92          1           0       -9.442576   -4.274472   -2.242955
     93          1           0       -8.242113   -5.353369   -1.414889
     94          1           0       -3.752598   -3.660837   -0.423072
     95          1           0       -2.127986   -6.349350    2.294300
     96          1           0       -1.847149   -5.152905    3.446748
     97          1           0       -3.350567   -5.924586    3.396164
     98          1           0        2.850500   -2.070511   -1.395503
     99          1           0        2.376599   -0.557912   -2.029079
    100          1           0        4.221164   -1.320766    0.405106
    101          1           0        5.479429    1.824292   -2.486871
    102          1           0        5.715937    0.414173   -3.123132
    103          1           0        4.094446    0.822279   -3.135483
    104          1           0        6.547247    1.451175   -0.621136
    105          1           0        6.225499    0.340276    0.957513
    106          1           0        7.436104   -1.595285   -0.908922
    107          1           0        7.440871   -0.072381   -1.928746
    108          1           0        8.756541    1.202895   -0.244903
    109          1           0        8.702393   -0.310415    0.970156
    110          1           0       10.121026   -0.237966   -1.672000
    111          1           0        9.222304   -2.575524   -1.330226
    112          1           0       10.893294   -2.575268   -1.333457
    113          1           0       10.152382   -2.625049    0.222629
    114          1           0       11.301590    0.956296    0.418479
    115          1           0       11.291878   -0.671467    1.126454
    116          1           0       12.697956   -1.597676   -0.439306
    117          1           0       12.949662   -0.070512   -1.623345
    118          1           0       13.569227    1.228865    0.326781
    119          1           0       13.896544   -0.188851    1.368145
    120          1           0       15.170873    0.321545   -1.175883
    121          1           0       14.687357   -2.258349   -0.794764
    122          1           0       16.351181   -1.730841   -0.775296
    123          1           0       15.502949   -2.265433    0.655435
    124          1           0       16.038656    1.719512    0.488070
    125          1           0       16.289520    0.408787    1.430406
    126          1           0       18.221477   -0.365476    0.089894
    127          1           0       17.757937    0.931659   -1.222425
    128          1           0       18.231997    2.627609    0.339307
    129          1           0       18.761548    1.380695    1.902502
    130          1           0       20.453419    0.550486    0.137494
    131          1           0       19.586836    2.919724   -1.786534
    132          1           0       21.390178    1.787117   -1.562508
    133          1           0       19.901316    1.082813   -2.268917
    134          1           0       20.590835    2.438970    2.053768
    135          1           0       22.087677    2.272338    0.536402
    136          1           0       20.792667    3.595731    0.608738
    137          1           0       -7.049286    1.746636    0.069528
    138          1           0       -7.830000   -0.216987   -0.149300
 ---------------------------------------------------------------------

 SCF Done:  E(RB3LYP) =  -2733.03428027     A.U. after   16 cycles

 Excitation energies and oscillator strengths:

 Excited State   1:      Singlet-A      2.0492 eV  605.05 nm  f=0.1487  <S**2>=0.000
     235 -> 238        0.31890
     236 -> 237        0.62972
 This state for optimization and/or second-order correction.
 Total Energy, E(TD-HF/TD-DFT) =  -2732.95897475
 Copying the excited state density for this state as the 1-particle RhoCI density.

 The electronic state is 1-A.
 Alpha  occ. eigenvalues --  -19.19909 -19.18790 -19.13798 -19.11990 -19.11798
 Alpha  occ. eigenvalues --  -14.37697 -14.35543 -14.31889 -14.29852 -10.32636
 Alpha  occ. eigenvalues --  -10.31683 -10.27568 -10.24664 -10.24550 -10.24011
 Alpha  occ. eigenvalues --  -10.23553 -10.22871 -10.22833 -10.22656 -10.22438
 Alpha  occ. eigenvalues --  -10.21985 -10.21901 -10.21183 -10.21131 -10.21068
 Alpha  occ. eigenvalues --  -10.20836 -10.20730 -10.20700 -10.20659 -10.20481
 Alpha  occ. eigenvalues --  -10.20422 -10.20272 -10.20262 -10.20192 -10.20093
 Alpha  occ. eigenvalues --  -10.20036 -10.20026 -10.19948 -10.19868 -10.19841
 Alpha  occ. eigenvalues --  -10.19837 -10.19807 -10.19803 -10.19777 -10.19727
 Alpha  occ. eigenvalues --  -10.19707 -10.19665 -10.19604 -10.19545 -10.19369
 Alpha  occ. eigenvalues --  -10.19288 -10.19070 -10.19047 -10.18744 -10.18591
 Alpha  occ. eigenvalues --  -10.18222 -10.18165 -10.18101 -10.17876 -10.17697
 Alpha  occ. eigenvalues --  -10.17678 -10.17462 -10.17309 -10.17227  -1.11222
 Alpha  occ. eigenvalues --   -1.10558  -1.03057  -1.02315  -0.98734  -0.97780
 Alpha  occ. eigenvalues --   -0.97045  -0.93301  -0.92917  -0.84269  -0.82950
 Alpha  occ. eigenvalues --   -0.82468  -0.81536  -0.81401  -0.80991  -0.80520
 Alpha  occ. eigenvalues --   -0.80228  -0.80177  -0.78936  -0.78515  -0.77577
 Alpha  occ. eigenvalues --   -0.76821  -0.76021  -0.75821  -0.75186  -0.74320
 Alpha  occ. eigenvalues --   -0.73938  -0.73560  -0.72555  -0.71889  -0.70322
 Alpha  occ. eigenvalues --   -0.69775  -0.69565  -0.68797  -0.68310  -0.67819
 Alpha  occ. eigenvalues --   -0.67181  -0.66843  -0.65556  -0.65146  -0.64738
 Alpha  occ. eigenvalues --   -0.63667  -0.62665  -0.62285  -0.61555  -0.61124
 Alpha  occ. eigenvalues --   -0.60850  -0.58824  -0.58080  -0.57800  -0.57358
 Alpha  occ. eigenvalues --   -0.57021  -0.56352  -0.55989  -0.55497  -0.54866
 Alpha  occ. eigenvalues --   -0.54818  -0.54334  -0.53937  -0.53776  -0.53213
 Alpha  occ. eigenvalues --   -0.52352  -0.51878  -0.51386  -0.50535  -0.50275
 Alpha  occ. eigenvalues --   -0.50030  -0.49375  -0.48833  -0.48689  -0.48593
 Alpha  occ. eigenvalues --   -0.48186  -0.47898  -0.47645  -0.47119  -0.46895
 Alpha  occ. eigenvalues --   -0.46349  -0.46183  -0.45997  -0.45884  -0.45725
 Alpha  occ. eigenvalues --   -0.45528  -0.45169  -0.44852  -0.44522  -0.44407
 Alpha  occ. eigenvalues --   -0.44269  -0.44117  -0.44027  -0.43800  -0.43701
 Alpha  occ. eigenvalues --   -0.43420  -0.43164  -0.43041  -0.42847  -0.42505
 Alpha  occ. eigenvalues --   -0.42279  -0.42267  -0.41908  -0.41542  -0.41512
 Alpha  occ. eigenvalues --   -0.41323  -0.40996  -0.40809  -0.40535  -0.40297
 Alpha  occ. eigenvalues --   -0.40094  -0.40059  -0.39670  -0.39610  -0.39367
 Alpha  occ. eigenvalues --   -0.39181  -0.38982  -0.38904  -0.38725  -0.38626
 Alpha  occ. eigenvalues --   -0.38531  -0.38380  -0.37949  -0.37766  -0.37603
 Alpha  occ. eigenvalues --   -0.37503  -0.37430  -0.37141  -0.36981  -0.36707
 Alpha  occ. eigenvalues --   -0.36488  -0.36459  -0.36142  -0.35862  -0.35711
 Alpha  occ. eigenvalues --   -0.35404  -0.35200  -0.35005  -0.34878  -0.34607
 Alpha  occ. eigenvalues --   -0.34095  -0.33980  -0.33739  -0.33685  -0.33465
 Alpha  occ. eigenvalues --   -0.33137  -0.33064  -0.32486  -0.32452  -0.32282
 Alpha  occ. eigenvalues --   -0.31991  -0.31732  -0.31629  -0.31283  -0.31009
 Alpha  occ. eigenvalues --   -0.30667  -0.30456  -0.30314  -0.30240  -0.29955
 Alpha  occ. eigenvalues --   -0.29662  -0.28876  -0.28551  -0.27921  -0.27586
 Alpha  occ. eigenvalues --   -0.27442  -0.26694  -0.26197  -0.25889  -0.25374
 Alpha  occ. eigenvalues --   -0.24779  -0.24322  -0.23043  -0.22527  -0.19461
 Alpha  occ. eigenvalues --   -0.18147
 Alpha virt. eigenvalues --   -0.09388  -0.07424  -0.03932  -0.01900  -0.01873
 Alpha virt. eigenvalues --   -0.00322  -0.00075   0.00822   0.02558   0.02867
 Alpha virt. eigenvalues --    0.03087   0.04239   0.04572   0.04872   0.04942

 Mulliken charges:
               1
     1  C   -0.038789
     2  C   -0.102112
     3  C   -0.152080
     4  C   -0.047963
     5  N   -0.182173
     6  C   -0.122552
     7  C   -0.041621
     8  C   -0.009331
     9  C    0.011644
    10  C    0.012706
    11  C    0.048063
    12  C    0.027557
    13  C    0.164421
    14  O   -0.288680
    15  O   -0.254656
    16  N   -0.067026
    17  C    0.050205
    18  C   -0.136901
    19  C    0.021249
    20  C    0.101660
    21  C    0.055001
    22  C   -0.088019
    23  C    0.047590
    24  N   -0.257154
    25  C    0.134317
    26  C   -0.193403
    27  C   -0.112635
    28  C    0.054234
    29  C    0.097102
    30  C    0.148949
    31  C    0.033061
    32  N   -0.088434
    33  C    0.005422
    34  C   -0.151957
    35  C   -0.025767
    36  C    0.201797
    37  C    0.115507
    38  C    0.051896
    39  O   -0.170959
    40  C   -0.030055
    41  C    0.216203
    42  O   -0.196556
    43  O   -0.277841
    44  C    0.211576
    45  C    0.299056
    46  C   -0.127146
    47  C   -0.043216
    48  C    0.065880
    49  C   -0.090888
    50  C    0.040950
    51  C   -0.033364
    52  C   -0.056785
    53  C    0.150461
    54  C   -0.001073
    55  C   -0.005100
    56  C   -0.082711
    57  C    0.059371
    58  C    0.054741
    59  C    0.052530
    60  C    0.027259
    61  C   -0.047044
    62  C   -0.053500
    63  C   -0.110410
    64  C    0.034272
    65  H    0.030288
    66  H   -0.009509
    67  H   -0.036618
    68  H    0.018860
    69  H   -0.013071
    70  H    0.001010
    71  H    0.030507
    72  H    0.052910
    73  H    0.059565
    74  H    0.016998
    75  H    0.029455
    76  H    0.032773
    77  H    0.050439
    78  H    0.011700
    79  H    0.029499
    80  H    0.020663
    81  H    0.025274
    82  H   -0.023614
    83  H    0.026170
    84  H    0.046327
    85  H   -0.009334
    86  H   -0.000131
    87  H   -0.049556
    88  H    0.019271
    89  H   -0.012323
    90  H    0.022687
    91  H    0.029152
    92  H    0.040626
    93  H    0.021789
    94  H    0.055656
    95  H    0.006317
    96  H    0.031792
    97  H    0.023034
    98  H    0.016908
    99  H    0.000082
   100  H    0.025112
   101  H    0.011225
   102  H   -0.001140
   103  H    0.025537
   104  H    0.006212
   105  H    0.037590
   106  H    0.006590
   107  H   -0.002786
   108  H    0.010055
   109  H   -0.000022
   110  H   -0.012032
   111  H    0.000323
   112  H    0.008979
   113  H   -0.013839
   114  H    0.008467
   115  H   -0.008179
   116  H    0.001909
   117  H    0.002322
   118  H   -0.024402
   119  H   -0.018299
   120  H   -0.052776
   121  H    0.001911
   122  H   -0.019071
   123  H    0.001854
   124  H   -0.041313
   125  H   -0.025699
   126  H    0.009637
   127  H    0.016428
   128  H    0.004544
   129  H    0.023093
   130  H   -0.014555
   131  H    0.044116
   132  H    0.020098
   133  H    0.023842
   134  H    0.026692
   135  H    0.016498
   136  H    0.017799
   137  H    0.208703
   138  H    0.172208
 Sum of Mulliken charges =  -0.00000

 Dipole moment (field-independent basis, Debye):
    X=              3.6646    Y=              2.1405    Z=              1.2055  Tot=              4.4119
 Quadrupole moment (field-independent basis, Debye-Ang):
   XX=           -352.0946   YY=           -377.5384   ZZ=           -394.4962
   XY=            -28.6242   XZ=             -6.2760   YZ=             -6.7100

 Normal termination of Gaussian 16 at Fri Aug  9 12:52:59 2019.
