 Gaussian 16, Revision A.03,
 Gaussian 16:  ES64L-G16RevA.03 25-Dec-2016

 --------------------------
 # td=(NStates=1) B3LYP/SVP
 --------------------------

 --
 TD
 --
 Symbolic Z-matrix:
 Charge =  0 Multiplicity = 1

                         Standard orientation:
 ---------------------------------------------------------------------
 Center     Atomic      Atomic             Coordinates (Angstroms)
 Number     Number       Type             X           Y           Z
 ---------------------------------------------------------------------
      1          6           0       -5.136502   -1.926691    0.524415
      2          6           0       -4.696741    2.818028    1.493640
      3          6           0       -9.192047    3.477864   -0.282865
      4          6           0       -9.776372   -1.332715   -0.985418
      5          7           0       -5.142713    0.472798    0.900178
      6          6           0       -4.479044   -0.767179    0.840991
      7          6           0       -3.024044   -0.604427    1.280149
      8          6           0       -2.975460    0.833310    1.769208
      9          6           0       -4.244737    1.397519    1.271011
     10          6           0       -2.788157    0.855307    3.286073
     11          6           0       -2.059005   -0.838532    0.069506
     12          6           0       -0.595132   -0.873633    0.487401
     13          6           0        0.363828   -1.234560   -0.600810
     14          8           0       -0.019097   -1.664131   -1.719530
     15          8           0        1.597178   -0.982176   -0.340506
     16          7           0       -6.929427    2.881317    0.498707
     17          6           0       -5.775790    3.457537    1.025859
     18          6           0       -6.071892    4.766183    1.109242
     19          6           0       -7.404614    5.077011    0.608034
     20          6           0       -7.894061    3.775098    0.219595
     21          6           0       -5.113590    5.806116    1.541250
     22          6           0       -7.912115    6.394671    0.353295
     23          6           0       -8.880672    6.713054   -0.589140
     24          7           0       -9.087491    1.055422   -0.557452
     25          6           0       -9.804051    2.188709   -0.555210
     26          6           0      -11.151646    1.960419   -0.970865
     27          6           0      -11.370170    0.666714   -1.158992
     28          6           0       -9.996532    0.021967   -0.889705
     29          6           0      -12.182009    3.128174   -1.016831
     30          6           0      -12.502362   -0.035211   -1.623892
     31          6           0      -12.597521   -0.460761   -3.118506
     32          7           0       -7.540568   -1.241487   -0.120020
     33          6           0       -8.602723   -2.006967   -0.631739
     34          6           0       -8.147571   -3.399455   -0.629466
     35          6           0       -6.817325   -3.438100   -0.316023
     36          6           0       -6.434237   -2.072877    0.009046
     37          6           0       -9.105326   -4.538491   -1.088922
     38          6           0       -5.736878   -4.276998   -0.039041
     39          8           0       -5.703881   -5.510282   -0.037524
     40          6           0       -4.496543   -3.415870    0.507344
     41          6           0       -4.082739   -3.839508    1.925738
     42          8           0       -4.309402   -3.351127    2.903349
     43          8           0       -3.356783   -4.958162    1.747420
     44          6           0       -2.841126   -5.606850    2.909006
     45          6           0        2.673287   -1.256927   -1.253825
     46          6           0        3.941945   -0.884466   -0.602757
     47          6           0        4.937506   -0.127844   -1.208643
     48          6           0        4.762187    0.640339   -2.586857
     49          6           0        6.158295    0.133351   -0.458225
     50          6           0        7.470171   -0.413398   -1.172937
     51          6           0        8.696884   -0.303833   -0.397319
     52          6           0       10.067795   -0.723834   -0.940510
     53          6           0       10.118637   -2.311385   -1.047817
     54          6           0       11.232593   -0.264747   -0.061661
     55          6           0       12.561659   -0.466431   -0.765227
     56          6           0       13.731191   -0.009255    0.090840
     57          6           0       15.269142   -0.242358   -0.291511
     58          6           0       15.636979   -1.718639   -0.389851
     59          6           0       16.238715    0.573365    0.572245
     60          6           0       17.582416    0.757385   -0.177869
     61          6           0       18.473039    1.634648    0.770572
     62          6           0       19.950985    1.856358    0.267067
     63          6           0       19.960552    2.392453   -1.068466
     64          6           0       20.819885    2.514849    1.255122
     65          1           0       -3.839937    3.473103    1.854460
     66          1           0       -9.927942    4.160585   -0.271967
     67          1           0      -10.663429   -1.834736   -1.261200
     68          1           0       -2.736270   -1.452167    1.958390
     69          1           0       -2.109293    1.442250    1.320241
     70          1           0       -1.848101    0.388533    3.378815
     71          1           0       -2.842173    1.788822    3.620993
     72          1           0       -3.565809    0.266901    3.948152
     73          1           0       -2.205889   -1.799523   -0.326239
     74          1           0       -2.249505   -0.141320   -0.744590
     75          1           0       -0.303094    0.135649    0.820233
     76          1           0       -0.539385   -1.662696    1.329846
     77          1           0       -4.060506    5.714529    1.308821
     78          1           0       -5.522957    6.863169    1.267147
     79          1           0       -4.924850    5.840253    2.829906
     80          1           0       -7.751405    7.190135    0.916097
     81          1           0       -9.020458    5.988506   -1.198440
     82          1           0       -9.492761    7.633868   -0.464067
     83          1           0      -12.163739    3.598375   -0.043848
     84          1           0      -11.730190    3.831347   -1.681467
     85          1           0      -13.125672    2.680702   -1.262179
     86          1           0      -12.444313   -0.974367   -1.104767
     87          1           0      -13.471681    0.426571   -1.380335
     88          1           0      -12.385209    0.469830   -3.798922
     89          1           0      -11.726578   -1.146971   -3.395550
     90          1           0      -13.441604   -1.019702   -3.371518
     91          1           0      -10.042162   -4.419606   -0.493259
     92          1           0       -9.527042   -4.477848   -2.073910
     93          1           0       -8.757620   -5.546292   -1.102505
     94          1           0       -3.856481   -3.622464   -0.227402
     95          1           0       -1.967982   -6.278126    2.641454
     96          1           0       -2.418830   -4.885136    3.550374
     97          1           0       -3.592552   -6.213684    3.636737
     98          1           0        2.842831   -2.412705   -1.496602
     99          1           0        2.655528   -0.726937   -2.088778
    100          1           0        4.072836   -1.277940    0.290008
    101          1           0        4.778908    1.757541   -2.435910
    102          1           0        5.444531    0.207292   -3.440471
    103          1           0        3.749418    0.524296   -2.932437
    104          1           0        6.215669    1.239105   -0.239170
    105          1           0        6.201620   -0.278497    0.549315
    106          1           0        7.135519   -1.543248   -1.147229
    107          1           0        7.473934    0.024462   -2.072261
    108          1           0        8.825417    0.853546   -0.096885
    109          1           0        8.434474   -0.645569    0.529720
    110          1           0       10.194640   -0.161027   -1.879038
    111          1           0        9.278332   -2.839979   -1.674169
    112          1           0       11.101907   -2.698435   -1.580494
    113          1           0        9.728588   -2.751089   -0.124789
    114          1           0       10.986901    0.787706    0.056493
    115          1           0       11.317493   -1.029212    0.946083
    116          1           0       12.693770   -1.488728   -1.133320
    117          1           0       12.578502   -0.146992   -1.862716
    118          1           0       13.658639    0.963406    0.145820
    119          1           0       13.664963   -0.395492    1.053283
    120          1           0       15.124453    0.145895   -1.399744
    121          1           0       14.954148   -2.396070   -1.034471
    122          1           0       16.744259   -1.889323   -0.882478
    123          1           0       15.389308   -2.286203    0.561771
    124          1           0       15.874798    1.519381    0.548033
    125          1           0       16.246570    0.201801    1.687689
    126          1           0       18.161084   -0.181097   -0.375943
    127          1           0       17.542560    1.070440   -1.319287
    128          1           0       18.285944    2.771193    0.802193
    129          1           0       18.616410    1.249848    1.889349
    130          1           0       20.339076    0.700688    0.282520
    131          1           0       19.604528    3.369168   -0.875360
    132          1           0       20.927659    2.585604   -1.425002
    133          1           0       19.604725    1.753022   -1.860673
    134          1           0       20.703887    2.132179    2.350335
    135          1           0       21.776638    2.607336    0.902782
    136          1           0       20.448225    3.484414    1.454398
    137          1           0       -7.094183    1.874580    0.321667
    138          1           0       -7.345540   -0.233100   -0.243798
 ---------------------------------------------------------------------

 SCF Done:  E(RB3LYP) =  -2733.07795816     A.U. after   18 cycles

 Excitation energies and oscillator strengths:

 Excited State   1:      Singlet-A      1.9958 eV  621.23 nm  f=0.1746  <S**2>=0.000
     235 -> 237       -0.13082
     235 -> 238       -0.28810
     236 -> 237        0.62180
     236 -> 238       -0.10358
 This state for optimization and/or second-order correction.
 Total Energy, E(TD-HF/TD-DFT) =  -2733.00461460
 Copying the excited state density for this state as the 1-particle RhoCI density.

 The electronic state is 1-A.
 Alpha  occ. eigenvalues --  -19.19080 -19.16919 -19.13271 -19.11261 -19.10904
 Alpha  occ. eigenvalues --  -14.37148 -14.36197 -14.32867 -14.29979 -10.31432
 Alpha  occ. eigenvalues --  -10.31074 -10.27023 -10.25189 -10.24845 -10.24151
 Alpha  occ. eigenvalues --  -10.23886 -10.23762 -10.23524 -10.22900 -10.22738
 Alpha  occ. eigenvalues --  -10.22163 -10.21561 -10.21306 -10.21232 -10.21166
 Alpha  occ. eigenvalues --  -10.20995 -10.20964 -10.20956 -10.20789 -10.20668
 Alpha  occ. eigenvalues --  -10.20600 -10.20464 -10.20300 -10.19936 -10.19907
 Alpha  occ. eigenvalues --  -10.19759 -10.19675 -10.19674 -10.19532 -10.19508
 Alpha  occ. eigenvalues --  -10.19385 -10.19259 -10.19235 -10.19227 -10.19181
 Alpha  occ. eigenvalues --  -10.19149 -10.19098 -10.18870 -10.18869 -10.18710
 Alpha  occ. eigenvalues --  -10.18486 -10.18485 -10.18466 -10.18457 -10.18454
 Alpha  occ. eigenvalues --  -10.18434 -10.18389 -10.18177 -10.18145 -10.18003
 Alpha  occ. eigenvalues --  -10.17798 -10.16946 -10.16340 -10.16103  -1.12436
 Alpha  occ. eigenvalues --   -1.11279  -1.03564  -1.00959  -0.98538  -0.98124
 Alpha  occ. eigenvalues --   -0.97220  -0.94304  -0.92747  -0.84184  -0.83337
 Alpha  occ. eigenvalues --   -0.82167  -0.81911  -0.81816  -0.81574  -0.81259
 Alpha  occ. eigenvalues --   -0.80465  -0.80293  -0.80025  -0.79058  -0.78755
 Alpha  occ. eigenvalues --   -0.77632  -0.76294  -0.75647  -0.75506  -0.74572
 Alpha  occ. eigenvalues --   -0.73794  -0.73436  -0.73077  -0.71404  -0.70676
 Alpha  occ. eigenvalues --   -0.69839  -0.69352  -0.69087  -0.68889  -0.68679
 Alpha  occ. eigenvalues --   -0.67824  -0.66626  -0.66421  -0.66328  -0.66138
 Alpha  occ. eigenvalues --   -0.64629  -0.63604  -0.62948  -0.62672  -0.62108
 Alpha  occ. eigenvalues --   -0.61563  -0.59612  -0.59023  -0.58394  -0.57937
 Alpha  occ. eigenvalues --   -0.57688  -0.57176  -0.56517  -0.56163  -0.55859
 Alpha  occ. eigenvalues --   -0.55347  -0.54777  -0.54652  -0.54230  -0.53260
 Alpha  occ. eigenvalues --   -0.53143  -0.52844  -0.51999  -0.51363  -0.51066
 Alpha  occ. eigenvalues --   -0.50750  -0.49852  -0.49248  -0.49216  -0.48610
 Alpha  occ. eigenvalues --   -0.48358  -0.48198  -0.47947  -0.47880  -0.47613
 Alpha  occ. eigenvalues --   -0.47259  -0.47032  -0.46420  -0.46020  -0.45982
 Alpha  occ. eigenvalues --   -0.45702  -0.45378  -0.45243  -0.45143  -0.44866
 Alpha  occ. eigenvalues --   -0.44650  -0.44555  -0.44283  -0.44024  -0.43727
 Alpha  occ. eigenvalues --   -0.43570  -0.43427  -0.43142  -0.43020  -0.42922
 Alpha  occ. eigenvalues --   -0.42701  -0.42417  -0.42237  -0.42150  -0.41762
 Alpha  occ. eigenvalues --   -0.41559  -0.41333  -0.41166  -0.41099  -0.40641
 Alpha  occ. eigenvalues --   -0.40444  -0.40171  -0.39955  -0.39837  -0.39115
 Alpha  occ. eigenvalues --   -0.39010  -0.38921  -0.38587  -0.38579  -0.38381
 Alpha  occ. eigenvalues --   -0.38280  -0.38070  -0.37976  -0.37845  -0.37784
 Alpha  occ. eigenvalues --   -0.37745  -0.37722  -0.37527  -0.37147  -0.36979
 Alpha  occ. eigenvalues --   -0.36906  -0.36731  -0.36559  -0.36253  -0.36023
 Alpha  occ. eigenvalues --   -0.36016  -0.35592  -0.35359  -0.35278  -0.34837
 Alpha  occ. eigenvalues --   -0.34696  -0.34574  -0.34463  -0.34348  -0.34242
 Alpha  occ. eigenvalues --   -0.33991  -0.33950  -0.33366  -0.33056  -0.32880
 Alpha  occ. eigenvalues --   -0.32685  -0.32032  -0.31849  -0.31617  -0.31316
 Alpha  occ. eigenvalues --   -0.30612  -0.30601  -0.30430  -0.30216  -0.30061
 Alpha  occ. eigenvalues --   -0.29710  -0.29227  -0.28408  -0.28405  -0.27736
 Alpha  occ. eigenvalues --   -0.27264  -0.26776  -0.26669  -0.26346  -0.26333
 Alpha  occ. eigenvalues --   -0.24649  -0.24274  -0.23209  -0.22808  -0.19822
 Alpha  occ. eigenvalues --   -0.18897
 Alpha virt. eigenvalues --   -0.10531  -0.07881  -0.05150  -0.02402  -0.01165
 Alpha virt. eigenvalues --   -0.00211   0.00227   0.01372   0.02276   0.03791
 Alpha virt. eigenvalues --    0.03917   0.04385   0.04589   0.04770   0.04889

 Mulliken charges:
               1
     1  C    0.001441
     2  C   -0.101775
     3  C   -0.005531
     4  C   -0.069060
     5  N   -0.193711
     6  C   -0.047588
     7  C   -0.043098
     8  C   -0.018325
     9  C   -0.023805
    10  C    0.132003
    11  C    0.061340
    12  C    0.033346
    13  C    0.164439
    14  O   -0.293901
    15  O   -0.261711
    16  N   -0.064213
    17  C    0.177136
    18  C   -0.079632
    19  C    0.083120
    20  C    0.082009
    21  C   -0.004217
    22  C   -0.069254
    23  C    0.047958
    24  N   -0.245737
    25  C    0.000887
    26  C   -0.171993
    27  C   -0.054768
    28  C    0.048971
    29  C    0.173956
    30  C    0.052322
    31  C    0.001917
    32  N   -0.077741
    33  C    0.119075
    34  C   -0.123889
    35  C    0.080315
    36  C    0.037768
    37  C    0.117742
    38  C   -0.017326
    39  O   -0.190231
    40  C    0.011406
    41  C    0.180759
    42  O   -0.107851
    43  O   -0.299523
    44  C    0.157445
    45  C    0.389970
    46  C   -0.101244
    47  C   -0.125128
    48  C    0.044802
    49  C    0.051766
    50  C    0.056585
    51  C    0.047283
    52  C   -0.022432
    53  C   -0.021395
    54  C    0.022200
    55  C    0.024221
    56  C    0.151517
    57  C   -0.130992
    58  C   -0.020316
    59  C    0.136836
    60  C   -0.018334
    61  C   -0.039736
    62  C   -0.165538
    63  C    0.147167
    64  C    0.107851
    65  H   -0.008514
    66  H   -0.084361
    67  H   -0.051582
    68  H    0.008137
    69  H    0.008589
    70  H    0.001126
    71  H   -0.028713
    72  H    0.040761
    73  H   -0.003404
    74  H    0.001334
    75  H    0.022297
    76  H    0.038310
    77  H    0.023240
    78  H    0.037110
    79  H    0.023568
    80  H   -0.046535
    81  H   -0.038648
    82  H    0.035853
    83  H    0.019936
    84  H    0.012666
    85  H    0.004179
    86  H   -0.009108
    87  H    0.000244
    88  H    0.024445
    89  H    0.004752
    90  H    0.008935
    91  H    0.015902
    92  H    0.008867
    93  H    0.023527
    94  H    0.008401
    95  H    0.037871
    96  H    0.002153
    97  H    0.047167
    98  H    0.051040
    99  H   -0.055127
   100  H   -0.066683
   101  H    0.035089
   102  H    0.058209
   103  H   -0.007599
   104  H    0.003251
   105  H   -0.017706
   106  H    0.008025
   107  H   -0.035924
   108  H   -0.024469
   109  H   -0.051026
   110  H   -0.013108
   111  H    0.002370
   112  H    0.043634
   113  H    0.007437
   114  H   -0.002963
   115  H    0.024150
   116  H   -0.035613
   117  H   -0.026047
   118  H   -0.059618
   119  H   -0.037631
   120  H   -0.003080
   121  H    0.005756
   122  H    0.034099
   123  H    0.004301
   124  H   -0.035781
   125  H    0.024121
   126  H   -0.002933
   127  H    0.023086
   128  H   -0.004123
   129  H    0.018661
   130  H   -0.020217
   131  H   -0.025800
   132  H   -0.032486
   133  H    0.009700
   134  H    0.007072
   135  H   -0.008448
   136  H   -0.035500
   137  H    0.143988
   138  H    0.173824
 Sum of Mulliken charges =  -0.00000

 Dipole moment (field-independent basis, Debye):
    X=              3.0100    Y=              4.1497    Z=              0.7240  Tot=              5.1772
 Quadrupole moment (field-independent basis, Debye-Ang):
   XX=           -353.4167   YY=           -390.0573   ZZ=           -393.9576
   XY=            -12.5274   XZ=              3.9381   YZ=             -2.8359

 Normal termination of Gaussian 16 at Sat Aug 17 03:02:58 2019.
