 Gaussian 16, Revision A.03,
 Gaussian 16:  ES64L-G16RevA.03 25-Dec-2016

 --------------------------
 # td=(NStates=1) B3LYP/SVP
 --------------------------

 --
 TD
 --
 Symbolic Z-matrix:
 Charge =  0 Multiplicity = 1

                         Standard orientation:
 ---------------------------------------------------------------------
 Center     Atomic      Atomic             Coordinates (Angstroms)
 Number     Number       Type             X           Y           Z
 ---------------------------------------------------------------------
      1          6           0       -5.197663   -1.858517    0.436604
      2          6           0       -4.751022    2.891987    1.294642
      3          6           0       -9.350521    3.362220   -0.236105
      4          6           0       -9.893315   -1.477237   -0.864429
      5          7           0       -5.159712    0.512434    0.770200
      6          6           0       -4.534435   -0.652737    0.816801
      7          6           0       -3.130761   -0.517923    1.194337
      8          6           0       -3.080577    0.947860    1.737574
      9          6           0       -4.354100    1.510658    1.152462
     10          6           0       -3.092988    0.963559    3.262366
     11          6           0       -2.055770   -0.736237    0.005075
     12          6           0       -0.621883   -0.690782    0.452126
     13          6           0        0.368734   -0.999479   -0.680758
     14          8           0        0.040687   -1.246520   -1.822340
     15          8           0        1.670236   -0.811577   -0.314374
     16          7           0       -7.008150    2.762799    0.455613
     17          6           0       -5.987916    3.405761    1.003146
     18          6           0       -6.347343    4.831168    0.975507
     19          6           0       -7.494031    5.016708    0.499754
     20          6           0       -8.053264    3.641709    0.173408
     21          6           0       -5.304407    5.865599    1.494047
     22          6           0       -8.287475    6.224895    0.221537
     23          6           0       -9.083132    6.635383   -0.778280
     24          7           0       -9.188007    0.890070   -0.572459
     25          6           0       -9.916813    2.067164   -0.537186
     26          6           0      -11.359991    1.814307   -0.806415
     27          6           0      -11.398134    0.456688   -1.078317
     28          6           0      -10.116065   -0.098903   -0.781037
     29          6           0      -12.312286    2.964601   -1.039752
     30          6           0      -12.570388   -0.322875   -1.546109
     31          6           0      -12.642160   -0.616656   -3.023030
     32          7           0       -7.600552   -1.236953   -0.171072
     33          6           0       -8.681607   -2.030946   -0.516920
     34          6           0       -8.272980   -3.399767   -0.497715
     35          6           0       -6.927657   -3.398104   -0.194139
     36          6           0       -6.530036   -1.965184    0.049890
     37          6           0       -9.058441   -4.546313   -0.929692
     38          6           0       -5.716209   -4.275789    0.098235
     39          8           0       -5.737167   -5.521674    0.144105
     40          6           0       -4.579659   -3.252005    0.487066
     41          6           0       -3.974607   -3.795292    1.757743
     42          8           0       -4.216560   -3.232314    2.844122
     43          8           0       -3.142406   -4.859978    1.635001
     44          6           0       -2.533433   -5.372965    2.790167
     45          6           0        2.714414   -1.103379   -1.174631
     46          6           0        4.062624   -0.691804   -0.519683
     47          6           0        5.158852   -0.149127   -1.186090
     48          6           0        5.154070    0.267954   -2.670006
     49          6           0        6.334126    0.083618   -0.317237
     50          6           0        7.666167   -0.667952   -1.085298
     51          6           0        8.843775   -0.488192    0.025857
     52          6           0       10.154846   -0.923744   -0.832414
     53          6           0       10.191700   -2.500972   -1.279729
     54          6           0       11.415252   -0.601042    0.006274
     55          6           0       12.789637   -0.690874   -0.606032
     56          6           0       13.831045   -0.022024    0.250105
     57          6           0       15.256769   -0.070565   -0.328248
     58          6           0       15.657414   -1.549028   -0.673127
     59          6           0       16.289639    0.713015    0.627118
     60          6           0       17.660303    0.855883    0.019313
     61          6           0       18.648454    1.635504    0.807616
     62          6           0       20.111032    1.754802    0.215131
     63          6           0       20.105393    2.610746   -1.132193
     64          6           0       20.975067    2.470459    1.223088
     65          1           0       -4.159618    3.642630    1.708750
     66          1           0       -9.989580    4.312367   -0.364219
     67          1           0      -10.500860   -2.187538   -1.096774
     68          1           0       -2.922086   -1.167356    2.037654
     69          1           0       -2.172925    1.495341    1.203144
     70          1           0       -2.050200    0.680692    3.644897
     71          1           0       -3.344109    2.096419    3.780642
     72          1           0       -3.685910    0.288082    3.952143
     73          1           0       -2.100862   -1.731090   -0.524206
     74          1           0       -2.320823   -0.018796   -0.949857
     75          1           0       -0.307314    0.264908    0.699469
     76          1           0       -0.627173   -1.431101    0.938162
     77          1           0       -4.837491    6.353536    0.358149
     78          1           0       -5.884818    6.842643    2.137365
     79          1           0       -4.711758    5.227262    2.300570
     80          1           0       -7.897207    7.014327    0.907765
     81          1           0       -9.227666    5.964445   -1.605308
     82          1           0       -9.468581    7.716027   -0.833509
     83          1           0      -12.396625    3.742020    0.000234
     84          1           0      -12.216788    3.505320   -1.992877
     85          1           0      -13.449422    2.635949   -1.040963
     86          1           0      -12.503730   -1.235757   -0.966668
     87          1           0      -13.492736    0.125590   -1.247591
     88          1           0      -12.649480    0.411082   -3.449076
     89          1           0      -11.777208   -1.243626   -3.188901
     90          1           0      -13.680602   -1.078373   -3.239245
     91          1           0      -10.114987   -4.679408   -0.544196
     92          1           0       -9.100793   -4.434025   -2.077802
     93          1           0       -8.336473   -5.495870   -0.696717
     94          1           0       -3.840436   -3.120842   -0.383797
     95          1           0       -1.918546   -6.027830    2.592672
     96          1           0       -2.274434   -4.452649    3.597697
     97          1           0       -3.278577   -5.915095    3.342337
     98          1           0        2.891744   -2.199965   -1.226768
     99          1           0        2.641597   -0.602499   -2.116061
    100          1           0        4.102846   -0.986278    0.534759
    101          1           0        5.734216    1.268053   -2.829400
    102          1           0        5.675505   -0.437067   -3.165225
    103          1           0        4.119645    0.506343   -2.956684
    104          1           0        6.538328    1.236499   -0.131995
    105          1           0        6.004725   -0.313802    0.726166
    106          1           0        7.307935   -1.538081   -1.248923
    107          1           0        7.612574   -0.080759   -2.104675
    108          1           0        8.960024    0.445987    0.181814
    109          1           0        8.703541   -1.265614    0.884931
    110          1           0       10.093917   -0.212271   -1.759032
    111          1           0        9.556499   -2.828070   -2.113060
    112          1           0       11.084578   -2.611266   -1.593217
    113          1           0        9.770415   -2.958052   -0.496572
    114          1           0       11.332462    0.501378    0.192044
    115          1           0       11.470708   -1.275546    0.874112
    116          1           0       13.150770   -1.807204   -0.829343
    117          1           0       12.725794   -0.119007   -1.648533
    118          1           0       13.531106    0.996589    0.560462
    119          1           0       13.977931   -0.808281    1.250824
    120          1           0       15.013942    0.486834   -1.326688
    121          1           0       15.007064   -1.818762   -1.695322
    122          1           0       16.644265   -1.647152   -1.264195
    123          1           0       15.858509   -2.151626    0.141141
    124          1           0       15.950602    1.696951    0.889745
    125          1           0       16.254923    0.262572    1.765264
    126          1           0       18.007238   -0.206450   -0.229255
    127          1           0       17.397372    1.231639   -0.942540
    128          1           0       18.275640    2.797196    1.037429
    129          1           0       18.854775    1.180227    1.829609
    130          1           0       20.285792    0.772139   -0.143134
    131          1           0       19.918886    3.733871   -0.733453
    132          1           0       21.179152    2.318887   -1.785396
    133          1           0       19.228483    2.438364   -1.822782
    134          1           0       21.291628    1.894433    2.225969
    135          1           0       21.834966    2.856267    0.514719
    136          1           0       20.655390    3.412847    1.747636
    137          1           0       -7.121788    1.735517    0.389731
    138          1           0       -7.576722   -0.281090   -0.426636
 ---------------------------------------------------------------------

 SCF Done:  E(RB3LYP) =  -2732.91300074     A.U. after   17 cycles

 Excitation energies and oscillator strengths:

 Excited State   1:      Singlet-A      2.1337 eV  581.08 nm  f=0.1235  <S**2>=0.000
     235 -> 238       -0.35451
     236 -> 237        0.60828
 This state for optimization and/or second-order correction.
 Total Energy, E(TD-HF/TD-DFT) =  -2732.83458964
 Copying the excited state density for this state as the 1-particle RhoCI density.

 The electronic state is 1-A.
 Alpha  occ. eigenvalues --  -19.18783 -19.17941 -19.12793 -19.12710 -19.12585
 Alpha  occ. eigenvalues --  -14.37252 -14.36437 -14.32088 -14.29685 -10.32688
 Alpha  occ. eigenvalues --  -10.31962 -10.28940 -10.24588 -10.24566 -10.23968
 Alpha  occ. eigenvalues --  -10.23662 -10.23603 -10.23355 -10.23289 -10.22869
 Alpha  occ. eigenvalues --  -10.22833 -10.22283 -10.21544 -10.21390 -10.21334
 Alpha  occ. eigenvalues --  -10.21136 -10.21119 -10.21025 -10.20950 -10.20830
 Alpha  occ. eigenvalues --  -10.20767 -10.20613 -10.20588 -10.20528 -10.20385
 Alpha  occ. eigenvalues --  -10.20374 -10.20210 -10.20027 -10.19979 -10.19961
 Alpha  occ. eigenvalues --  -10.19909 -10.19796 -10.19649 -10.19538 -10.19501
 Alpha  occ. eigenvalues --  -10.19499 -10.19450 -10.19391 -10.19382 -10.19226
 Alpha  occ. eigenvalues --  -10.19173 -10.19146 -10.19071 -10.19001 -10.18790
 Alpha  occ. eigenvalues --  -10.18764 -10.18731 -10.18320 -10.18289 -10.18043
 Alpha  occ. eigenvalues --  -10.17888 -10.17546 -10.17384 -10.16080  -1.09847
 Alpha  occ. eigenvalues --   -1.09565  -1.01218  -1.01182  -0.99839  -0.99253
 Alpha  occ. eigenvalues --   -0.99091  -0.95976  -0.92314  -0.84452  -0.83033
 Alpha  occ. eigenvalues --   -0.82443  -0.81737  -0.81596  -0.81116  -0.80494
 Alpha  occ. eigenvalues --   -0.80299  -0.79524  -0.78823  -0.78733  -0.78205
 Alpha  occ. eigenvalues --   -0.76856  -0.76092  -0.75797  -0.74851  -0.74426
 Alpha  occ. eigenvalues --   -0.74145  -0.73178  -0.72789  -0.71389  -0.70376
 Alpha  occ. eigenvalues --   -0.70057  -0.69160  -0.68816  -0.68073  -0.67332
 Alpha  occ. eigenvalues --   -0.66766  -0.66321  -0.65374  -0.65269  -0.65042
 Alpha  occ. eigenvalues --   -0.64418  -0.63041  -0.62552  -0.61922  -0.60744
 Alpha  occ. eigenvalues --   -0.60424  -0.59447  -0.59212  -0.58445  -0.57938
 Alpha  occ. eigenvalues --   -0.56911  -0.56549  -0.56216  -0.55901  -0.55499
 Alpha  occ. eigenvalues --   -0.55161  -0.54278  -0.54001  -0.53754  -0.53345
 Alpha  occ. eigenvalues --   -0.52926  -0.52606  -0.51882  -0.51655  -0.51153
 Alpha  occ. eigenvalues --   -0.50578  -0.49380  -0.49073  -0.48881  -0.48832
 Alpha  occ. eigenvalues --   -0.48531  -0.48232  -0.47710  -0.47468  -0.47007
 Alpha  occ. eigenvalues --   -0.46787  -0.46441  -0.46277  -0.45850  -0.45809
 Alpha  occ. eigenvalues --   -0.45712  -0.45542  -0.45412  -0.45177  -0.45051
 Alpha  occ. eigenvalues --   -0.44915  -0.44630  -0.44441  -0.43901  -0.43860
 Alpha  occ. eigenvalues --   -0.43601  -0.43368  -0.42968  -0.42928  -0.42733
 Alpha  occ. eigenvalues --   -0.42461  -0.42329  -0.41911  -0.41761  -0.41443
 Alpha  occ. eigenvalues --   -0.41245  -0.41077  -0.40478  -0.40291  -0.40099
 Alpha  occ. eigenvalues --   -0.39969  -0.39789  -0.39430  -0.39261  -0.39099
 Alpha  occ. eigenvalues --   -0.39000  -0.38917  -0.38736  -0.38578  -0.38210
 Alpha  occ. eigenvalues --   -0.37976  -0.37817  -0.37618  -0.37321  -0.37271
 Alpha  occ. eigenvalues --   -0.36944  -0.36805  -0.36664  -0.36477  -0.36240
 Alpha  occ. eigenvalues --   -0.36132  -0.35822  -0.35791  -0.35589  -0.35375
 Alpha  occ. eigenvalues --   -0.35366  -0.35217  -0.35174  -0.34778  -0.34673
 Alpha  occ. eigenvalues --   -0.34563  -0.34166  -0.34135  -0.33641  -0.33577
 Alpha  occ. eigenvalues --   -0.33478  -0.33417  -0.32942  -0.32349  -0.32334
 Alpha  occ. eigenvalues --   -0.32131  -0.31998  -0.31806  -0.31278  -0.30959
 Alpha  occ. eigenvalues --   -0.30845  -0.30770  -0.30420  -0.30104  -0.30040
 Alpha  occ. eigenvalues --   -0.29316  -0.28876  -0.28241  -0.28092  -0.27836
 Alpha  occ. eigenvalues --   -0.27645  -0.27005  -0.26441  -0.26232  -0.25930
 Alpha  occ. eigenvalues --   -0.25443  -0.25049  -0.23024  -0.22037  -0.20009
 Alpha  occ. eigenvalues --   -0.18463
 Alpha virt. eigenvalues --   -0.09230  -0.08155  -0.04656  -0.02185  -0.01075
 Alpha virt. eigenvalues --   -0.00129   0.00451   0.00685   0.02203   0.02227
 Alpha virt. eigenvalues --    0.03752   0.04104   0.04234   0.04279   0.04683

 Mulliken charges:
               1
     1  C   -0.046428
     2  C   -0.017422
     3  C   -0.086290
     4  C   -0.022771
     5  N   -0.135165
     6  C   -0.076270
     7  C    0.013001
     8  C   -0.034306
     9  C    0.006400
    10  C   -0.021175
    11  C   -0.092738
    12  C    0.327878
    13  C    0.114773
    14  O   -0.228572
    15  O   -0.309295
    16  N   -0.026504
    17  C    0.046529
    18  C   -0.094920
    19  C    0.050923
    20  C    0.047157
    21  C   -0.078117
    22  C   -0.054871
    23  C   -0.023528
    24  N   -0.268222
    25  C    0.044482
    26  C   -0.093531
    27  C   -0.118556
    28  C    0.161113
    29  C   -0.018242
    30  C    0.087295
    31  C    0.030599
    32  N    0.045803
    33  C    0.031505
    34  C   -0.131822
    35  C   -0.038301
    36  C    0.049340
    37  C    0.001475
    38  C    0.107096
    39  O   -0.197418
    40  C   -0.006717
    41  C    0.235150
    42  O   -0.263740
    43  O   -0.289713
    44  C    0.264882
    45  C    0.306394
    46  C   -0.159311
    47  C   -0.164484
    48  C    0.106128
    49  C   -0.005015
    50  C   -0.000606
    51  C    0.161983
    52  C   -0.172000
    53  C    0.159156
    54  C    0.069089
    55  C   -0.042892
    56  C   -0.015714
    57  C   -0.085072
    58  C    0.001355
    59  C    0.011589
    60  C    0.084321
    61  C   -0.022716
    62  C   -0.032846
    63  C   -0.093591
    64  C   -0.009649
    65  H   -0.071063
    66  H    0.009588
    67  H   -0.132478
    68  H    0.004297
    69  H    0.024824
    70  H    0.018926
    71  H    0.027111
    72  H    0.052451
    73  H    0.020568
    74  H    0.031422
    75  H    0.018632
    76  H   -0.095027
    77  H    0.083316
    78  H    0.056746
    79  H    0.073632
    80  H   -0.005459
    81  H    0.027374
    82  H    0.049902
    83  H    0.041063
    84  H    0.043175
    85  H    0.016245
    86  H   -0.014290
    87  H   -0.025000
    88  H    0.015109
    89  H    0.015143
    90  H    0.022949
    91  H    0.045468
    92  H    0.047964
    93  H    0.072257
    94  H    0.079315
    95  H   -0.049463
    96  H    0.053844
    97  H    0.008729
    98  H    0.022149
    99  H   -0.001695
   100  H   -0.003888
   101  H    0.022537
   102  H    0.010830
   103  H    0.028401
   104  H    0.023292
   105  H    0.008337
   106  H   -0.038752
   107  H    0.027290
   108  H   -0.059339
   109  H    0.031515
   110  H   -0.001603
   111  H   -0.007349
   112  H   -0.041689
   113  H   -0.024422
   114  H   -0.008293
   115  H   -0.005565
   116  H    0.035130
   117  H   -0.009853
   118  H    0.004672
   119  H   -0.003128
   120  H   -0.003562
   121  H    0.041407
   122  H    0.007621
   123  H    0.006506
   124  H   -0.024580
   125  H   -0.004312
   126  H   -0.005761
   127  H   -0.018669
   128  H    0.001935
   129  H    0.004595
   130  H   -0.011518
   131  H    0.026197
   132  H    0.043606
   133  H    0.024876
   134  H    0.024398
   135  H    0.021589
   136  H    0.017343
   137  H    0.152589
   138  H    0.133004
 Sum of Mulliken charges =  -0.00000

 Dipole moment (field-independent basis, Debye):
    X=              3.2575    Y=              3.5241    Z=              0.1470  Tot=              4.8013
 Quadrupole moment (field-independent basis, Debye-Ang):
   XX=           -377.1081   YY=           -381.4848   ZZ=           -396.0644
   XY=            -30.3665   XZ=              6.7876   YZ=             -1.9967

 Normal termination of Gaussian 16 at Sat Aug 31 11:11:41 2019.
