 Gaussian 16, Revision A.03,
 Gaussian 16:  ES64L-G16RevA.03 25-Dec-2016

 --------------------------
 # td=(NStates=1) B3LYP/SVP
 --------------------------

 --
 TD
 --
 Symbolic Z-matrix:
 Charge =  0 Multiplicity = 1

                         Standard orientation:
 ---------------------------------------------------------------------
 Center     Atomic      Atomic             Coordinates (Angstroms)
 Number     Number       Type             X           Y           Z
 ---------------------------------------------------------------------
      1          6           0       -5.161626   -1.955767    0.378521
      2          6           0       -4.759414    2.724498    1.568607
      3          6           0       -9.347719    3.388677   -0.235568
      4          6           0       -9.975173   -1.417598   -0.880573
      5          7           0       -5.230443    0.399802    0.865057
      6          6           0       -4.456855   -0.753999    0.821445
      7          6           0       -3.096303   -0.657707    1.325204
      8          6           0       -3.098219    0.867978    1.862521
      9          6           0       -4.444260    1.365107    1.424948
     10          6           0       -2.955001    0.830514    3.351463
     11          6           0       -2.020003   -0.768244    0.154353
     12          6           0       -0.562099   -0.743468    0.659521
     13          6           0        0.351366   -1.004109   -0.447940
     14          8           0        0.068955   -1.518315   -1.538695
     15          8           0        1.607554   -0.601576   -0.142107
     16          7           0       -7.016959    2.842566    0.484887
     17          6           0       -5.936278    3.432725    1.045375
     18          6           0       -6.192511    4.833265    1.101051
     19          6           0       -7.450606    5.055489    0.509997
     20          6           0       -7.989955    3.706807    0.203184
     21          6           0       -5.262339    5.894939    1.499604
     22          6           0       -8.204172    6.307544    0.313308
     23          6           0       -8.889508    6.552218   -0.817300
     24          7           0       -9.273396    0.894119   -0.475504
     25          6           0       -9.882751    2.122945   -0.574046
     26          6           0      -11.328947    1.934527   -1.050364
     27          6           0      -11.387607    0.577842   -1.155068
     28          6           0      -10.176107   -0.020781   -0.795367
     29          6           0      -12.237684    3.107316   -1.225414
     30          6           0      -12.630559   -0.138580   -1.760093
     31          6           0      -12.636463   -0.549649   -3.104438
     32          7           0       -7.610578   -1.303031   -0.161204
     33          6           0       -8.755762   -1.998879   -0.533313
     34          6           0       -8.274859   -3.452398   -0.653630
     35          6           0       -6.959279   -3.485721   -0.126020
     36          6           0       -6.535481   -2.089642    0.038556
     37          6           0       -9.126378   -4.554512   -1.057604
     38          6           0       -5.849788   -4.299733    0.037075
     39          8           0       -5.685467   -5.555895   -0.178805
     40          6           0       -4.674495   -3.368872    0.408826
     41          6           0       -3.901196   -3.880334    1.629030
     42          8           0       -4.209860   -3.579644    2.799907
     43          8           0       -3.037459   -4.909562    1.210167
     44          6           0       -2.249065   -5.394124    2.278669
     45          6           0        2.559364   -1.064953   -1.090893
     46          6           0        3.986998   -0.792200   -0.454010
     47          6           0        4.943358   -0.011150   -0.968497
     48          6           0        4.908262    0.607160   -2.261024
     49          6           0        6.345856    0.027114   -0.180474
     50          6           0        7.559633   -0.390898   -0.970608
     51          6           0        8.723371   -0.254021   -0.054300
     52          6           0       10.127959   -0.710456   -0.636324
     53          6           0       10.164525   -2.208845   -0.675522
     54          6           0       11.304257   -0.174090    0.053377
     55          6           0       12.664572   -0.432262   -0.479521
     56          6           0       13.946714    0.052067    0.282113
     57          6           0       15.243460   -0.177366   -0.291997
     58          6           0       15.580711   -1.640470   -0.550776
     59          6           0       16.359777    0.597199    0.438579
     60          6           0       17.730358    0.752984   -0.314311
     61          6           0       18.699745    1.590373    0.497949
     62          6           0       20.027347    1.634351   -0.088451
     63          6           0       20.166799    2.218293   -1.479517
     64          6           0       21.013612    2.361720    0.917787
     65          1           0       -4.105980    3.377230    1.909351
     66          1           0       -9.980005    4.277618   -0.295310
     67          1           0      -10.768049   -1.958132   -1.282804
     68          1           0       -3.076434   -1.285692    2.147887
     69          1           0       -2.121044    1.317640    1.588359
     70          1           0       -2.096844    0.487645    3.806938
     71          1           0       -2.985073    1.840975    3.838587
     72          1           0       -3.736758    0.142039    3.824204
     73          1           0       -2.191264   -1.894964   -0.328420
     74          1           0       -2.214551    0.158368   -0.500750
     75          1           0       -0.250586    0.197197    0.990269
     76          1           0       -0.620111   -1.558618    1.303928
     77          1           0       -4.231332    5.755626    0.795237
     78          1           0       -5.587664    7.033445    1.304358
     79          1           0       -4.863294    5.800689    2.633825
     80          1           0       -7.956437    6.995793    1.193552
     81          1           0       -9.056373    5.887635   -1.787343
     82          1           0       -9.581761    7.508637   -0.728361
     83          1           0      -12.676417    3.470319   -0.361961
     84          1           0      -11.762342    4.055035   -1.723407
     85          1           0      -13.192098    2.940043   -1.612337
     86          1           0      -12.598307   -1.113579   -1.106147
     87          1           0      -13.714260    0.389666   -1.365080
     88          1           0      -12.571091    0.453739   -3.720898
     89          1           0      -11.608478   -1.121249   -3.271826
     90          1           0      -13.300698   -1.236067   -3.519347
     91          1           0      -10.065893   -4.470450   -0.682369
     92          1           0       -9.465653   -4.502389   -1.960773
     93          1           0       -8.506261   -5.581794   -1.052998
     94          1           0       -3.787495   -3.554573   -0.515905
     95          1           0       -1.287413   -5.960316    1.970192
     96          1           0       -2.052318   -4.388863    2.978409
     97          1           0       -2.956499   -6.080213    3.114223
     98          1           0        2.465325   -2.162275   -1.279573
     99          1           0        2.540367   -0.580655   -2.033219
    100          1           0        4.275597   -1.341502    0.609906
    101          1           0        5.263039    1.715173   -2.211908
    102          1           0        5.604424    0.029013   -2.714476
    103          1           0        4.065235    0.592871   -2.942524
    104          1           0        6.346383    1.134748    0.399938
    105          1           0        6.074707   -0.674667    0.777621
    106          1           0        7.375816   -1.468549   -1.263499
    107          1           0        7.591700    0.233976   -1.899503
    108          1           0        8.990249    0.745446    0.330614
    109          1           0        8.459187   -0.800348    0.855632
    110          1           0       10.251753   -0.246360   -1.471658
    111          1           0        9.239787   -2.611301   -1.313160
    112          1           0       11.096209   -2.432589   -1.546026
    113          1           0       10.306723   -2.672392    0.302875
    114          1           0       11.323532    0.922469    0.289583
    115          1           0       11.364547   -0.370620    1.071465
    116          1           0       12.793879   -1.646007   -0.558159
    117          1           0       12.847014   -0.072477   -1.544825
    118          1           0       13.848106    1.104388    0.546916
    119          1           0       13.875536   -0.490807    1.316967
    120          1           0       15.130595    0.342650   -1.186222
    121          1           0       14.815743   -2.056010   -1.244922
    122          1           0       16.498186   -1.495497   -1.323852
    123          1           0       15.738791   -2.154306    0.228697
    124          1           0       15.843526    1.529043    0.658331
    125          1           0       16.627866    0.083474    1.348739
    126          1           0       18.137943   -0.199820   -0.382533
    127          1           0       17.553430    1.173540   -1.433116
    128          1           0       18.317064    2.699596    0.727283
    129          1           0       18.543644    1.152129    1.518772
    130          1           0       20.322720    0.632147   -0.171661
    131          1           0       19.599768    3.292838   -1.423215
    132          1           0       21.235535    2.238433   -1.962065
    133          1           0       19.537094    1.660307   -2.250823
    134          1           0       21.197116    1.917134    1.882043
    135          1           0       22.120867    2.578644    0.605819
    136          1           0       20.521048    3.354481    1.398806
    137          1           0       -7.026368    1.785610    0.217300
    138          1           0       -7.772549   -0.255566   -0.038654
 ---------------------------------------------------------------------

 SCF Done:  E(RB3LYP) =  -2732.99787972     A.U. after   17 cycles

 Excitation energies and oscillator strengths:

 Excited State   1:      Singlet-A      1.9792 eV  626.44 nm  f=0.1771  <S**2>=0.000
     235 -> 237       -0.11659
     235 -> 238       -0.29314
     236 -> 237        0.62509
 This state for optimization and/or second-order correction.
 Total Energy, E(TD-HF/TD-DFT) =  -2732.92514551
 Copying the excited state density for this state as the 1-particle RhoCI density.

 The electronic state is 1-A.
 Alpha  occ. eigenvalues --  -19.18931 -19.18440 -19.14160 -19.12459 -19.11243
 Alpha  occ. eigenvalues --  -14.37878 -14.37507 -14.33234 -14.30442 -10.32968
 Alpha  occ. eigenvalues --  -10.31532 -10.27356 -10.27054 -10.24812 -10.24553
 Alpha  occ. eigenvalues --  -10.24465 -10.24175 -10.23955 -10.23911 -10.23256
 Alpha  occ. eigenvalues --  -10.23166 -10.22887 -10.22642 -10.22286 -10.21969
 Alpha  occ. eigenvalues --  -10.21711 -10.21622 -10.21546 -10.21185 -10.21143
 Alpha  occ. eigenvalues --  -10.20994 -10.20691 -10.20659 -10.20408 -10.20290
 Alpha  occ. eigenvalues --  -10.20261 -10.20206 -10.20115 -10.20020 -10.19881
 Alpha  occ. eigenvalues --  -10.19865 -10.19757 -10.19620 -10.19298 -10.19297
 Alpha  occ. eigenvalues --  -10.19239 -10.19200 -10.18966 -10.18932 -10.18908
 Alpha  occ. eigenvalues --  -10.18806 -10.18682 -10.18666 -10.18586 -10.18478
 Alpha  occ. eigenvalues --  -10.18467 -10.18411 -10.18248 -10.18000 -10.17771
 Alpha  occ. eigenvalues --  -10.17426 -10.17251 -10.17210 -10.17173  -1.09943
 Alpha  occ. eigenvalues --   -1.08348  -1.00586  -0.99814  -0.99285  -0.98756
 Alpha  occ. eigenvalues --   -0.97648  -0.94502  -0.94255  -0.85328  -0.83620
 Alpha  occ. eigenvalues --   -0.82776  -0.82285  -0.81760  -0.81568  -0.81159
 Alpha  occ. eigenvalues --   -0.81024  -0.80204  -0.79884  -0.79336  -0.78849
 Alpha  occ. eigenvalues --   -0.77574  -0.76877  -0.75873  -0.74916  -0.74658
 Alpha  occ. eigenvalues --   -0.74253  -0.73480  -0.72491  -0.72225  -0.71580
 Alpha  occ. eigenvalues --   -0.70525  -0.69414  -0.68553  -0.68248  -0.67726
 Alpha  occ. eigenvalues --   -0.67555  -0.66602  -0.66387  -0.66336  -0.65247
 Alpha  occ. eigenvalues --   -0.64313  -0.62811  -0.62725  -0.61804  -0.61322
 Alpha  occ. eigenvalues --   -0.60225  -0.59403  -0.58813  -0.58496  -0.57844
 Alpha  occ. eigenvalues --   -0.57701  -0.56848  -0.56449  -0.55951  -0.55909
 Alpha  occ. eigenvalues --   -0.55288  -0.55137  -0.54762  -0.53751  -0.53628
 Alpha  occ. eigenvalues --   -0.52633  -0.52149  -0.51809  -0.51471  -0.50888
 Alpha  occ. eigenvalues --   -0.49818  -0.49427  -0.49095  -0.48823  -0.48150
 Alpha  occ. eigenvalues --   -0.48137  -0.47653  -0.47418  -0.47362  -0.47254
 Alpha  occ. eigenvalues --   -0.47095  -0.46640  -0.46461  -0.46255  -0.46110
 Alpha  occ. eigenvalues --   -0.45896  -0.45576  -0.45404  -0.44875  -0.44828
 Alpha  occ. eigenvalues --   -0.44653  -0.44609  -0.44314  -0.44193  -0.43952
 Alpha  occ. eigenvalues --   -0.43717  -0.43691  -0.43373  -0.43189  -0.42969
 Alpha  occ. eigenvalues --   -0.42839  -0.42449  -0.42343  -0.41898  -0.41764
 Alpha  occ. eigenvalues --   -0.41688  -0.41390  -0.41339  -0.40954  -0.40919
 Alpha  occ. eigenvalues --   -0.40541  -0.40378  -0.40210  -0.40036  -0.39457
 Alpha  occ. eigenvalues --   -0.39369  -0.39170  -0.38921  -0.38652  -0.38639
 Alpha  occ. eigenvalues --   -0.38476  -0.38317  -0.38138  -0.37651  -0.37362
 Alpha  occ. eigenvalues --   -0.37255  -0.37088  -0.36846  -0.36750  -0.36584
 Alpha  occ. eigenvalues --   -0.36202  -0.36045  -0.35854  -0.35693  -0.35505
 Alpha  occ. eigenvalues --   -0.35355  -0.35218  -0.35068  -0.35034  -0.34714
 Alpha  occ. eigenvalues --   -0.34610  -0.34540  -0.34219  -0.34129  -0.33799
 Alpha  occ. eigenvalues --   -0.33736  -0.33296  -0.32667  -0.32065  -0.31947
 Alpha  occ. eigenvalues --   -0.31698  -0.31617  -0.31385  -0.31031  -0.31007
 Alpha  occ. eigenvalues --   -0.30785  -0.30646  -0.30313  -0.30225  -0.29743
 Alpha  occ. eigenvalues --   -0.29693  -0.29506  -0.28709  -0.28682  -0.28088
 Alpha  occ. eigenvalues --   -0.28051  -0.27721  -0.26838  -0.26387  -0.25860
 Alpha  occ. eigenvalues --   -0.24730  -0.24599  -0.24188  -0.23232  -0.19838
 Alpha  occ. eigenvalues --   -0.19075
 Alpha virt. eigenvalues --   -0.10784  -0.08003  -0.05689  -0.02947  -0.02436
 Alpha virt. eigenvalues --   -0.00867  -0.00386   0.01120   0.01452   0.03394
 Alpha virt. eigenvalues --    0.03827   0.03986   0.04214   0.04625   0.04655

 Mulliken charges:
               1
     1  C    0.092447
     2  C    0.029721
     3  C   -0.057847
     4  C   -0.065533
     5  N   -0.194102
     6  C   -0.088512
     7  C    0.070216
     8  C   -0.058515
     9  C    0.093504
    10  C    0.034943
    11  C   -0.073015
    12  C    0.184286
    13  C    0.148809
    14  O   -0.259799
    15  O   -0.294923
    16  N   -0.038273
    17  C    0.028013
    18  C   -0.069971
    19  C   -0.029832
    20  C    0.022474
    21  C   -0.064318
    22  C   -0.034686
    23  C   -0.084144
    24  N   -0.225260
    25  C    0.040330
    26  C   -0.087718
    27  C   -0.122778
    28  C    0.075373
    29  C    0.148393
    30  C   -0.019618
    31  C    0.048994
    32  N   -0.054942
    33  C    0.098248
    34  C   -0.153660
    35  C    0.028428
    36  C    0.044949
    37  C    0.248432
    38  C    0.077149
    39  O   -0.240316
    40  C   -0.152256
    41  C    0.244466
    42  O   -0.244334
    43  O   -0.290476
    44  C    0.062913
    45  C    0.297599
    46  C   -0.147349
    47  C   -0.141646
    48  C    0.110499
    49  C   -0.069650
    50  C    0.063329
    51  C    0.027334
    52  C    0.092851
    53  C   -0.029702
    54  C    0.094758
    55  C   -0.065883
    56  C    0.007600
    57  C   -0.018700
    58  C    0.097987
    59  C    0.037719
    60  C    0.023826
    61  C   -0.021631
    62  C    0.022049
    63  C   -0.038833
    64  C   -0.012864
    65  H   -0.102101
    66  H   -0.014637
    67  H   -0.052154
    68  H   -0.011787
    69  H    0.001084
    70  H   -0.014608
    71  H    0.005719
    72  H    0.025962
    73  H    0.060922
    74  H    0.035287
    75  H    0.013801
    76  H    0.017564
    77  H    0.049025
    78  H    0.048999
    79  H    0.050191
    80  H    0.035360
    81  H    0.077538
    82  H    0.039912
    83  H   -0.010317
    84  H    0.033826
    85  H   -0.029531
    86  H   -0.000986
    87  H    0.019698
    88  H    0.019803
    89  H    0.004156
    90  H    0.008303
    91  H   -0.022728
    92  H   -0.055251
    93  H    0.071502
    94  H    0.096626
    95  H    0.067250
    96  H    0.045899
    97  H    0.054960
    98  H    0.026581
    99  H   -0.006840
   100  H    0.014963
   101  H    0.026733
   102  H    0.000999
   103  H    0.008420
   104  H    0.030824
   105  H    0.016148
   106  H    0.019616
   107  H    0.014988
   108  H   -0.013612
   109  H   -0.018443
   110  H   -0.074974
   111  H    0.021710
   112  H    0.024814
   113  H    0.027893
   114  H   -0.034635
   115  H   -0.059031
   116  H    0.014848
   117  H   -0.011588
   118  H   -0.022037
   119  H   -0.021414
   120  H   -0.049829
   121  H    0.010785
   122  H    0.013108
   123  H   -0.040297
   124  H   -0.015936
   125  H   -0.018643
   126  H   -0.020225
   127  H    0.014527
   128  H   -0.001808
   129  H   -0.005076
   130  H   -0.026710
   131  H    0.017816
   132  H    0.036295
   133  H    0.016079
   134  H   -0.011025
   135  H    0.018754
   136  H    0.005098
   137  H    0.191090
   138  H    0.164196
 Sum of Mulliken charges =  -0.00000

 Dipole moment (field-independent basis, Debye):
    X=              1.8886    Y=              4.8885    Z=             -0.0482  Tot=              5.2408
 Quadrupole moment (field-independent basis, Debye-Ang):
   XX=           -351.8094   YY=           -396.7502   ZZ=           -396.7969
   XY=            -36.4376   XZ=             14.8932   YZ=              2.2081

 Normal termination of Gaussian 16 at Sun Sep  1 02:41:57 2019.
