 Gaussian 16, Revision A.03,
 Gaussian 16:  ES64L-G16RevA.03 25-Dec-2016

 --------------------------
 # td=(NStates=1) B3LYP/SVP
 --------------------------

 --
 TD
 --
 Symbolic Z-matrix:
 Charge =  0 Multiplicity = 1

                         Standard orientation:
 ---------------------------------------------------------------------
 Center     Atomic      Atomic             Coordinates (Angstroms)
 Number     Number       Type             X           Y           Z
 ---------------------------------------------------------------------
      1          6           0       -5.089839   -1.970477    0.460696
      2          6           0       -4.712395    2.726717    1.229899
      3          6           0       -9.305579    3.374892   -0.181102
      4          6           0       -9.764347   -1.494547   -0.919370
      5          7           0       -5.201200    0.478189    0.806083
      6          6           0       -4.561195   -0.787272    0.739420
      7          6           0       -3.042879   -0.581363    1.181408
      8          6           0       -3.003714    0.823074    1.764823
      9          6           0       -4.359748    1.409058    1.317473
     10          6           0       -2.767369    1.033021    3.334499
     11          6           0       -2.049368   -0.843467    0.044603
     12          6           0       -0.626214   -0.965295    0.366216
     13          6           0        0.346785   -1.167121   -0.694401
     14          8           0        0.195678   -1.928505   -1.771288
     15          8           0        1.574225   -0.612024   -0.343912
     16          7           0       -7.052265    2.806196    0.428959
     17          6           0       -5.931873    3.381976    0.889232
     18          6           0       -6.078933    4.790433    0.988759
     19          6           0       -7.451837    5.086099    0.570397
     20          6           0       -8.080088    3.736156    0.214853
     21          6           0       -5.096768    5.890124    1.507684
     22          6           0       -8.175958    6.250671    0.276522
     23          6           0       -8.992643    6.664733   -0.707604
     24          7           0       -9.232947    0.919222   -0.534827
     25          6           0       -9.914475    2.103023   -0.452827
     26          6           0      -11.334078    1.841998   -0.775943
     27          6           0      -11.443036    0.461778   -0.981985
     28          6           0      -10.075578   -0.051751   -0.714827
     29          6           0      -12.418669    2.850780   -0.787523
     30          6           0      -12.587299   -0.316360   -1.463159
     31          6           0      -12.702525   -0.585826   -2.964282
     32          7           0       -7.389018   -1.236032   -0.241687
     33          6           0       -8.628334   -1.967144   -0.630383
     34          6           0       -8.234201   -3.383507   -0.672331
     35          6           0       -6.895080   -3.384175   -0.210315
     36          6           0       -6.418094   -2.119456   -0.041465
     37          6           0       -9.023866   -4.596901   -0.890966
     38          6           0       -5.768000   -4.330327    0.012408
     39          8           0       -5.649575   -5.565746   -0.091151
     40          6           0       -4.577789   -3.349488    0.400295
     41          6           0       -3.899038   -3.839432    1.809442
     42          8           0       -4.134382   -3.427738    2.870512
     43          8           0       -3.094201   -4.810368    1.562512
     44          6           0       -2.673515   -5.563375    2.744173
     45          6           0        2.572142   -0.898673   -1.265268
     46          6           0        3.950382   -0.519872   -0.601706
     47          6           0        4.931349    0.243773   -1.164393
     48          6           0        4.868380    0.967721   -2.455412
     49          6           0        6.181543    0.443643   -0.374746
     50          6           0        7.512444   -0.068200   -1.156470
     51          6           0        8.775522   -0.016528   -0.200656
     52          6           0       10.040910   -0.637820   -0.981287
     53          6           0       10.009280   -2.058415   -1.208628
     54          6           0       11.272141   -0.240338   -0.025583
     55          6           0       12.720189   -0.475358   -0.578095
     56          6           0       13.852478    0.037851    0.315903
     57          6           0       15.228329   -0.154345   -0.308357
     58          6           0       15.575207   -1.766631   -0.505808
     59          6           0       16.284006    0.534497    0.571953
     60          6           0       17.664196    0.615306   -0.154299
     61          6           0       18.625911    1.403747    0.808451
     62          6           0       20.088513    1.431351    0.290211
     63          6           0       20.254648    1.968623   -1.184292
     64          6           0       20.849506    2.282706    1.269774
     65          1           0       -3.939880    3.505914    1.571269
     66          1           0       -9.919147    4.278467   -0.339302
     67          1           0      -10.475650   -2.154055   -1.383781
     68          1           0       -2.887891   -1.211212    2.090192
     69          1           0       -2.233185    1.594585    1.492019
     70          1           0       -1.733813    0.661330    3.632606
     71          1           0       -3.032236    1.954075    3.660603
     72          1           0       -3.542018    0.458509    3.787791
     73          1           0       -2.326600   -1.842366   -0.351613
     74          1           0       -2.421781   -0.137973   -0.794910
     75          1           0       -0.274864   -0.068624    0.822594
     76          1           0       -0.428908   -1.785294    1.206953
     77          1           0       -4.296285    5.904547    0.754722
     78          1           0       -5.569254    6.748461    1.747155
     79          1           0       -4.417842    5.512376    2.362696
     80          1           0       -8.132611    7.147160    0.966912
     81          1           0       -9.337715    5.954105   -1.475937
     82          1           0       -9.474728    7.541062   -0.769914
     83          1           0      -12.569700    3.548953    0.110328
     84          1           0      -12.322037    3.528052   -1.738978
     85          1           0      -13.381752    2.432813   -1.024096
     86          1           0      -12.542213   -1.119686   -0.924956
     87          1           0      -13.556554    0.149578   -1.048416
     88          1           0      -12.754743    0.411860   -3.586887
     89          1           0      -11.931298   -1.071534   -3.197914
     90          1           0      -13.500246   -1.305255   -3.100280
     91          1           0       -9.802902   -4.601464    0.079326
     92          1           0       -9.833602   -4.427309   -1.718933
     93          1           0       -8.299516   -5.475868   -1.022988
     94          1           0       -3.748713   -3.565677   -0.332062
     95          1           0       -2.096451   -6.226456    2.353512
     96          1           0       -2.145049   -4.991672    3.505278
     97          1           0       -3.545108   -6.187277    3.271688
     98          1           0        2.385775   -2.013399   -1.896094
     99          1           0        2.544947   -0.109626   -2.119528
    100          1           0        4.245377   -0.817745    0.437647
    101          1           0        5.106630    2.003231   -2.356346
    102          1           0        5.629467    0.689894   -3.348488
    103          1           0        3.774913    1.001704   -2.879321
    104          1           0        6.284627    1.585465   -0.206787
    105          1           0        6.171884   -0.233234    0.557320
    106          1           0        7.424516   -1.132645   -1.602804
    107          1           0        7.693930    0.460011   -2.021637
    108          1           0        8.840420    1.068904    0.007439
    109          1           0        8.651909   -0.613583    0.692842
    110          1           0       10.021930   -0.050654   -2.011766
    111          1           0        9.149877   -2.396643   -1.790746
    112          1           0       10.970116   -2.507455   -1.788140
    113          1           0        9.908990   -2.617128   -0.234403
    114          1           0       11.283443    0.956856   -0.269039
    115          1           0       11.181902   -0.583266    1.081546
    116          1           0       12.841640   -1.572061   -0.569447
    117          1           0       12.760876   -0.306371   -1.635868
    118          1           0       13.845610    1.347417    0.200380
    119          1           0       13.767749   -0.328547    1.343362
    120          1           0       15.234157    0.309684   -1.341930
    121          1           0       14.824416   -2.354607   -1.127584
    122          1           0       16.518830   -1.850724   -0.892396
    123          1           0       15.510084   -2.315967    0.604537
    124          1           0       15.938499    1.653591    0.765417
    125          1           0       16.289765   -0.092676    1.410988
    126          1           0       18.086608   -0.519905   -0.445584
    127          1           0       17.702645    1.446379   -1.050301
    128          1           0       18.390036    2.605800    0.724713
    129          1           0       18.718940    1.096504    1.900476
    130          1           0       20.491625    0.426330    0.393276
    131          1           0       19.813200    2.985169   -1.118551
    132          1           0       21.321249    2.119546   -1.108606
    133          1           0       19.881979    1.190970   -1.966990
    134          1           0       20.703532    1.856527    2.287769
    135          1           0       21.942748    2.375325    1.237669
    136          1           0       20.534327    3.195178    1.461647
    137          1           0       -7.091570    1.831954    0.334738
    138          1           0       -7.346511   -0.290034   -0.420814
 ---------------------------------------------------------------------

 SCF Done:  E(RB3LYP) =  -2733.04814307     A.U. after   17 cycles

 Excitation energies and oscillator strengths:

 Excited State   1:      Singlet-A      2.0045 eV  618.53 nm  f=0.1289  <S**2>=0.000
     235 -> 237        0.24990
     235 -> 238        0.23725
     236 -> 237        0.55644
     236 -> 238       -0.25761
 This state for optimization and/or second-order correction.
 Total Energy, E(TD-HF/TD-DFT) =  -2732.97447953
 Copying the excited state density for this state as the 1-particle RhoCI density.

 The electronic state is 1-A.
 Alpha  occ. eigenvalues --  -19.19447 -19.18475 -19.12883 -19.12802 -19.12240
 Alpha  occ. eigenvalues --  -14.36681 -14.36509 -14.31948 -14.29416 -10.32828
 Alpha  occ. eigenvalues --  -10.31036 -10.28637 -10.26148 -10.24494 -10.24109
 Alpha  occ. eigenvalues --  -10.23597 -10.23552 -10.23253 -10.23249 -10.22707
 Alpha  occ. eigenvalues --  -10.22684 -10.22661 -10.21945 -10.21862 -10.21558
 Alpha  occ. eigenvalues --  -10.21387 -10.21320 -10.21143 -10.20858 -10.20697
 Alpha  occ. eigenvalues --  -10.20584 -10.20563 -10.20524 -10.20284 -10.20229
 Alpha  occ. eigenvalues --  -10.20190 -10.20136 -10.20116 -10.19946 -10.19856
 Alpha  occ. eigenvalues --  -10.19838 -10.19703 -10.19621 -10.19319 -10.19290
 Alpha  occ. eigenvalues --  -10.19221 -10.19219 -10.19189 -10.19054 -10.18988
 Alpha  occ. eigenvalues --  -10.18987 -10.18742 -10.18719 -10.18607 -10.18471
 Alpha  occ. eigenvalues --  -10.18386 -10.18341 -10.18331 -10.18035 -10.17637
 Alpha  occ. eigenvalues --  -10.17576 -10.17372 -10.17352 -10.16108  -1.12246
 Alpha  occ. eigenvalues --   -1.09131  -1.02533  -1.01260  -0.98209  -0.98001
 Alpha  occ. eigenvalues --   -0.96547  -0.93746  -0.92551  -0.85514  -0.82501
 Alpha  occ. eigenvalues --   -0.82443  -0.81747  -0.81621  -0.81068  -0.80608
 Alpha  occ. eigenvalues --   -0.80314  -0.79772  -0.79517  -0.79322  -0.77870
 Alpha  occ. eigenvalues --   -0.76689  -0.76268  -0.75363  -0.75046  -0.74710
 Alpha  occ. eigenvalues --   -0.73894  -0.73156  -0.72541  -0.71062  -0.70901
 Alpha  occ. eigenvalues --   -0.70341  -0.69555  -0.69248  -0.67931  -0.67786
 Alpha  occ. eigenvalues --   -0.67244  -0.66306  -0.66166  -0.65841  -0.65067
 Alpha  occ. eigenvalues --   -0.64867  -0.63628  -0.62830  -0.62425  -0.61712
 Alpha  occ. eigenvalues --   -0.60558  -0.58703  -0.58482  -0.58050  -0.57003
 Alpha  occ. eigenvalues --   -0.56600  -0.56395  -0.55797  -0.55284  -0.55105
 Alpha  occ. eigenvalues --   -0.54682  -0.54399  -0.53865  -0.53775  -0.52815
 Alpha  occ. eigenvalues --   -0.52331  -0.52044  -0.51661  -0.51092  -0.50376
 Alpha  occ. eigenvalues --   -0.49748  -0.49597  -0.49248  -0.49117  -0.48502
 Alpha  occ. eigenvalues --   -0.47958  -0.47867  -0.47516  -0.47281  -0.46964
 Alpha  occ. eigenvalues --   -0.46710  -0.46636  -0.46004  -0.45873  -0.45534
 Alpha  occ. eigenvalues --   -0.45487  -0.45173  -0.45031  -0.44946  -0.44620
 Alpha  occ. eigenvalues --   -0.44519  -0.44359  -0.43995  -0.43755  -0.43624
 Alpha  occ. eigenvalues --   -0.43531  -0.43437  -0.42947  -0.42773  -0.42609
 Alpha  occ. eigenvalues --   -0.42400  -0.42031  -0.41766  -0.41595  -0.41324
 Alpha  occ. eigenvalues --   -0.41257  -0.41082  -0.40682  -0.40399  -0.40270
 Alpha  occ. eigenvalues --   -0.40100  -0.39708  -0.39578  -0.39402  -0.39177
 Alpha  occ. eigenvalues --   -0.39159  -0.39085  -0.38820  -0.38693  -0.38626
 Alpha  occ. eigenvalues --   -0.38588  -0.38453  -0.38012  -0.37884  -0.37805
 Alpha  occ. eigenvalues --   -0.37776  -0.37600  -0.37318  -0.36979  -0.36843
 Alpha  occ. eigenvalues --   -0.36683  -0.36283  -0.36120  -0.36022  -0.35953
 Alpha  occ. eigenvalues --   -0.35888  -0.35459  -0.35331  -0.34689  -0.34635
 Alpha  occ. eigenvalues --   -0.34132  -0.34104  -0.33999  -0.33807  -0.33603
 Alpha  occ. eigenvalues --   -0.33500  -0.33308  -0.33237  -0.33084  -0.32617
 Alpha  occ. eigenvalues --   -0.32459  -0.32259  -0.31793  -0.31595  -0.31408
 Alpha  occ. eigenvalues --   -0.31329  -0.30928  -0.30093  -0.30054  -0.29663
 Alpha  occ. eigenvalues --   -0.29199  -0.28800  -0.28257  -0.27866  -0.27828
 Alpha  occ. eigenvalues --   -0.27527  -0.26947  -0.26419  -0.25816  -0.25457
 Alpha  occ. eigenvalues --   -0.25414  -0.23909  -0.23809  -0.21697  -0.20346
 Alpha  occ. eigenvalues --   -0.18743
 Alpha virt. eigenvalues --   -0.10454  -0.08574  -0.04422  -0.03680  -0.01837
 Alpha virt. eigenvalues --   -0.00154   0.00554   0.01938   0.02619   0.03411
 Alpha virt. eigenvalues --    0.03593   0.03934   0.04230   0.04388   0.04569

 Mulliken charges:
               1
     1  C    0.160008
     2  C   -0.072197
     3  C   -0.045692
     4  C   -0.154630
     5  N   -0.224169
     6  C   -0.110166
     7  C    0.000893
     8  C   -0.085405
     9  C    0.005598
    10  C    0.098932
    11  C    0.071109
    12  C    0.092904
    13  C    0.213394
    14  O   -0.321889
    15  O   -0.286556
    16  N   -0.008215
    17  C    0.068361
    18  C   -0.150288
    19  C    0.129954
    20  C    0.039889
    21  C    0.160695
    22  C   -0.134158
    23  C   -0.007026
    24  N   -0.180653
    25  C    0.043601
    26  C   -0.100784
    27  C   -0.160458
    28  C    0.027791
    29  C    0.072303
    30  C    0.121906
    31  C    0.140357
    32  N   -0.027735
    33  C    0.214525
    34  C   -0.121216
    35  C   -0.033361
    36  C    0.016983
    37  C    0.011088
    38  C    0.110651
    39  O   -0.197991
    40  C   -0.122652
    41  C    0.151231
    42  O   -0.179471
    43  O   -0.257198
    44  C    0.217609
    45  C    0.177586
    46  C   -0.081840
    47  C   -0.119463
    48  C    0.027810
    49  C    0.050306
    50  C   -0.017295
    51  C    0.049711
    52  C   -0.116126
    53  C    0.032978
    54  C   -0.029126
    55  C    0.060102
    56  C    0.012046
    57  C   -0.091740
    58  C   -0.019234
    59  C    0.076684
    60  C   -0.045451
    61  C   -0.062791
    62  C   -0.095258
    63  C    0.035057
    64  C    0.087947
    65  H   -0.027751
    66  H   -0.026921
    67  H   -0.021662
    68  H    0.007007
    69  H    0.004375
    70  H    0.032556
    71  H   -0.020580
    72  H    0.000093
    73  H    0.007181
    74  H    0.024111
    75  H    0.002271
    76  H    0.064279
    77  H    0.022297
    78  H    0.004362
    79  H    0.022489
    80  H    0.010063
    81  H    0.017815
    82  H   -0.008220
    83  H    0.036216
    84  H    0.011431
    85  H   -0.013982
    86  H   -0.066390
    87  H   -0.008186
    88  H    0.032068
    89  H   -0.071854
    90  H   -0.000453
    91  H    0.064286
    92  H    0.036826
    93  H    0.085276
    94  H    0.067963
    95  H   -0.019005
    96  H    0.037749
    97  H    0.052138
    98  H    0.091598
    99  H    0.014740
   100  H   -0.010241
   101  H    0.000842
   102  H    0.046101
   103  H    0.018363
   104  H    0.023353
   105  H    0.013237
   106  H    0.003022
   107  H   -0.026867
   108  H    0.003701
   109  H   -0.007017
   110  H    0.004129
   111  H    0.002536
   112  H    0.030458
   113  H    0.002378
   114  H    0.011197
   115  H    0.022948
   116  H   -0.020231
   117  H   -0.018097
   118  H    0.001598
   119  H    0.002237
   120  H   -0.004290
   121  H    0.029272
   122  H   -0.007381
   123  H    0.013203
   124  H    0.015692
   125  H   -0.017752
   126  H    0.036854
   127  H    0.033591
   128  H    0.008614
   129  H    0.009909
   130  H   -0.013102
   131  H    0.004639
   132  H    0.004484
   133  H    0.048784
   134  H   -0.020539
   135  H   -0.003024
   136  H   -0.049012
   137  H    0.105923
   138  H    0.116527
 Sum of Mulliken charges =  -0.00000

 Dipole moment (field-independent basis, Debye):
    X=              1.6161    Y=              3.1349    Z=              1.1658  Tot=              3.7146
 Quadrupole moment (field-independent basis, Debye-Ang):
   XX=           -357.1625   YY=           -378.5229   ZZ=           -395.3084
   XY=            -13.5177   XZ=             10.8013   YZ=             -5.2105

 Normal termination of Gaussian 16 at Mon Aug 26 11:08:37 2019.
