 Gaussian 16, Revision A.03,
 Gaussian 16:  ES64L-G16RevA.03 25-Dec-2016

 --------------------------
 # td=(NStates=1) B3LYP/SVP
 --------------------------

 --
 TD
 --
 Symbolic Z-matrix:
 Charge =  0 Multiplicity = 1

                         Standard orientation:
 ---------------------------------------------------------------------
 Center     Atomic      Atomic             Coordinates (Angstroms)
 Number     Number       Type             X           Y           Z
 ---------------------------------------------------------------------
      1          6           0       -5.108024   -1.962971    0.442199
      2          6           0       -4.555573    2.731402    1.480417
      3          6           0       -9.182453    3.423638   -0.170607
      4          6           0       -9.768770   -1.291135   -1.077207
      5          7           0       -5.081423    0.360829    0.815056
      6          6           0       -4.463631   -0.834530    0.847761
      7          6           0       -3.088458   -0.723451    1.271642
      8          6           0       -3.047171    0.752658    1.923328
      9          6           0       -4.295959    1.419388    1.345305
     10          6           0       -2.909909    0.822018    3.491496
     11          6           0       -2.033218   -0.855909    0.238614
     12          6           0       -0.605434   -0.933808    0.656256
     13          6           0        0.353221   -1.294098   -0.453361
     14          8           0        0.082464   -1.637883   -1.616484
     15          8           0        1.666240   -1.081135   -0.099813
     16          7           0       -6.914015    2.811081    0.710417
     17          6           0       -5.778834    3.393705    1.189161
     18          6           0       -6.040008    4.850761    1.120111
     19          6           0       -7.325628    4.977687    0.612872
     20          6           0       -7.884746    3.774550    0.234144
     21          6           0       -4.999155    5.885301    1.658257
     22          6           0       -7.895837    6.287940    0.418583
     23          6           0       -8.790850    6.728918   -0.393263
     24          7           0       -9.089125    0.975236   -0.513841
     25          6           0       -9.779544    2.188363   -0.508935
     26          6           0      -11.116900    2.007597   -0.964397
     27          6           0      -11.236895    0.741284   -1.402227
     28          6           0      -10.007534    0.083972   -1.051378
     29          6           0      -12.118461    3.095532   -1.171324
     30          6           0      -12.484634    0.017111   -1.934513
     31          6           0      -12.299666   -0.307007   -3.391175
     32          7           0       -7.437271   -1.122655   -0.393042
     33          6           0       -8.579418   -1.830778   -0.836874
     34          6           0       -8.165110   -3.339658   -0.730173
     35          6           0       -6.882486   -3.400546   -0.404741
     36          6           0       -6.458072   -1.997751   -0.068141
     37          6           0       -8.994845   -4.476483   -1.146182
     38          6           0       -5.760034   -4.261603    0.086949
     39          8           0       -5.698501   -5.412912   -0.052341
     40          6           0       -4.537864   -3.427793    0.540497
     41          6           0       -4.110937   -3.961366    1.744262
     42          8           0       -4.307637   -3.407523    2.829971
     43          8           0       -3.277066   -5.004125    1.570107
     44          6           0       -2.866058   -5.797136    2.723088
     45          6           0        2.657228   -1.217823   -1.139281
     46          6           0        3.949392   -0.782746   -0.535779
     47          6           0        4.867409    0.027760   -1.176854
     48          6           0        4.643832    0.658987   -2.558022
     49          6           0        6.199217    0.306616   -0.396136
     50          6           0        7.432963   -0.447010   -1.021593
     51          6           0        8.620568   -0.246942   -0.074794
     52          6           0        9.939664   -0.951215   -0.659654
     53          6           0       10.029727   -2.535652   -0.555430
     54          6           0       11.174904   -0.287863    0.190050
     55          6           0       12.505901   -0.516049   -0.531641
     56          6           0       13.708611    0.001934    0.209684
     57          6           0       15.099332   -0.101455   -0.367975
     58          6           0       15.463072   -1.613915   -0.497940
     59          6           0       16.135892    0.681955    0.302189
     60          6           0       17.550277    0.747360   -0.240416
     61          6           0       18.456229    1.714000    0.558031
     62          6           0       19.932212    1.778409    0.048747
     63          6           0       20.005631    2.106748   -1.474971
     64          6           0       20.821629    2.689281    0.851298
     65          1           0       -3.610497    3.386777    1.819572
     66          1           0       -9.876596    4.172634   -0.161434
     67          1           0      -10.613878   -1.979479   -1.489108
     68          1           0       -2.997116   -1.484010    2.040867
     69          1           0       -2.233993    1.462335    1.596799
     70          1           0       -1.873314    0.456548    3.846498
     71          1           0       -2.939305    1.796048    3.907053
     72          1           0       -3.590189    0.344483    4.025384
     73          1           0       -2.122654   -1.933294   -0.090021
     74          1           0       -2.309186   -0.200308   -0.419591
     75          1           0       -0.313902    0.005413    1.141506
     76          1           0       -0.660046   -1.592409    1.468941
     77          1           0       -4.085418    6.032148    0.767855
     78          1           0       -5.414743    6.905133    1.702739
     79          1           0       -4.704945    5.349319    2.704501
     80          1           0       -7.363910    7.088578    1.231212
     81          1           0       -9.413334    6.236575   -1.451830
     82          1           0       -9.291017    7.804415   -0.181861
     83          1           0      -12.176299    3.865576   -0.371886
     84          1           0      -11.642711    3.765825   -1.951233
     85          1           0      -13.268887    2.861443   -1.350088
     86          1           0      -12.605375   -0.858612   -1.265226
     87          1           0      -13.406153    0.655794   -1.663838
     88          1           0      -12.504487    0.519645   -4.009684
     89          1           0      -11.579976   -0.923207   -3.583073
     90          1           0      -13.129893   -1.057304   -3.583066
     91          1           0       -9.835793   -4.797705   -0.148052
     92          1           0       -9.743535   -4.346307   -1.983866
     93          1           0       -8.322651   -5.350447   -1.270703
     94          1           0       -4.074789   -3.629987   -0.382627
     95          1           0       -2.225764   -6.518489    2.222837
     96          1           0       -2.301307   -5.027325    3.533917
     97          1           0       -3.740948   -6.185005    3.249065
     98          1           0        2.362325   -2.290760   -1.631920
     99          1           0        2.209205   -0.684235   -1.976677
    100          1           0        4.197628   -1.342626    0.302845
    101          1           0        4.903163    1.628865   -2.636057
    102          1           0        5.385514    0.168605   -3.338123
    103          1           0        3.642330    0.254829   -2.794123
    104          1           0        6.421466    1.385341   -0.630171
    105          1           0        6.106654    0.215834    0.659359
    106          1           0        7.326532   -1.579505   -1.237552
    107          1           0        7.759460   -0.053448   -1.814384
    108          1           0        8.926530    0.841420    0.016486
    109          1           0        8.380154   -0.330507    1.060009
    110          1           0        9.938790   -0.529061   -1.767394
    111          1           0        9.226750   -2.924530   -1.194961
    112          1           0       11.036592   -2.982608   -1.065031
    113          1           0       10.344033   -2.737846    0.517598
    114          1           0       11.086865    0.894841    0.312396
    115          1           0       11.361486   -0.771281    1.187802
    116          1           0       12.828254   -1.582439   -0.685490
    117          1           0       12.653844   -0.048754   -1.708936
    118          1           0       13.650225    1.025759    0.369066
    119          1           0       13.603148   -0.315272    1.148732
    120          1           0       14.815999    0.184202   -1.337028
    121          1           0       14.590390   -2.126091   -0.953414
    122          1           0       16.478392   -1.704187   -1.162184
    123          1           0       15.925332   -2.126417    0.608917
    124          1           0       15.761592    1.725607    0.492945
    125          1           0       15.979406    0.521199    1.372178
    126          1           0       17.913907   -0.295832   -0.142918
    127          1           0       17.362359    1.087778   -1.434617
    128          1           0       18.165696    2.809320    0.793514
    129          1           0       18.382634    1.267465    1.701207
    130          1           0       20.218454    0.746544    0.267679
    131          1           0       19.414382    3.118994   -1.772223
    132          1           0       21.126741    2.239997   -1.829225
    133          1           0       19.631374    1.325127   -2.073420
    134          1           0       20.701643    2.451083    1.852791
    135          1           0       21.895893    2.424808    0.657115
    136          1           0       20.559896    3.770849    1.055444
    137          1           0       -7.082736    1.800787    0.413692
    138          1           0       -7.539632   -0.100569   -0.386859
 ---------------------------------------------------------------------

 SCF Done:  E(RB3LYP) =  -2732.97497012     A.U. after   17 cycles

 Excitation energies and oscillator strengths:

 Excited State   1:      Singlet-A      2.0797 eV  596.15 nm  f=0.1408  <S**2>=0.000
     235 -> 238        0.32061
     236 -> 237        0.61906
 This state for optimization and/or second-order correction.
 Total Energy, E(TD-HF/TD-DFT) =  -2732.89854103
 Copying the excited state density for this state as the 1-particle RhoCI density.

 The electronic state is 1-A.
 Alpha  occ. eigenvalues --  -19.17978 -19.16701 -19.13515 -19.12550 -19.12073
 Alpha  occ. eigenvalues --  -14.37356 -14.36610 -14.31078 -14.29963 -10.31801
 Alpha  occ. eigenvalues --  -10.31534 -10.29100 -10.26165 -10.24850 -10.24537
 Alpha  occ. eigenvalues --  -10.24038 -10.23825 -10.22869 -10.22867 -10.22644
 Alpha  occ. eigenvalues --  -10.22289 -10.22096 -10.22081 -10.21439 -10.21172
 Alpha  occ. eigenvalues --  -10.21151 -10.21104 -10.20818 -10.20759 -10.20722
 Alpha  occ. eigenvalues --  -10.20453 -10.20381 -10.20293 -10.20287 -10.20280
 Alpha  occ. eigenvalues --  -10.20218 -10.20199 -10.20185 -10.20098 -10.19992
 Alpha  occ. eigenvalues --  -10.19909 -10.19901 -10.19880 -10.19762 -10.19631
 Alpha  occ. eigenvalues --  -10.19611 -10.19579 -10.19471 -10.19406 -10.19262
 Alpha  occ. eigenvalues --  -10.19165 -10.19019 -10.18861 -10.18640 -10.18146
 Alpha  occ. eigenvalues --  -10.17994 -10.17870 -10.17718 -10.17591 -10.17525
 Alpha  occ. eigenvalues --  -10.17349 -10.17335 -10.17000 -10.15463  -1.09181
 Alpha  occ. eigenvalues --   -1.07836  -1.07283  -0.99773  -0.98817  -0.97543
 Alpha  occ. eigenvalues --   -0.96350  -0.93018  -0.92609  -0.85086  -0.82853
 Alpha  occ. eigenvalues --   -0.82384  -0.81775  -0.81498  -0.81275  -0.80403
 Alpha  occ. eigenvalues --   -0.80122  -0.79573  -0.79296  -0.79192  -0.77794
 Alpha  occ. eigenvalues --   -0.77080  -0.75984  -0.75746  -0.74746  -0.74547
 Alpha  occ. eigenvalues --   -0.74269  -0.73332  -0.72447  -0.71408  -0.70477
 Alpha  occ. eigenvalues --   -0.70284  -0.69995  -0.68583  -0.68093  -0.67551
 Alpha  occ. eigenvalues --   -0.67222  -0.66305  -0.66066  -0.65656  -0.65028
 Alpha  occ. eigenvalues --   -0.64511  -0.63048  -0.62705  -0.62180  -0.61398
 Alpha  occ. eigenvalues --   -0.60803  -0.59770  -0.59254  -0.57782  -0.57289
 Alpha  occ. eigenvalues --   -0.56756  -0.56225  -0.56035  -0.55897  -0.55091
 Alpha  occ. eigenvalues --   -0.54914  -0.54862  -0.54661  -0.54013  -0.53786
 Alpha  occ. eigenvalues --   -0.52570  -0.51979  -0.51798  -0.51050  -0.50169
 Alpha  occ. eigenvalues --   -0.49877  -0.49526  -0.49062  -0.48452  -0.47807
 Alpha  occ. eigenvalues --   -0.47442  -0.47337  -0.47263  -0.47007  -0.46915
 Alpha  occ. eigenvalues --   -0.46657  -0.46493  -0.46435  -0.45957  -0.45779
 Alpha  occ. eigenvalues --   -0.45686  -0.45061  -0.45016  -0.44799  -0.44651
 Alpha  occ. eigenvalues --   -0.44440  -0.44219  -0.44059  -0.43798  -0.43701
 Alpha  occ. eigenvalues --   -0.43553  -0.43240  -0.43058  -0.42807  -0.42728
 Alpha  occ. eigenvalues --   -0.42368  -0.42245  -0.41800  -0.41310  -0.41154
 Alpha  occ. eigenvalues --   -0.41082  -0.40761  -0.40670  -0.40538  -0.39882
 Alpha  occ. eigenvalues --   -0.39643  -0.39525  -0.39436  -0.39405  -0.39096
 Alpha  occ. eigenvalues --   -0.38918  -0.38865  -0.38800  -0.38390  -0.38278
 Alpha  occ. eigenvalues --   -0.38129  -0.37887  -0.37708  -0.37636  -0.37383
 Alpha  occ. eigenvalues --   -0.37260  -0.37101  -0.37079  -0.36803  -0.36739
 Alpha  occ. eigenvalues --   -0.36472  -0.36272  -0.36161  -0.35986  -0.35884
 Alpha  occ. eigenvalues --   -0.35720  -0.35501  -0.35209  -0.34917  -0.34839
 Alpha  occ. eigenvalues --   -0.34602  -0.34529  -0.34371  -0.33956  -0.33415
 Alpha  occ. eigenvalues --   -0.33130  -0.32835  -0.32774  -0.32533  -0.32145
 Alpha  occ. eigenvalues --   -0.32085  -0.31798  -0.31350  -0.31241  -0.30894
 Alpha  occ. eigenvalues --   -0.30771  -0.30604  -0.30280  -0.29909  -0.29566
 Alpha  occ. eigenvalues --   -0.29370  -0.28962  -0.28567  -0.28083  -0.28068
 Alpha  occ. eigenvalues --   -0.27916  -0.27612  -0.26965  -0.26681  -0.25878
 Alpha  occ. eigenvalues --   -0.24609  -0.24231  -0.23502  -0.22432  -0.19844
 Alpha  occ. eigenvalues --   -0.18817
 Alpha virt. eigenvalues --   -0.09838  -0.07884  -0.04043  -0.01457  -0.01312
 Alpha virt. eigenvalues --   -0.01007  -0.00355   0.00463   0.02159   0.02709
 Alpha virt. eigenvalues --    0.03756   0.03865   0.03883   0.04270   0.04422

 Mulliken charges:
               1
     1  C   -0.017680
     2  C   -0.101423
     3  C   -0.018404
     4  C   -0.103470
     5  N   -0.214292
     6  C   -0.117314
     7  C    0.031337
     8  C   -0.094460
     9  C    0.045789
    10  C    0.121603
    11  C    0.119143
    12  C    0.100845
    13  C    0.211051
    14  O   -0.263994
    15  O   -0.333037
    16  N   -0.133700
    17  C    0.102509
    18  C   -0.148629
    19  C    0.067640
    20  C    0.095670
    21  C    0.014064
    22  C   -0.035087
    23  C   -0.154315
    24  N   -0.302684
    25  C    0.055088
    26  C   -0.104358
    27  C   -0.103380
    28  C    0.061219
    29  C    0.046371
    30  C    0.024538
    31  C    0.144045
    32  N   -0.032335
    33  C    0.094243
    34  C   -0.129708
    35  C    0.024828
    36  C    0.087617
    37  C   -0.010225
    38  C   -0.022260
    39  O   -0.111076
    40  C    0.100963
    41  C    0.240626
    42  O   -0.250785
    43  O   -0.315649
    44  C    0.155425
    45  C    0.188901
    46  C    0.004695
    47  C   -0.162715
    48  C    0.122807
    49  C    0.080736
    50  C    0.130500
    51  C   -0.037186
    52  C   -0.096573
    53  C    0.019520
    54  C   -0.005540
    55  C   -0.034853
    56  C    0.082360
    57  C    0.027259
    58  C   -0.076833
    59  C    0.034899
    60  C    0.054649
    61  C   -0.075228
    62  C   -0.060176
    63  C   -0.000894
    64  C    0.081059
    65  H    0.021020
    66  H   -0.076082
    67  H    0.008300
    68  H   -0.011533
    69  H   -0.000502
    70  H    0.007902
    71  H   -0.017082
    72  H   -0.016900
    73  H    0.009483
    74  H   -0.049289
    75  H    0.017193
    76  H    0.002632
    77  H    0.057994
    78  H    0.021203
    79  H    0.072793
    80  H    0.037171
    81  H    0.064446
    82  H    0.039949
    83  H    0.008899
    84  H    0.021759
    85  H    0.040343
    86  H    0.008056
    87  H    0.002114
    88  H    0.014204
    89  H   -0.040550
    90  H   -0.018059
    91  H    0.044383
    92  H    0.045065
    93  H    0.052984
    94  H    0.047890
    95  H    0.051062
    96  H    0.055117
    97  H    0.044622
    98  H    0.033868
    99  H    0.004097
   100  H   -0.024306
   101  H   -0.003368
   102  H    0.027092
   103  H    0.015641
   104  H   -0.003445
   105  H    0.000464
   106  H    0.014864
   107  H   -0.073483
   108  H   -0.014780
   109  H   -0.004588
   110  H    0.014633
   111  H    0.028777
   112  H    0.019903
   113  H    0.029815
   114  H    0.024368
   115  H    0.015314
   116  H   -0.001976
   117  H   -0.001171
   118  H   -0.054566
   119  H   -0.070263
   120  H   -0.040838
   121  H    0.025113
   122  H    0.024611
   123  H    0.019730
   124  H   -0.033855
   125  H   -0.035388
   126  H    0.013331
   127  H    0.031185
   128  H    0.007555
   129  H    0.005739
   130  H   -0.010565
   131  H    0.023980
   132  H    0.015452
   133  H    0.005935
   134  H   -0.040141
   135  H    0.014909
   136  H    0.007141
   137  H    0.172402
   138  H    0.146491
 Sum of Mulliken charges =  -0.00000

 Dipole moment (field-independent basis, Debye):
    X=              1.5299    Y=              1.7887    Z=              0.5608  Tot=              2.4196
 Quadrupole moment (field-independent basis, Debye-Ang):
   XX=           -357.7738   YY=           -378.1017   ZZ=           -394.4622
   XY=             -6.2371   XZ=             18.9400   YZ=             -0.7546

 Normal termination of Gaussian 16 at Sat Aug 31 02:53:20 2019.
