 Gaussian 16, Revision A.03,
 Gaussian 16:  ES64L-G16RevA.03 25-Dec-2016

 --------------------------
 # td=(NStates=1) B3LYP/SVP
 --------------------------

 --
 TD
 --
 Symbolic Z-matrix:
 Charge =  0 Multiplicity = 1

                         Standard orientation:
 ---------------------------------------------------------------------
 Center     Atomic      Atomic             Coordinates (Angstroms)
 Number     Number       Type             X           Y           Z
 ---------------------------------------------------------------------
      1          6           0       -5.213033   -1.944189    0.394558
      2          6           0       -4.661258    2.784021    1.521212
      3          6           0       -9.234094    3.380852   -0.247592
      4          6           0       -9.795993   -1.335824   -1.197055
      5          7           0       -5.097265    0.494607    0.879242
      6          6           0       -4.552142   -0.734062    0.807198
      7          6           0       -3.105782   -0.604931    1.301242
      8          6           0       -3.049579    0.854289    1.939401
      9          6           0       -4.291188    1.375572    1.406659
     10          6           0       -2.853173    0.771748    3.440377
     11          6           0       -2.028607   -0.942946    0.180518
     12          6           0       -0.635322   -1.102432    0.698207
     13          6           0        0.367397   -1.321147   -0.389208
     14          8           0        0.100545   -1.742375   -1.410918
     15          8           0        1.666967   -0.994943    0.003182
     16          7           0       -7.067619    2.771335    0.641586
     17          6           0       -5.871290    3.383929    1.148708
     18          6           0       -6.158133    4.764555    1.151530
     19          6           0       -7.477526    4.925123    0.539808
     20          6           0       -7.902437    3.671740    0.206732
     21          6           0       -5.266245    5.808348    1.706175
     22          6           0       -8.094857    6.288913    0.323297
     23          6           0       -8.960569    6.709619   -0.494500
     24          7           0       -9.140861    0.880391   -0.579001
     25          6           0       -9.779777    2.105040   -0.561684
     26          6           0      -11.154553    1.959275   -1.101687
     27          6           0      -11.443330    0.656984   -1.399340
     28          6           0      -10.102390   -0.007063   -1.042876
     29          6           0      -12.088107    3.153496   -1.292083
     30          6           0      -12.587314    0.003461   -1.797370
     31          6           0      -12.546333   -0.304389   -3.325015
     32          7           0       -7.573737   -1.252777   -0.267864
     33          6           0       -8.593012   -1.945290   -0.776061
     34          6           0       -8.250543   -3.354015   -0.838150
     35          6           0       -6.869255   -3.387858   -0.342588
     36          6           0       -6.504968   -2.018877    0.021395
     37          6           0       -9.106803   -4.466913   -1.144146
     38          6           0       -5.730361   -4.213883   -0.036703
     39          8           0       -5.777566   -5.433145   -0.243777
     40          6           0       -4.561996   -3.341936    0.481197
     41          6           0       -3.981983   -3.921093    1.708656
     42          8           0       -4.287111   -3.452032    2.784794
     43          8           0       -2.976668   -4.830786    1.401096
     44          6           0       -2.459968   -5.437665    2.719737
     45          6           0        2.615588   -1.302011   -0.907363
     46          6           0        3.889934   -0.915144   -0.346777
     47          6           0        4.900066   -0.101431   -0.842657
     48          6           0        4.738496    0.629076   -2.184351
     49          6           0        6.221997    0.252707   -0.166024
     50          6           0        7.520843   -0.189043   -0.942032
     51          6           0        8.747176   -0.295096   -0.006170
     52          6           0       10.043209   -0.854493   -0.594925
     53          6           0        9.925904   -2.362966   -0.723041
     54          6           0       11.268461   -0.324852    0.072607
     55          6           0       12.594952   -0.625574   -0.554656
     56          6           0       13.869791    0.033719    0.121715
     57          6           0       15.198055   -0.180605   -0.488302
     58          6           0       15.736500   -1.600776   -0.317194
     59          6           0       16.169945    0.926425    0.092366
     60          6           0       17.609094    0.749765   -0.353961
     61          6           0       18.439013    1.868994    0.284357
     62          6           0       19.998467    1.744196   -0.038583
     63          6           0       20.295848    2.191917   -1.519257
     64          6           0       20.861613    2.531557    0.919582
     65          1           0       -3.955032    3.540937    2.057240
     66          1           0      -10.077227    4.344377   -0.228846
     67          1           0      -10.485148   -1.983315   -1.557975
     68          1           0       -3.101508   -1.505519    2.174759
     69          1           0       -2.204838    1.392210    1.493007
     70          1           0       -2.022469    0.284858    3.858982
     71          1           0       -2.807692    1.669755    4.268566
     72          1           0       -3.524579    0.195495    3.961716
     73          1           0       -2.302976   -1.897858   -0.288300
     74          1           0       -2.126292   -0.303528   -0.689686
     75          1           0       -0.399601   -0.108245    1.243174
     76          1           0       -0.467823   -1.989484    1.380963
     77          1           0       -4.455021    6.277333    0.975634
     78          1           0       -5.692243    6.532682    2.182843
     79          1           0       -4.519716    5.275300    2.546761
     80          1           0       -7.751305    7.012365    1.072729
     81          1           0       -9.515149    6.060741   -1.347612
     82          1           0       -8.990262    7.869187   -0.721737
     83          1           0      -12.295555    3.764754   -0.431443
     84          1           0      -11.696316    3.875501   -2.164910
     85          1           0      -12.992488    2.922165   -1.649434
     86          1           0      -12.773149   -0.814183   -1.070475
     87          1           0      -13.433199    0.758040   -1.543864
     88          1           0      -12.399448    0.511296   -4.128176
     89          1           0      -11.851493   -0.862149   -3.497525
     90          1           0      -13.427819   -0.904411   -3.455088
     91          1           0       -9.856476   -4.636455   -0.175832
     92          1           0       -9.565198   -4.565354   -2.279350
     93          1           0       -8.465577   -5.408650   -1.215344
     94          1           0       -3.988607   -3.406520   -0.424532
     95          1           0       -2.152206   -6.346760    2.435565
     96          1           0       -1.774556   -4.657428    3.230537
     97          1           0       -3.336427   -5.783994    3.332618
     98          1           0        2.573157   -2.371524   -1.409058
     99          1           0        2.485624   -0.475106   -1.848562
    100          1           0        4.028579   -1.133859    0.694835
    101          1           0        4.892845    1.658506   -1.985560
    102          1           0        5.438584    0.413562   -2.959281
    103          1           0        3.705816    0.404546   -2.698536
    104          1           0        6.486501    1.436428   -0.160850
    105          1           0        6.204116   -0.020616    0.927501
    106          1           0        7.245338   -1.291225   -1.260260
    107          1           0        7.894037    0.446749   -1.873021
    108          1           0        8.788348    0.786491    0.405755
    109          1           0        8.505315   -0.910895    0.818618
    110          1           0       10.037330   -0.531805   -1.634695
    111          1           0        8.951957   -2.760077   -1.237326
    112          1           0       10.808915   -2.838627   -1.190711
    113          1           0        9.819562   -2.799343    0.331434
    114          1           0       11.308572    0.786493    0.448273
    115          1           0       11.386639   -0.778390    1.160027
    116          1           0       12.739604   -1.692360   -0.607523
    117          1           0       12.697829   -0.398497   -1.515475
    118          1           0       13.671941    0.954289    0.382167
    119          1           0       13.825543   -0.465150    1.038561
    120          1           0       15.002929    0.116010   -1.525020
    121          1           0       15.101438   -2.830854   -0.664108
    122          1           0       16.725354   -1.836013   -0.997862
    123          1           0       15.741004   -1.826942    0.808768
    124          1           0       15.854820    1.953820   -0.141636
    125          1           0       16.155000    0.748806    1.356785
    126          1           0       18.066765   -0.210037   -0.225614
    127          1           0       17.745070    0.888637   -1.445403
    128          1           0       18.096368    2.904611   -0.086853
    129          1           0       18.454236    1.838303    1.378374
    130          1           0       20.190386    0.538811    0.011202
    131          1           0       19.931452    3.353961   -1.717669
    132          1           0       21.327611    2.017155   -1.924952
    133          1           0       19.689839    1.783670   -2.267199
    134          1           0       20.881680    2.329522    2.177546
    135          1           0       21.953735    2.423451    0.448080
    136          1           0       20.574995    3.648145    0.998403
    137          1           0       -7.145283    1.812822    0.623940
    138          1           0       -7.691695   -0.148175   -0.266093
 ---------------------------------------------------------------------

 SCF Done:  E(RB3LYP) =  -2732.97915581     A.U. after   17 cycles

 Excitation energies and oscillator strengths:

 Excited State   1:      Singlet-A      1.9971 eV  620.81 nm  f=0.1921  <S**2>=0.000
     235 -> 238        0.29126
     236 -> 237        0.63334
 This state for optimization and/or second-order correction.
 Total Energy, E(TD-HF/TD-DFT) =  -2732.90576202
 Copying the excited state density for this state as the 1-particle RhoCI density.

 The electronic state is 1-A.
 Alpha  occ. eigenvalues --  -19.18883 -19.17315 -19.13689 -19.13592 -19.11238
 Alpha  occ. eigenvalues --  -14.36477 -14.36174 -14.32163 -14.30793 -10.32593
 Alpha  occ. eigenvalues --  -10.31223 -10.27227 -10.25505 -10.25367 -10.23347
 Alpha  occ. eigenvalues --  -10.23238 -10.23016 -10.23005 -10.22932 -10.22756
 Alpha  occ. eigenvalues --  -10.22127 -10.22050 -10.21739 -10.21657 -10.21627
 Alpha  occ. eigenvalues --  -10.21590 -10.21383 -10.21212 -10.21139 -10.21070
 Alpha  occ. eigenvalues --  -10.20913 -10.20802 -10.20753 -10.20744 -10.20602
 Alpha  occ. eigenvalues --  -10.20520 -10.20473 -10.20426 -10.20324 -10.20256
 Alpha  occ. eigenvalues --  -10.19943 -10.19837 -10.19818 -10.19816 -10.19624
 Alpha  occ. eigenvalues --  -10.19313 -10.19073 -10.19014 -10.18943 -10.18927
 Alpha  occ. eigenvalues --  -10.18857 -10.18784 -10.18749 -10.18665 -10.18622
 Alpha  occ. eigenvalues --  -10.18580 -10.18502 -10.18313 -10.18246 -10.18082
 Alpha  occ. eigenvalues --  -10.17834 -10.17504 -10.16153 -10.15720  -1.12207
 Alpha  occ. eigenvalues --   -1.08066  -1.04581  -1.00997  -1.00736  -0.98999
 Alpha  occ. eigenvalues --   -0.98589  -0.95894  -0.92543  -0.85762  -0.82529
 Alpha  occ. eigenvalues --   -0.81711  -0.81587  -0.81424  -0.81163  -0.80488
 Alpha  occ. eigenvalues --   -0.80363  -0.79589  -0.79339  -0.78928  -0.78108
 Alpha  occ. eigenvalues --   -0.76702  -0.76191  -0.75785  -0.75156  -0.74675
 Alpha  occ. eigenvalues --   -0.73747  -0.73054  -0.72479  -0.71500  -0.71231
 Alpha  occ. eigenvalues --   -0.70289  -0.69694  -0.69505  -0.68253  -0.67014
 Alpha  occ. eigenvalues --   -0.66638  -0.66454  -0.66025  -0.65209  -0.65150
 Alpha  occ. eigenvalues --   -0.64999  -0.63969  -0.62858  -0.62603  -0.61624
 Alpha  occ. eigenvalues --   -0.61114  -0.58759  -0.58113  -0.57833  -0.57516
 Alpha  occ. eigenvalues --   -0.57125  -0.56178  -0.56121  -0.55742  -0.55595
 Alpha  occ. eigenvalues --   -0.55180  -0.54325  -0.53895  -0.53338  -0.52914
 Alpha  occ. eigenvalues --   -0.52733  -0.52414  -0.51657  -0.51295  -0.50920
 Alpha  occ. eigenvalues --   -0.50534  -0.49771  -0.49077  -0.48694  -0.48131
 Alpha  occ. eigenvalues --   -0.48056  -0.47904  -0.47599  -0.47243  -0.46894
 Alpha  occ. eigenvalues --   -0.46720  -0.46441  -0.46282  -0.46064  -0.45734
 Alpha  occ. eigenvalues --   -0.45360  -0.45202  -0.45092  -0.44956  -0.44543
 Alpha  occ. eigenvalues --   -0.44459  -0.44077  -0.44033  -0.43733  -0.43558
 Alpha  occ. eigenvalues --   -0.43446  -0.43298  -0.42799  -0.42646  -0.42476
 Alpha  occ. eigenvalues --   -0.42324  -0.42070  -0.41912  -0.41368  -0.41194
 Alpha  occ. eigenvalues --   -0.40909  -0.40832  -0.40706  -0.40586  -0.40471
 Alpha  occ. eigenvalues --   -0.40338  -0.40015  -0.39869  -0.39797  -0.39598
 Alpha  occ. eigenvalues --   -0.39360  -0.38962  -0.38935  -0.38582  -0.38301
 Alpha  occ. eigenvalues --   -0.38261  -0.37861  -0.37775  -0.37664  -0.37551
 Alpha  occ. eigenvalues --   -0.37435  -0.37210  -0.37039  -0.36967  -0.36725
 Alpha  occ. eigenvalues --   -0.36526  -0.36377  -0.36190  -0.35837  -0.35716
 Alpha  occ. eigenvalues --   -0.35674  -0.35576  -0.35175  -0.35114  -0.34662
 Alpha  occ. eigenvalues --   -0.34281  -0.34043  -0.33896  -0.33848  -0.33676
 Alpha  occ. eigenvalues --   -0.33616  -0.33211  -0.33074  -0.32838  -0.32134
 Alpha  occ. eigenvalues --   -0.32101  -0.31823  -0.31710  -0.31451  -0.31306
 Alpha  occ. eigenvalues --   -0.30971  -0.30818  -0.30522  -0.30381  -0.30197
 Alpha  occ. eigenvalues --   -0.29413  -0.29243  -0.28921  -0.28857  -0.28196
 Alpha  occ. eigenvalues --   -0.28088  -0.27298  -0.27034  -0.26050  -0.24959
 Alpha  occ. eigenvalues --   -0.24234  -0.23675  -0.23616  -0.23071  -0.19548
 Alpha  occ. eigenvalues --   -0.18799
 Alpha virt. eigenvalues --   -0.10548  -0.07276  -0.04741  -0.01575  -0.00750
 Alpha virt. eigenvalues --   -0.00442   0.00814   0.00890   0.02439   0.02576
 Alpha virt. eigenvalues --    0.03583   0.04078   0.04287   0.04509   0.04610

 Mulliken charges:
               1
     1  C   -0.107475
     2  C   -0.063610
     3  C   -0.188384
     4  C   -0.055064
     5  N   -0.109144
     6  C   -0.065065
     7  C   -0.169232
     8  C    0.102943
     9  C   -0.062393
    10  C    0.073354
    11  C    0.069698
    12  C    0.042073
    13  C    0.132026
    14  O   -0.142734
    15  O   -0.303733
    16  N    0.004264
    17  C    0.092658
    18  C   -0.107346
    19  C   -0.002847
    20  C    0.079084
    21  C    0.077927
    22  C    0.032938
    23  C   -0.122505
    24  N   -0.288134
    25  C    0.104620
    26  C   -0.146108
    27  C   -0.043115
    28  C    0.093268
    29  C    0.122867
    30  C    0.001261
    31  C    0.157516
    32  N   -0.028753
    33  C    0.040499
    34  C   -0.101701
    35  C    0.019718
    36  C    0.127459
    37  C   -0.027702
    38  C   -0.057025
    39  O   -0.203976
    40  C    0.117707
    41  C    0.263557
    42  O   -0.225237
    43  O   -0.355294
    44  C    0.202649
    45  C    0.202590
    46  C   -0.072714
    47  C   -0.117246
    48  C    0.064709
    49  C    0.023473
    50  C   -0.065980
    51  C    0.022253
    52  C    0.028262
    53  C   -0.021065
    54  C   -0.007143
    55  C    0.107586
    56  C    0.111865
    57  C    0.007938
    58  C   -0.094752
    59  C   -0.030710
    60  C    0.065965
    61  C    0.005342
    62  C   -0.111919
    63  C   -0.000126
    64  C   -0.039098
    65  H    0.003578
    66  H    0.060659
    67  H   -0.078108
    68  H    0.056771
    69  H   -0.000003
    70  H   -0.020711
    71  H    0.007840
    72  H   -0.016261
    73  H   -0.000404
    74  H    0.002139
    75  H    0.036513
    76  H    0.043983
    77  H    0.045996
    78  H   -0.026147
    79  H    0.023841
    80  H   -0.001385
    81  H    0.046473
    82  H    0.038944
    83  H    0.019467
    84  H    0.027166
    85  H   -0.045785
    86  H    0.021379
    87  H    0.006977
    88  H    0.031857
    89  H   -0.084853
    90  H   -0.002973
    91  H    0.067846
    92  H    0.049405
    93  H    0.044437
    94  H    0.052679
    95  H    0.008442
    96  H    0.071669
    97  H    0.044685
    98  H    0.049891
    99  H    0.017902
   100  H   -0.027809
   101  H    0.004661
   102  H    0.010409
   103  H    0.014710
   104  H    0.017536
   105  H    0.010650
   106  H    0.013821
   107  H    0.033422
   108  H   -0.005311
   109  H   -0.025009
   110  H   -0.022895
   111  H    0.027313
   112  H    0.022346
   113  H    0.002719
   114  H    0.000350
   115  H   -0.014149
   116  H   -0.027222
   117  H   -0.066001
   118  H   -0.068118
   119  H   -0.049861
   120  H   -0.015799
   121  H    0.014646
   122  H    0.054810
   123  H    0.035315
   124  H    0.009342
   125  H    0.010509
   126  H   -0.010713
   127  H   -0.016819
   128  H    0.003659
   129  H   -0.004643
   130  H    0.015396
   131  H    0.009042
   132  H    0.021421
   133  H   -0.013809
   134  H    0.029879
   135  H    0.030731
   136  H    0.020656
   137  H    0.094903
   138  H    0.195260
 Sum of Mulliken charges =  -0.00000

 Dipole moment (field-independent basis, Debye):
    X=              1.1841    Y=              2.9825    Z=              0.9448  Tot=              3.3452
 Quadrupole moment (field-independent basis, Debye-Ang):
   XX=           -358.8277   YY=           -385.9215   ZZ=           -389.3897
   XY=            -14.9823   XZ=              3.6254   YZ=             -5.8120

 Normal termination of Gaussian 16 at Mon Aug 26 22:08:41 2019.
