 Gaussian 16, Revision A.03,
 Gaussian 16:  ES64L-G16RevA.03 25-Dec-2016

 --------------------------
 # td=(NStates=1) B3LYP/SVP
 --------------------------

 --
 TD
 --
 Symbolic Z-matrix:
 Charge =  0 Multiplicity = 1

                         Standard orientation:
 ---------------------------------------------------------------------
 Center     Atomic      Atomic             Coordinates (Angstroms)
 Number     Number       Type             X           Y           Z
 ---------------------------------------------------------------------
      1          6           0       -5.082516   -1.982828    0.356462
      2          6           0       -4.688022    2.776392    1.433261
      3          6           0       -9.244285    3.360279   -0.196760
      4          6           0       -9.766694   -1.462182   -0.865054
      5          7           0       -5.019551    0.402210    0.753959
      6          6           0       -4.432903   -0.795298    0.865548
      7          6           0       -3.008805   -0.580147    1.279452
      8          6           0       -3.047774    0.862606    1.858140
      9          6           0       -4.333647    1.359537    1.291137
     10          6           0       -3.091499    0.824046    3.435714
     11          6           0       -2.087151   -0.822255    0.017471
     12          6           0       -0.630542   -0.799996    0.589289
     13          6           0        0.356799   -0.913255   -0.582614
     14          8           0        0.045977   -1.282681   -1.642429
     15          8           0        1.633683   -0.635441   -0.212964
     16          7           0       -6.930638    2.739476    0.376647
     17          6           0       -5.894233    3.370387    1.004712
     18          6           0       -6.118447    4.837642    1.070509
     19          6           0       -7.353660    5.077094    0.488137
     20          6           0       -7.953618    3.621248    0.119852
     21          6           0       -5.163803    5.901092    1.499519
     22          6           0       -8.046771    6.335347    0.376757
     23          6           0       -9.047746    6.725463   -0.442140
     24          7           0       -9.239352    0.875839   -0.338360
     25          6           0       -9.749520    2.097255   -0.489363
     26          6           0      -11.297738    1.931274   -0.910221
     27          6           0      -11.368420    0.567996   -1.135288
     28          6           0      -10.093902   -0.049927   -0.743073
     29          6           0      -12.287009    2.946605   -1.146285
     30          6           0      -12.601798   -0.265181   -1.603450
     31          6           0      -12.637038   -0.371909   -3.153135
     32          7           0       -7.536165   -1.292354   -0.247436
     33          6           0       -8.580056   -2.104602   -0.580336
     34          6           0       -8.167095   -3.402198   -0.682332
     35          6           0       -6.918724   -3.445233   -0.282682
     36          6           0       -6.447236   -2.077544   -0.034710
     37          6           0       -9.060248   -4.603098   -1.090305
     38          6           0       -5.813170   -4.294516    0.049622
     39          8           0       -5.768819   -5.558174    0.053885
     40          6           0       -4.569991   -3.444839    0.418388
     41          6           0       -3.990092   -3.938479    1.795675
     42          8           0       -4.302124   -3.462455    2.904593
     43          8           0       -3.045424   -4.907316    1.478416
     44          6           0       -2.458994   -5.574585    2.634899
     45          6           0        2.603843   -0.827747   -1.194791
     46          6           0        3.967743   -0.657278   -0.623889
     47          6           0        4.922487    0.149315   -1.015703
     48          6           0        5.014855    0.726298   -2.417318
     49          6           0        6.386275    0.233089   -0.313091
     50          6           0        7.534537   -0.346986   -1.063045
     51          6           0        8.726268   -0.240061   -0.162721
     52          6           0       10.042920   -0.758736   -0.803080
     53          6           0       10.007027   -2.319806   -1.180850
     54          6           0       11.323124   -0.370140   -0.063029
     55          6           0       12.618466   -0.567195   -0.654724
     56          6           0       13.804871    0.055638    0.188083
     57          6           0       15.202533   -0.069144   -0.479115
     58          6           0       15.413383   -1.582742   -0.850972
     59          6           0       16.248814    0.350455    0.488647
     60          6           0       17.623255    0.639864   -0.190400
     61          6           0       18.520149    1.332298    0.712376
     62          6           0       19.943905    1.586629    0.106081
     63          6           0       19.951027    2.880613   -0.981342
     64          6           0       20.955722    2.004822    1.439750
     65          1           0       -3.935491    3.576313    1.877952
     66          1           0       -9.869015    4.216363   -0.337618
     67          1           0      -10.633465   -2.061547   -1.308050
     68          1           0       -2.746699   -1.428161    2.014655
     69          1           0       -2.250821    1.509659    1.571645
     70          1           0       -2.123521    0.492445    3.778836
     71          1           0       -3.149457    2.018726    3.649855
     72          1           0       -3.770116    0.268994    3.854779
     73          1           0       -2.297984   -1.789856   -0.459782
     74          1           0       -2.127640   -0.032604   -0.769483
     75          1           0       -0.299435    0.019500    1.262075
     76          1           0       -0.555694   -1.680307    1.103006
     77          1           0       -4.350080    5.788022    0.736367
     78          1           0       -5.675758    7.013936    1.406676
     79          1           0       -4.845989    5.780516    2.532896
     80          1           0       -7.461169    7.119791    1.078886
     81          1           0       -9.761402    6.108515   -0.977705
     82          1           0       -9.398269    7.738907   -0.353471
     83          1           0      -12.167269    3.634362   -0.239014
     84          1           0      -11.936993    3.527026   -2.021467
     85          1           0      -13.159171    2.457778   -1.226814
     86          1           0      -12.729217   -1.199951   -0.982923
     87          1           0      -13.574859    0.106717   -1.424074
     88          1           0      -12.679244    0.762488   -3.440664
     89          1           0      -11.836780   -0.960132   -3.545033
     90          1           0      -13.583624   -0.734078   -3.503635
     91          1           0      -10.134390   -4.429376   -0.549920
     92          1           0       -9.583501   -4.470055   -2.191545
     93          1           0       -8.539303   -5.677679   -0.783087
     94          1           0       -3.648688   -3.559117   -0.306869
     95          1           0       -1.527595   -6.172210    2.337395
     96          1           0       -2.368173   -4.660156    3.227685
     97          1           0       -3.150085   -6.466215    3.119325
     98          1           0        2.493821   -1.822885   -1.637075
     99          1           0        2.454440   -0.451058   -2.186325
    100          1           0        4.215646   -0.843832    0.415690
    101          1           0        5.002451    1.854417   -2.503629
    102          1           0        5.861562    0.588801   -3.035887
    103          1           0        4.181240    0.727108   -3.008231
    104          1           0        6.593576    1.282418   -0.223992
    105          1           0        6.391773   -0.177600    0.696578
    106          1           0        7.410154   -1.419609   -1.221087
    107          1           0        7.580202    0.092834   -1.949422
    108          1           0        9.225636    0.761694    0.199188
    109          1           0        8.504686   -0.824119    0.685538
    110          1           0       10.284229   -0.149268   -1.695472
    111          1           0        9.195077   -2.515183   -1.868436
    112          1           0       10.885150   -2.475896   -1.877976
    113          1           0       10.135559   -2.931618   -0.246198
    114          1           0       11.004918    0.521353    0.305276
    115          1           0       11.128376   -0.800252    0.934395
    116          1           0       12.944028   -1.652819   -0.765626
    117          1           0       12.795913   -0.096100   -1.563352
    118          1           0       13.776522    1.168635    0.275611
    119          1           0       13.726736   -0.569683    1.144382
    120          1           0       15.359261    0.465402   -1.513860
    121          1           0       14.737520   -1.917082   -1.708197
    122          1           0       16.462614   -1.748396   -1.363898
    123          1           0       15.380828   -2.077270    0.231759
    124          1           0       15.795924    1.391448    0.867117
    125          1           0       16.204704   -0.329479    1.612583
    126          1           0       18.070264   -0.284590   -0.558075
    127          1           0       17.481929    1.341874   -1.089648
    128          1           0       18.057289    2.387965    1.126795
    129          1           0       18.629251    0.845037    1.614051
    130          1           0       20.402449    0.576871   -0.458057
    131          1           0       19.548581    3.804185   -0.489172
    132          1           0       21.080802    2.920747   -1.330072
    133          1           0       19.379675    2.508662   -2.079879
    134          1           0       21.184209    0.911733    2.244507
    135          1           0       21.945994    2.073059    0.743833
    136          1           0       20.732791    3.018453    2.162781
    137          1           0       -6.939215    1.669573    0.167117
    138          1           0       -7.671194   -0.264040   -0.176154
 ---------------------------------------------------------------------

 SCF Done:  E(RB3LYP) =  -2733.00300690     A.U. after   16 cycles

 Excitation energies and oscillator strengths:

 Excited State   1:      Singlet-A      2.0462 eV  605.92 nm  f=0.1689  <S**2>=0.000
     235 -> 238        0.31375
     236 -> 237        0.63062
 This state for optimization and/or second-order correction.
 Total Energy, E(TD-HF/TD-DFT) =  -2732.92780970
 Copying the excited state density for this state as the 1-particle RhoCI density.

 The electronic state is 1-A.
 Alpha  occ. eigenvalues --  -19.18627 -19.17994 -19.13944 -19.13065 -19.11194
 Alpha  occ. eigenvalues --  -14.38363 -14.36827 -14.31944 -14.30342 -10.33050
 Alpha  occ. eigenvalues --  -10.31255 -10.27365 -10.26066 -10.24881 -10.24518
 Alpha  occ. eigenvalues --  -10.24239 -10.23748 -10.23230 -10.23224 -10.23211
 Alpha  occ. eigenvalues --  -10.22760 -10.22507 -10.22399 -10.22287 -10.22086
 Alpha  occ. eigenvalues --  -10.21989 -10.21968 -10.21778 -10.21604 -10.21592
 Alpha  occ. eigenvalues --  -10.21522 -10.21105 -10.20953 -10.20801 -10.20455
 Alpha  occ. eigenvalues --  -10.20421 -10.20369 -10.20322 -10.20153 -10.20043
 Alpha  occ. eigenvalues --  -10.20005 -10.19908 -10.19405 -10.19358 -10.19279
 Alpha  occ. eigenvalues --  -10.19066 -10.18879 -10.18802 -10.18688 -10.18653
 Alpha  occ. eigenvalues --  -10.18510 -10.18411 -10.18385 -10.18379 -10.18375
 Alpha  occ. eigenvalues --  -10.18371 -10.18229 -10.18092 -10.18025 -10.17885
 Alpha  occ. eigenvalues --  -10.17733 -10.17645 -10.17240 -10.16448  -1.11283
 Alpha  occ. eigenvalues --   -1.07817  -1.03188  -1.00264  -0.99852  -0.98852
 Alpha  occ. eigenvalues --   -0.97841  -0.96384  -0.94019  -0.84329  -0.82989
 Alpha  occ. eigenvalues --   -0.82195  -0.81990  -0.81305  -0.81140  -0.80744
 Alpha  occ. eigenvalues --   -0.80593  -0.79426  -0.79047  -0.78574  -0.77727
 Alpha  occ. eigenvalues --   -0.77202  -0.76194  -0.75739  -0.75246  -0.74076
 Alpha  occ. eigenvalues --   -0.72995  -0.72731  -0.72222  -0.70977  -0.70300
 Alpha  occ. eigenvalues --   -0.69768  -0.69162  -0.68361  -0.67702  -0.67220
 Alpha  occ. eigenvalues --   -0.67076  -0.65970  -0.65836  -0.65526  -0.64438
 Alpha  occ. eigenvalues --   -0.63743  -0.63571  -0.62831  -0.61705  -0.61425
 Alpha  occ. eigenvalues --   -0.60999  -0.59442  -0.59223  -0.58568  -0.58040
 Alpha  occ. eigenvalues --   -0.57549  -0.56935  -0.55728  -0.55641  -0.55496
 Alpha  occ. eigenvalues --   -0.54785  -0.54222  -0.53846  -0.53464  -0.52602
 Alpha  occ. eigenvalues --   -0.52500  -0.51932  -0.51831  -0.50915  -0.50293
 Alpha  occ. eigenvalues --   -0.49949  -0.49402  -0.49136  -0.48562  -0.48277
 Alpha  occ. eigenvalues --   -0.48033  -0.47887  -0.47635  -0.47518  -0.47150
 Alpha  occ. eigenvalues --   -0.46818  -0.46429  -0.46182  -0.46083  -0.45766
 Alpha  occ. eigenvalues --   -0.45632  -0.45527  -0.45342  -0.45094  -0.44849
 Alpha  occ. eigenvalues --   -0.44641  -0.44380  -0.44171  -0.44075  -0.43836
 Alpha  occ. eigenvalues --   -0.43578  -0.43284  -0.43168  -0.42815  -0.42498
 Alpha  occ. eigenvalues --   -0.42401  -0.42365  -0.42149  -0.41685  -0.41524
 Alpha  occ. eigenvalues --   -0.41025  -0.40816  -0.40609  -0.40368  -0.40025
 Alpha  occ. eigenvalues --   -0.39933  -0.39745  -0.39435  -0.39269  -0.39176
 Alpha  occ. eigenvalues --   -0.39020  -0.38864  -0.38745  -0.38597  -0.38582
 Alpha  occ. eigenvalues --   -0.38154  -0.38042  -0.37828  -0.37754  -0.37347
 Alpha  occ. eigenvalues --   -0.37236  -0.37030  -0.36928  -0.36712  -0.36649
 Alpha  occ. eigenvalues --   -0.36560  -0.36184  -0.35779  -0.35743  -0.35444
 Alpha  occ. eigenvalues --   -0.35358  -0.35306  -0.35070  -0.35048  -0.34955
 Alpha  occ. eigenvalues --   -0.34622  -0.34272  -0.33948  -0.33910  -0.33718
 Alpha  occ. eigenvalues --   -0.33626  -0.33404  -0.32895  -0.32614  -0.32251
 Alpha  occ. eigenvalues --   -0.32154  -0.31905  -0.31883  -0.31743  -0.31340
 Alpha  occ. eigenvalues --   -0.30628  -0.30585  -0.30543  -0.30133  -0.29655
 Alpha  occ. eigenvalues --   -0.29326  -0.29091  -0.28842  -0.28762  -0.27900
 Alpha  occ. eigenvalues --   -0.27855  -0.26756  -0.26391  -0.26108  -0.26036
 Alpha  occ. eigenvalues --   -0.25076  -0.24450  -0.24302  -0.22621  -0.20086
 Alpha  occ. eigenvalues --   -0.18334
 Alpha virt. eigenvalues --   -0.09661  -0.08078  -0.04993  -0.02336  -0.01484
 Alpha virt. eigenvalues --    0.00548   0.00659   0.01025   0.02452   0.02526
 Alpha virt. eigenvalues --    0.02988   0.03859   0.04100   0.04134   0.04647

 Mulliken charges:
               1
     1  C   -0.002884
     2  C   -0.111212
     3  C   -0.057047
     4  C   -0.105886
     5  N   -0.121259
     6  C   -0.046158
     7  C   -0.056654
     8  C   -0.024319
     9  C   -0.008203
    10  C    0.115374
    11  C    0.047614
    12  C    0.078057
    13  C    0.135196
    14  O   -0.188841
    15  O   -0.289594
    16  N   -0.093407
    17  C    0.093928
    18  C   -0.141446
    19  C    0.019797
    20  C    0.097076
    21  C    0.048250
    22  C   -0.075539
    23  C   -0.024232
    24  N   -0.190388
    25  C    0.053681
    26  C   -0.216847
    27  C   -0.057329
    28  C    0.008407
    29  C    0.167742
    30  C    0.027294
    31  C    0.019706
    32  N   -0.035138
    33  C    0.109380
    34  C   -0.133163
    35  C    0.067710
    36  C    0.059495
    37  C   -0.016460
    38  C    0.072969
    39  O   -0.228664
    40  C   -0.067865
    41  C    0.248999
    42  O   -0.246167
    43  O   -0.326086
    44  C    0.117684
    45  C    0.319115
    46  C   -0.025386
    47  C   -0.116905
    48  C    0.084277
    49  C    0.064558
    50  C    0.137156
    51  C    0.002982
    52  C   -0.143359
    53  C    0.032632
    54  C    0.138482
    55  C    0.110647
    56  C   -0.013916
    57  C   -0.109662
    58  C   -0.043594
    59  C   -0.042227
    60  C    0.072055
    61  C    0.073102
    62  C   -0.154018
    63  C   -0.068602
    64  C   -0.132378
    65  H    0.012994
    66  H   -0.059817
    67  H   -0.004596
    68  H    0.012710
    69  H   -0.017538
    70  H    0.004260
    71  H    0.018553
    72  H   -0.008366
    73  H    0.018564
    74  H    0.019768
    75  H    0.031793
    76  H   -0.004070
    77  H    0.053861
    78  H    0.043602
    79  H    0.039990
    80  H    0.024659
    81  H    0.029922
    82  H    0.020791
    83  H    0.031251
    84  H    0.031828
    85  H   -0.013651
    86  H    0.007757
    87  H   -0.025331
    88  H    0.017797
    89  H    0.018267
    90  H    0.000064
    91  H    0.031125
    92  H    0.042651
    93  H    0.092183
    94  H    0.082790
    95  H    0.053697
    96  H    0.047789
    97  H    0.063280
    98  H   -0.014123
    99  H   -0.016623
   100  H   -0.018039
   101  H   -0.013890
   102  H    0.006736
   103  H   -0.039926
   104  H   -0.012830
   105  H   -0.017262
   106  H   -0.004076
   107  H   -0.049623
   108  H    0.006116
   109  H   -0.020714
   110  H   -0.023892
   111  H    0.004964
   112  H    0.002073
   113  H    0.023316
   114  H   -0.082840
   115  H   -0.053915
   116  H    0.021893
   117  H   -0.032502
   118  H    0.007055
   119  H    0.011470
   120  H    0.009281
   121  H    0.031257
   122  H    0.009894
   123  H    0.025095
   124  H   -0.001860
   125  H    0.023328
   126  H   -0.004159
   127  H    0.002851
   128  H   -0.003441
   129  H   -0.032751
   130  H    0.033151
   131  H    0.047808
   132  H    0.035255
   133  H    0.040655
   134  H    0.035554
   135  H    0.038471
   136  H    0.067520
   137  H    0.192879
   138  H    0.138738
 Sum of Mulliken charges =  -0.00000

 Dipole moment (field-independent basis, Debye):
    X=              2.4850    Y=              5.4561    Z=             -0.0783  Tot=              5.9959
 Quadrupole moment (field-independent basis, Debye-Ang):
   XX=           -362.1950   YY=           -385.5320   ZZ=           -396.4552
   XY=            -29.2545   XZ=              2.3591   YZ=             -1.1321

 Normal termination of Gaussian 16 at Tue Aug 13 11:29:34 2019.
