 Gaussian 16, Revision A.03,
 Gaussian 16:  ES64L-G16RevA.03 25-Dec-2016

 --------------------------
 # td=(NStates=1) B3LYP/SVP
 --------------------------

 --
 TD
 --
 Symbolic Z-matrix:
 Charge =  0 Multiplicity = 1

                         Standard orientation:
 ---------------------------------------------------------------------
 Center     Atomic      Atomic             Coordinates (Angstroms)
 Number     Number       Type             X           Y           Z
 ---------------------------------------------------------------------
      1          6           0       -5.102939   -2.014507    0.457882
      2          6           0       -4.754528    2.784308    1.357602
      3          6           0       -9.363211    3.411797   -0.259251
      4          6           0       -9.831272   -1.301789   -0.890504
      5          7           0       -5.152665    0.370067    0.826398
      6          6           0       -4.432010   -0.772855    0.886636
      7          6           0       -3.028987   -0.594228    1.214789
      8          6           0       -3.048709    0.816804    1.889630
      9          6           0       -4.370183    1.379921    1.385427
     10          6           0       -3.011137    0.830024    3.404126
     11          6           0       -2.091521   -0.765875    0.084611
     12          6           0       -0.635512   -0.797206    0.501623
     13          6           0        0.411106   -0.954766   -0.513540
     14          8           0        0.142538   -1.558369   -1.505416
     15          8           0        1.607092   -0.742726   -0.142486
     16          7           0       -7.030846    2.748559    0.243655
     17          6           0       -5.923049    3.322813    0.861596
     18          6           0       -6.230811    4.874261    0.930802
     19          6           0       -7.497930    4.973752    0.398225
     20          6           0       -8.077500    3.691330    0.067673
     21          6           0       -5.380185    5.783153    1.566189
     22          6           0       -8.203412    6.259356    0.254335
     23          6           0       -9.129273    6.604774   -0.615043
     24          7           0       -9.300358    0.987545   -0.454822
     25          6           0       -9.897432    2.154051   -0.587288
     26          6           0      -11.373858    1.896386   -0.903242
     27          6           0      -11.456009    0.546669   -1.028375
     28          6           0      -10.066596    0.018347   -0.847749
     29          6           0      -12.419128    3.016490   -1.086274
     30          6           0      -12.753110   -0.205740   -1.315080
     31          6           0      -12.781217   -0.542893   -2.840965
     32          7           0       -7.506204   -1.188198   -0.309181
     33          6           0       -8.569502   -2.001210   -0.595825
     34          6           0       -8.209571   -3.411602   -0.624935
     35          6           0       -6.893226   -3.490906   -0.266830
     36          6           0       -6.441914   -2.044787    0.017021
     37          6           0       -9.072172   -4.612226   -1.000149
     38          6           0       -5.769007   -4.326781   -0.115274
     39          8           0       -5.583377   -5.578695   -0.314555
     40          6           0       -4.523977   -3.406488    0.315497
     41          6           0       -3.913453   -3.887820    1.635995
     42          8           0       -4.084439   -3.558947    2.818393
     43          8           0       -3.100411   -4.875347    1.444524
     44          6           0       -2.266524   -5.447085    2.536787
     45          6           0        2.689023   -1.141272   -1.070807
     46          6           0        4.031687   -0.634261   -0.481896
     47          6           0        4.962242    0.183777   -0.866094
     48          6           0        4.805423    0.916542   -2.128496
     49          6           0        6.265740    0.299769   -0.227289
     50          6           0        7.492565   -0.291008   -0.993628
     51          6           0        8.838299   -0.132172   -0.144722
     52          6           0       10.135024   -0.694554   -0.936168
     53          6           0        9.996290   -2.211412   -1.216732
     54          6           0       11.330855   -0.380551    0.081454
     55          6           0       12.657623   -0.636237   -0.600428
     56          6           0       13.857235   -0.129202    0.301052
     57          6           0       15.125819   -0.058643   -0.456163
     58          6           0       15.675238   -1.479885   -0.780657
     59          6           0       16.237777    0.558609    0.428063
     60          6           0       17.811225    0.669743   -0.187291
     61          6           0       18.741143    1.583254    0.725101
     62          6           0       20.142873    1.608285    0.217824
     63          6           0       20.115811    2.375179   -1.210396
     64          6           0       21.254374    2.343513    1.218392
     65          1           0       -4.115894    3.541961    1.878493
     66          1           0      -10.149378    4.307701   -0.239331
     67          1           0      -10.684376   -2.135629   -1.119642
     68          1           0       -2.925348   -1.404941    1.986322
     69          1           0       -2.093946    1.499302    1.575937
     70          1           0       -2.079842    0.205313    3.674454
     71          1           0       -3.245394    1.910358    3.876573
     72          1           0       -3.690653    0.180274    3.784559
     73          1           0       -2.093012   -1.861404   -0.177907
     74          1           0       -2.166787   -0.231436   -0.867170
     75          1           0       -0.467734    0.166890    1.195190
     76          1           0       -0.516537   -1.590438    1.335428
     77          1           0       -4.462613    6.168805    0.591235
     78          1           0       -5.932100    6.677073    2.033833
     79          1           0       -4.890583    5.130912    2.437976
     80          1           0       -7.661839    6.900594    1.006481
     81          1           0       -9.509200    5.821945   -1.310953
     82          1           0       -9.639660    7.465547   -0.669558
     83          1           0      -12.442572    3.560898   -0.196450
     84          1           0      -12.085025    3.636075   -2.053105
     85          1           0      -13.473260    2.546589   -1.293856
     86          1           0      -12.588575   -1.167144   -0.633580
     87          1           0      -13.590350    0.286671   -0.995688
     88          1           0      -13.056128    0.195141   -3.689655
     89          1           0      -11.857624   -1.349986   -3.028620
     90          1           0      -13.692148   -1.151818   -2.989714
     91          1           0       -9.925811   -4.639241   -0.222164
     92          1           0       -9.552557   -4.234042   -1.881002
     93          1           0       -8.618481   -5.558038   -1.009759
     94          1           0       -3.678615   -3.466278   -0.438100
     95          1           0       -1.673298   -6.362753    2.180768
     96          1           0       -1.767811   -4.558097    3.083039
     97          1           0       -2.911366   -6.100507    3.365468
     98          1           0        2.852217   -2.270804   -1.161755
     99          1           0        2.334992   -0.753660   -2.228323
    100          1           0        4.270607   -1.035014    0.444868
    101          1           0        5.016992    2.051948   -2.075272
    102          1           0        5.250605    0.730504   -2.972374
    103          1           0        3.788449    0.846309   -2.545656
    104          1           0        6.462991    1.339011   -0.131320
    105          1           0        6.206636   -0.098751    0.754191
    106          1           0        7.307815   -1.511872   -1.298924
    107          1           0        7.523979    0.340858   -1.866258
    108          1           0        8.941161    0.913642   -0.112784
    109          1           0        8.812931   -0.409833    1.053822
    110          1           0       10.203166   -0.128179   -1.824497
    111          1           0        9.031117   -2.319121   -1.828708
    112          1           0       10.892771   -2.660059   -1.878219
    113          1           0        9.734831   -2.663147   -0.232464
    114          1           0       11.215469    0.684532    0.112426
    115          1           0       11.183075   -0.857549    1.022873
    116          1           0       12.827743   -1.764982   -0.928548
    117          1           0       12.736519   -0.074632   -1.655971
    118          1           0       13.545068    0.775926    0.667268
    119          1           0       13.660995   -0.690183    1.292704
    120          1           0       15.110936    0.574354   -1.333470
    121          1           0       15.066664   -2.033782   -1.694353
    122          1           0       16.601698   -1.430570   -1.255523
    123          1           0       15.809479   -2.307083   -0.037450
    124          1           0       16.064366    1.598219    0.485384
    125          1           0       16.330041   -0.194692    1.351093
    126          1           0       18.231442   -0.345395   -0.389079
    127          1           0       17.702952    1.122788   -1.112108
    128          1           0       18.318026    2.484272    0.621865
    129          1           0       18.513044    1.194563    1.672425
    130          1           0       20.462808    0.547530    0.229775
    131          1           0       19.484955    3.376653   -1.116363
    132          1           0       21.201952    2.516673   -1.389070
    133          1           0       19.573395    1.757035   -1.927339
    134          1           0       21.025561    2.023883    2.215229
    135          1           0       22.214929    2.006256    0.826583
    136          1           0       21.033115    3.460955    1.018752
    137          1           0       -7.077320    1.873542    0.279743
    138          1           0       -7.501387   -0.183252   -0.472140
 ---------------------------------------------------------------------

 SCF Done:  E(RB3LYP) =  -2733.00292344     A.U. after   17 cycles

 Excitation energies and oscillator strengths:

 Excited State   1:      Singlet-A      2.0027 eV  619.09 nm  f=0.2068  <S**2>=0.000
     235 -> 238       -0.28779
     236 -> 237        0.63708
 This state for optimization and/or second-order correction.
 Total Energy, E(TD-HF/TD-DFT) =  -2732.92932669
 Copying the excited state density for this state as the 1-particle RhoCI density.

 The electronic state is 1-A.
 Alpha  occ. eigenvalues --  -19.18650 -19.17305 -19.11231 -19.10881 -19.10648
 Alpha  occ. eigenvalues --  -14.37878 -14.36535 -14.32734 -14.29419 -10.30966
 Alpha  occ. eigenvalues --  -10.30568 -10.27925 -10.27671 -10.27129 -10.24908
 Alpha  occ. eigenvalues --  -10.24375 -10.24043 -10.24002 -10.23988 -10.23690
 Alpha  occ. eigenvalues --  -10.23283 -10.21999 -10.21865 -10.21573 -10.21436
 Alpha  occ. eigenvalues --  -10.21227 -10.20962 -10.20944 -10.20862 -10.20838
 Alpha  occ. eigenvalues --  -10.20751 -10.20685 -10.20551 -10.20517 -10.20457
 Alpha  occ. eigenvalues --  -10.20270 -10.20192 -10.19993 -10.19931 -10.19720
 Alpha  occ. eigenvalues --  -10.19681 -10.19623 -10.19490 -10.19460 -10.19386
 Alpha  occ. eigenvalues --  -10.19366 -10.19334 -10.19285 -10.19242 -10.19182
 Alpha  occ. eigenvalues --  -10.19142 -10.18890 -10.18886 -10.18469 -10.18273
 Alpha  occ. eigenvalues --  -10.18225 -10.18097 -10.18062 -10.17864 -10.17842
 Alpha  occ. eigenvalues --  -10.17683 -10.17663 -10.17659 -10.16273  -1.12197
 Alpha  occ. eigenvalues --   -1.09657  -1.00983  -0.98439  -0.97781  -0.97436
 Alpha  occ. eigenvalues --   -0.97319  -0.95165  -0.94383  -0.84172  -0.83842
 Alpha  occ. eigenvalues --   -0.83406  -0.82156  -0.81590  -0.81145  -0.80346
 Alpha  occ. eigenvalues --   -0.80068  -0.79167  -0.78886  -0.78427  -0.77861
 Alpha  occ. eigenvalues --   -0.76965  -0.76210  -0.75544  -0.74573  -0.73908
 Alpha  occ. eigenvalues --   -0.73069  -0.72949  -0.72398  -0.71631  -0.71193
 Alpha  occ. eigenvalues --   -0.70848  -0.69234  -0.68775  -0.68285  -0.67271
 Alpha  occ. eigenvalues --   -0.66995  -0.66471  -0.66402  -0.65841  -0.65805
 Alpha  occ. eigenvalues --   -0.64621  -0.63555  -0.62841  -0.61929  -0.61403
 Alpha  occ. eigenvalues --   -0.61128  -0.59313  -0.58741  -0.57895  -0.57016
 Alpha  occ. eigenvalues --   -0.56526  -0.55938  -0.55867  -0.55779  -0.55618
 Alpha  occ. eigenvalues --   -0.55393  -0.54912  -0.54906  -0.54020  -0.53620
 Alpha  occ. eigenvalues --   -0.52795  -0.52396  -0.52018  -0.50955  -0.50378
 Alpha  occ. eigenvalues --   -0.49774  -0.49658  -0.49024  -0.48410  -0.48315
 Alpha  occ. eigenvalues --   -0.47930  -0.47624  -0.47390  -0.47133  -0.47037
 Alpha  occ. eigenvalues --   -0.46870  -0.46477  -0.46253  -0.45810  -0.45733
 Alpha  occ. eigenvalues --   -0.45629  -0.45446  -0.44946  -0.44712  -0.44577
 Alpha  occ. eigenvalues --   -0.44289  -0.44250  -0.43980  -0.43731  -0.43508
 Alpha  occ. eigenvalues --   -0.43372  -0.43342  -0.43070  -0.42733  -0.42439
 Alpha  occ. eigenvalues --   -0.42158  -0.42052  -0.41822  -0.41450  -0.41343
 Alpha  occ. eigenvalues --   -0.41303  -0.41026  -0.40957  -0.40118  -0.40035
 Alpha  occ. eigenvalues --   -0.39726  -0.39585  -0.39533  -0.39417  -0.39255
 Alpha  occ. eigenvalues --   -0.39009  -0.38662  -0.38464  -0.38326  -0.38285
 Alpha  occ. eigenvalues --   -0.38012  -0.37874  -0.37830  -0.37373  -0.37168
 Alpha  occ. eigenvalues --   -0.37136  -0.36848  -0.36653  -0.36563  -0.36487
 Alpha  occ. eigenvalues --   -0.36319  -0.35993  -0.35838  -0.35727  -0.35561
 Alpha  occ. eigenvalues --   -0.35335  -0.35179  -0.35117  -0.34918  -0.34736
 Alpha  occ. eigenvalues --   -0.34559  -0.34145  -0.34038  -0.33889  -0.33667
 Alpha  occ. eigenvalues --   -0.33644  -0.33577  -0.33226  -0.33121  -0.32752
 Alpha  occ. eigenvalues --   -0.32417  -0.32274  -0.32009  -0.31118  -0.31081
 Alpha  occ. eigenvalues --   -0.31039  -0.30964  -0.30763  -0.30368  -0.29268
 Alpha  occ. eigenvalues --   -0.29069  -0.28640  -0.27938  -0.27573  -0.27557
 Alpha  occ. eigenvalues --   -0.27193  -0.26546  -0.26532  -0.26095  -0.25646
 Alpha  occ. eigenvalues --   -0.25592  -0.24320  -0.24279  -0.22656  -0.20240
 Alpha  occ. eigenvalues --   -0.18096
 Alpha virt. eigenvalues --   -0.09868  -0.07830  -0.05198  -0.02391  -0.00220
 Alpha virt. eigenvalues --    0.00141   0.00343   0.00495   0.01735   0.02196
 Alpha virt. eigenvalues --    0.03473   0.03547   0.04040   0.04568   0.04696

 Mulliken charges:
               1
     1  C   -0.012296
     2  C   -0.072395
     3  C   -0.150641
     4  C   -0.165215
     5  N   -0.188204
     6  C   -0.058024
     7  C    0.008582
     8  C   -0.114427
     9  C    0.031288
    10  C    0.098906
    11  C    0.110729
    12  C   -0.061905
    13  C    0.168312
    14  O   -0.244802
    15  O   -0.244211
    16  N    0.017134
    17  C    0.072474
    18  C   -0.072049
    19  C   -0.006826
    20  C    0.155725
    21  C   -0.069763
    22  C   -0.011539
    23  C    0.017719
    24  N   -0.151055
    25  C    0.017418
    26  C   -0.152263
    27  C   -0.121887
    28  C    0.127598
    29  C    0.074158
    30  C    0.089035
    31  C   -0.041292
    32  N   -0.049904
    33  C    0.004933
    34  C   -0.174324
    35  C    0.057285
    36  C    0.079322
    37  C    0.155158
    38  C    0.071434
    39  O   -0.239267
    40  C   -0.055422
    41  C    0.182214
    42  O   -0.273836
    43  O   -0.263723
    44  C    0.114865
    45  C    0.199454
    46  C   -0.050943
    47  C   -0.118320
    48  C    0.094257
    49  C    0.149738
    50  C   -0.027332
    51  C   -0.012204
    52  C   -0.079131
    53  C    0.002629
    54  C    0.091204
    55  C   -0.068817
    56  C    0.107188
    57  C    0.010982
    58  C    0.000908
    59  C   -0.006885
    60  C   -0.050197
    61  C    0.148593
    62  C   -0.146197
    63  C   -0.011047
    64  C    0.019839
    65  H   -0.014377
    66  H    0.027428
    67  H    0.021142
    68  H    0.011513
    69  H    0.030907
    70  H    0.011764
    71  H    0.041476
    72  H   -0.015070
    73  H    0.012347
    74  H    0.020437
    75  H    0.011149
    76  H    0.038755
    77  H    0.067257
    78  H    0.053025
    79  H    0.061732
    80  H   -0.016077
    81  H    0.033911
    82  H   -0.010150
    83  H    0.021763
    84  H    0.047182
    85  H    0.022289
    86  H    0.021485
    87  H   -0.024814
    88  H    0.038277
    89  H    0.034998
    90  H   -0.004457
    91  H    0.030176
    92  H    0.018885
    93  H    0.031596
    94  H    0.076874
    95  H    0.060510
    96  H    0.063649
    97  H    0.050311
    98  H    0.054240
    99  H    0.070328
   100  H   -0.041352
   101  H    0.002730
   102  H   -0.028102
   103  H   -0.018814
   104  H   -0.022645
   105  H   -0.026345
   106  H    0.033977
   107  H    0.001784
   108  H   -0.022819
   109  H    0.019568
   110  H   -0.021711
   111  H    0.012110
   112  H    0.043983
   113  H    0.012666
   114  H   -0.015842
   115  H   -0.005800
   116  H    0.020515
   117  H   -0.004269
   118  H   -0.056823
   119  H   -0.007964
   120  H   -0.015060
   121  H    0.000468
   122  H   -0.019407
   123  H    0.017728
   124  H   -0.012445
   125  H    0.021917
   126  H    0.007171
   127  H   -0.025962
   128  H   -0.053753
   129  H   -0.022499
   130  H   -0.001999
   131  H    0.028281
   132  H    0.020802
   133  H    0.025516
   134  H    0.011960
   135  H    0.022543
   136  H    0.022666
   137  H    0.030891
   138  H    0.153137
 Sum of Mulliken charges =  -0.00000

 Dipole moment (field-independent basis, Debye):
    X=              2.9511    Y=              5.4804    Z=              0.6015  Tot=              6.2535
 Quadrupole moment (field-independent basis, Debye-Ang):
   XX=           -352.0732   YY=           -388.6780   ZZ=           -396.5119
   XY=            -29.3162   XZ=              4.0314   YZ=             -3.2725

 Normal termination of Gaussian 16 at Sun Aug 25 11:02:05 2019.
