 Gaussian 16, Revision A.03,
 Gaussian 16:  ES64L-G16RevA.03 25-Dec-2016

 --------------------------
 # td=(NStates=1) B3LYP/SVP
 --------------------------

 --
 TD
 --
 Symbolic Z-matrix:
 Charge =  0 Multiplicity = 1

                         Standard orientation:
 ---------------------------------------------------------------------
 Center     Atomic      Atomic             Coordinates (Angstroms)
 Number     Number       Type             X           Y           Z
 ---------------------------------------------------------------------
      1          6           0       -5.202825   -1.956112    0.441479
      2          6           0       -4.584598    2.742389    1.438052
      3          6           0       -9.171174    3.448422   -0.125441
      4          6           0       -9.852549   -1.396201   -1.018908
      5          7           0       -5.292222    0.473274    0.795433
      6          6           0       -4.674130   -0.663882    0.787872
      7          6           0       -3.102102   -0.621672    1.262932
      8          6           0       -3.147345    0.749985    1.873948
      9          6           0       -4.405894    1.406337    1.395133
     10          6           0       -2.966972    0.715017    3.364644
     11          6           0       -1.993843   -0.776589    0.067910
     12          6           0       -0.567090   -0.917631    0.487332
     13          6           0        0.366900   -1.085179   -0.742798
     14          8           0        0.099100   -1.463624   -1.858534
     15          8           0        1.722526   -0.797248   -0.392721
     16          7           0       -6.925482    2.763456    0.491652
     17          6           0       -5.763086    3.441031    1.011648
     18          6           0       -6.043183    4.796847    1.016874
     19          6           0       -7.284411    4.975273    0.534988
     20          6           0       -7.908167    3.693158    0.323452
     21          6           0       -5.047442    5.848917    1.396686
     22          6           0       -7.936446    6.299981    0.319093
     23          6           0       -8.742121    6.845843   -0.526481
     24          7           0       -9.175813    0.963140   -0.391077
     25          6           0       -9.712841    2.160286   -0.509308
     26          6           0      -11.140774    1.981272   -0.999680
     27          6           0      -11.350172    0.708888   -1.168317
     28          6           0      -10.066074    0.097226   -0.891178
     29          6           0      -12.080178    3.128707   -1.118386
     30          6           0      -12.515808    0.017785   -1.629019
     31          6           0      -12.599368   -0.339870   -3.077629
     32          7           0       -7.512789   -1.141489   -0.348579
     33          6           0       -8.575031   -1.910949   -0.688288
     34          6           0       -8.253523   -3.371228   -0.702903
     35          6           0       -6.902847   -3.394766   -0.239725
     36          6           0       -6.487943   -2.027167   -0.021839
     37          6           0       -9.187287   -4.491109   -0.940201
     38          6           0       -5.769739   -4.274395    0.033289
     39          8           0       -5.748071   -5.498625   -0.099281
     40          6           0       -4.591198   -3.417993    0.505050
     41          6           0       -4.138089   -3.789014    1.794204
     42          8           0       -4.268616   -3.335701    2.921293
     43          8           0       -3.433128   -4.944725    1.700505
     44          6           0       -2.897371   -5.633260    2.773199
     45          6           0        2.691371   -1.211208   -1.344772
     46          6           0        3.960406   -1.014420   -0.628859
     47          6           0        4.993487   -0.144211   -0.949840
     48          6           0        4.893317    0.804280   -2.228079
     49          6           0        6.266483   -0.076880   -0.241894
     50          6           0        7.464362   -0.518553   -0.939465
     51          6           0        8.768161   -0.540797   -0.148882
     52          6           0       10.050999   -0.902557   -0.897990
     53          6           0       10.008950   -2.477307   -1.171749
     54          6           0       11.259041   -0.459009   -0.047304
     55          6           0       12.662530   -0.747231   -0.673639
     56          6           0       13.787173   -0.190174    0.232986
     57          6           0       15.263641   -0.226195   -0.323627
     58          6           0       15.690715   -1.677521   -0.584783
     59          6           0       16.168057    0.604442    0.525575
     60          6           0       17.594990    0.969339   -0.130952
     61          6           0       18.458807    1.867021    0.595783
     62          6           0       19.900168    1.969467    0.217603
     63          6           0       20.171949    2.411222   -1.244803
     64          6           0       20.790568    2.633117    1.272557
     65          1           0       -3.853255    3.515554    1.833544
     66          1           0       -9.719268    4.403839   -0.394913
     67          1           0      -10.698227   -1.878954   -1.407235
     68          1           0       -2.785496   -1.350450    1.927751
     69          1           0       -2.299594    1.445373    1.460811
     70          1           0       -1.924655    0.485631    3.551769
     71          1           0       -3.271162    1.710734    3.858988
     72          1           0       -3.594164   -0.156904    3.816977
     73          1           0       -2.509140   -1.713121   -0.605567
     74          1           0       -2.202364    0.070797   -0.637158
     75          1           0       -0.155026   -0.008909    1.061823
     76          1           0       -0.218778   -1.929760    0.966975
     77          1           0       -4.016584    5.851179    1.100756
     78          1           0       -5.437058    6.855769    1.607201
     79          1           0       -4.725039    5.503186    2.653585
     80          1           0       -7.732249    6.973274    1.329420
     81          1           0       -8.965444    6.075759   -1.320741
     82          1           0       -9.277665    7.725097   -0.492490
     83          1           0      -12.524760    3.643196   -0.168568
     84          1           0      -11.682535    3.999301   -1.826681
     85          1           0      -13.098416    2.797388   -1.811915
     86          1           0      -12.682202   -0.864228   -1.063981
     87          1           0      -13.371762    0.740763   -1.476069
     88          1           0      -12.443654    0.644090   -3.540657
     89          1           0      -11.764073   -0.907111   -3.397644
     90          1           0      -13.657146   -0.771783   -3.522555
     91          1           0      -10.016464   -4.736783   -0.244892
     92          1           0       -9.799287   -4.319654   -1.915571
     93          1           0       -8.582784   -5.493925   -1.247778
     94          1           0       -3.868236   -3.497623   -0.254363
     95          1           0       -2.516916   -6.375446    2.339349
     96          1           0       -2.218424   -4.841248    3.399242
     97          1           0       -3.820997   -5.984119    3.563125
     98          1           0        2.725035   -2.395489   -1.639106
     99          1           0        2.778676   -0.355330   -2.144923
    100          1           0        4.346863   -1.551823    0.121199
    101          1           0        5.345814    1.653612   -2.141636
    102          1           0        5.440200    0.274667   -3.086052
    103          1           0        3.762612    1.022410   -2.381968
    104          1           0        6.467994    0.938452   -0.169216
    105          1           0        6.105233   -0.526118    0.815313
    106          1           0        7.520825   -1.586424   -1.470216
    107          1           0        7.807769   -0.063650   -1.860906
    108          1           0        9.059821    0.388385    0.393770
    109          1           0        8.716150   -1.351066    0.671360
    110          1           0        9.861631   -0.251807   -1.841273
    111          1           0        9.035753   -2.894475   -1.786008
    112          1           0       10.886996   -2.835776   -1.772876
    113          1           0       10.003763   -3.180789   -0.117248
    114          1           0       11.059355    0.483513    0.293032
    115          1           0       11.159405   -0.952065    0.956550
    116          1           0       12.833795   -1.844356   -0.861990
    117          1           0       12.723507   -0.381033   -1.701733
    118          1           0       13.449077    0.850345    0.553795
    119          1           0       13.953843   -0.766643    1.107372
    120          1           0       15.096001    0.432556   -1.158817
    121          1           0       15.074583   -2.211304   -1.274882
    122          1           0       16.819123   -1.998480   -0.863044
    123          1           0       15.757869   -2.061477    0.435549
    124          1           0       15.817634    1.704281    0.667245
    125          1           0       16.459136    0.122584    1.482464
    126          1           0       18.133551   -0.062493   -0.441482
    127          1           0       17.304548    1.358239   -1.195076
    128          1           0       18.250026    2.972941    0.488334
    129          1           0       18.406670    1.777283    1.620831
    130          1           0       20.259326    0.875625    0.171628
    131          1           0       19.832050    3.457967   -1.363272
    132          1           0       21.219194    2.488909   -1.488829
    133          1           0       19.570996    1.469659   -1.742656
    134          1           0       20.940186    1.973835    2.456704
    135          1           0       21.762778    2.919154    0.929937
    136          1           0       20.242390    3.569884    1.526960
    137          1           0       -6.837299    1.685849    0.569270
    138          1           0       -7.653121   -0.228781   -0.196033
 ---------------------------------------------------------------------

 SCF Done:  E(RB3LYP) =  -2733.01335619     A.U. after   17 cycles

 Excitation energies and oscillator strengths:

 Excited State   1:      Singlet-A      1.9748 eV  627.82 nm  f=0.2270  <S**2>=0.000
     235 -> 238        0.25540
     236 -> 237        0.64726
 This state for optimization and/or second-order correction.
 Total Energy, E(TD-HF/TD-DFT) =  -2732.94078214
 Copying the excited state density for this state as the 1-particle RhoCI density.

 The electronic state is 1-A.
 Alpha  occ. eigenvalues --  -19.16827 -19.16521 -19.13438 -19.12789 -19.12501
 Alpha  occ. eigenvalues --  -14.37155 -14.36624 -14.33961 -14.30307 -10.32149
 Alpha  occ. eigenvalues --  -10.31807 -10.28703 -10.25582 -10.24885 -10.24606
 Alpha  occ. eigenvalues --  -10.24575 -10.24143 -10.23424 -10.23353 -10.23273
 Alpha  occ. eigenvalues --  -10.23186 -10.23185 -10.22473 -10.22135 -10.21875
 Alpha  occ. eigenvalues --  -10.21807 -10.21771 -10.21532 -10.21505 -10.21294
 Alpha  occ. eigenvalues --  -10.20994 -10.20893 -10.20828 -10.20629 -10.20515
 Alpha  occ. eigenvalues --  -10.20251 -10.20237 -10.20216 -10.20200 -10.20116
 Alpha  occ. eigenvalues --  -10.20104 -10.19908 -10.19631 -10.19375 -10.19374
 Alpha  occ. eigenvalues --  -10.19160 -10.19138 -10.19061 -10.19009 -10.18948
 Alpha  occ. eigenvalues --  -10.18939 -10.18842 -10.18825 -10.18795 -10.18783
 Alpha  occ. eigenvalues --  -10.18692 -10.18354 -10.18328 -10.18302 -10.18269
 Alpha  occ. eigenvalues --  -10.18191 -10.17209 -10.17094 -10.17064  -1.09863
 Alpha  occ. eigenvalues --   -1.07956  -1.02467  -1.00467  -0.99965  -0.99232
 Alpha  occ. eigenvalues --   -0.97341  -0.95540  -0.95129  -0.86461  -0.83144
 Alpha  occ. eigenvalues --   -0.82264  -0.82213  -0.81865  -0.81577  -0.81162
 Alpha  occ. eigenvalues --   -0.80978  -0.80664  -0.80150  -0.78939  -0.78802
 Alpha  occ. eigenvalues --   -0.77476  -0.76715  -0.76504  -0.75042  -0.74646
 Alpha  occ. eigenvalues --   -0.74044  -0.73084  -0.72629  -0.71245  -0.70880
 Alpha  occ. eigenvalues --   -0.70693  -0.69781  -0.68957  -0.68041  -0.67630
 Alpha  occ. eigenvalues --   -0.67288  -0.66813  -0.66491  -0.66351  -0.65141
 Alpha  occ. eigenvalues --   -0.63993  -0.63179  -0.62930  -0.62170  -0.61991
 Alpha  occ. eigenvalues --   -0.61053  -0.59288  -0.59001  -0.58119  -0.57625
 Alpha  occ. eigenvalues --   -0.57311  -0.56751  -0.55627  -0.55594  -0.55019
 Alpha  occ. eigenvalues --   -0.54985  -0.54429  -0.54306  -0.53909  -0.52896
 Alpha  occ. eigenvalues --   -0.52682  -0.52370  -0.52277  -0.51968  -0.50556
 Alpha  occ. eigenvalues --   -0.50070  -0.49690  -0.49094  -0.48813  -0.48545
 Alpha  occ. eigenvalues --   -0.48452  -0.48270  -0.47969  -0.47790  -0.47178
 Alpha  occ. eigenvalues --   -0.47117  -0.46961  -0.46441  -0.45991  -0.45807
 Alpha  occ. eigenvalues --   -0.45726  -0.45504  -0.45195  -0.44769  -0.44737
 Alpha  occ. eigenvalues --   -0.44649  -0.44530  -0.44351  -0.44238  -0.44084
 Alpha  occ. eigenvalues --   -0.43932  -0.43635  -0.43422  -0.43087  -0.42847
 Alpha  occ. eigenvalues --   -0.42530  -0.42443  -0.42078  -0.41875  -0.41570
 Alpha  occ. eigenvalues --   -0.41274  -0.41050  -0.40952  -0.40814  -0.40471
 Alpha  occ. eigenvalues --   -0.40220  -0.40173  -0.39908  -0.39825  -0.39640
 Alpha  occ. eigenvalues --   -0.39559  -0.39099  -0.39018  -0.38841  -0.38665
 Alpha  occ. eigenvalues --   -0.38461  -0.38305  -0.38223  -0.38000  -0.37601
 Alpha  occ. eigenvalues --   -0.37472  -0.37347  -0.37194  -0.37117  -0.36987
 Alpha  occ. eigenvalues --   -0.36647  -0.36352  -0.35825  -0.35700  -0.35521
 Alpha  occ. eigenvalues --   -0.35384  -0.35256  -0.34956  -0.34931  -0.34867
 Alpha  occ. eigenvalues --   -0.34788  -0.34085  -0.33822  -0.33732  -0.33670
 Alpha  occ. eigenvalues --   -0.33563  -0.33020  -0.32814  -0.32490  -0.32294
 Alpha  occ. eigenvalues --   -0.31941  -0.31854  -0.31495  -0.31422  -0.31014
 Alpha  occ. eigenvalues --   -0.30819  -0.30356  -0.30333  -0.29526  -0.29505
 Alpha  occ. eigenvalues --   -0.29126  -0.28950  -0.28733  -0.28635  -0.28145
 Alpha  occ. eigenvalues --   -0.27955  -0.27856  -0.26973  -0.26659  -0.26493
 Alpha  occ. eigenvalues --   -0.25844  -0.24972  -0.23948  -0.23849  -0.20737
 Alpha  occ. eigenvalues --   -0.18724
 Alpha virt. eigenvalues --   -0.10651  -0.08267  -0.05006  -0.01687  -0.00720
 Alpha virt. eigenvalues --   -0.00457   0.00146   0.00374   0.01921   0.03015
 Alpha virt. eigenvalues --    0.03385   0.03511   0.03908   0.04198   0.04545

 Mulliken charges:
               1
     1  C   -0.109850
     2  C   -0.075031
     3  C   -0.104206
     4  C   -0.044551
     5  N   -0.170846
     6  C   -0.063205
     7  C   -0.001049
     8  C   -0.045792
     9  C    0.094908
    10  C    0.045921
    11  C   -0.033609
    12  C    0.041977
    13  C    0.167790
    14  O   -0.209295
    15  O   -0.356362
    16  N   -0.136990
    17  C    0.017303
    18  C   -0.045380
    19  C    0.022448
    20  C    0.116367
    21  C    0.037953
    22  C   -0.087596
    23  C    0.000691
    24  N   -0.168625
    25  C    0.035751
    26  C   -0.085535
    27  C   -0.085951
    28  C   -0.025594
    29  C   -0.045154
    30  C    0.088401
    31  C    0.007516
    32  N    0.047223
    33  C    0.099867
    34  C   -0.102471
    35  C    0.006724
    36  C    0.150894
    37  C    0.010186
    38  C    0.012908
    39  O   -0.172155
    40  C    0.104164
    41  C    0.211770
    42  O   -0.225514
    43  O   -0.298581
    44  C    0.188561
    45  C    0.290146
    46  C   -0.032896
    47  C   -0.244563
    48  C    0.084001
    49  C    0.224310
    50  C    0.025442
    51  C   -0.030185
    52  C   -0.094364
    53  C   -0.071327
    54  C    0.078862
    55  C    0.075604
    56  C   -0.005574
    57  C    0.003028
    58  C    0.022848
    59  C   -0.008320
    60  C   -0.064812
    61  C    0.147369
    62  C   -0.155547
    63  C    0.008791
    64  C   -0.000166
    65  H   -0.011549
    66  H   -0.007178
    67  H   -0.037779
    68  H   -0.024214
    69  H    0.005686
    70  H    0.008793
    71  H    0.021259
    72  H    0.044204
    73  H    0.037930
    74  H    0.020757
    75  H    0.059454
    76  H    0.065611
    77  H    0.034109
    78  H    0.027030
    79  H    0.008351
    80  H    0.022744
    81  H    0.026323
    82  H    0.004546
    83  H    0.052851
    84  H    0.035943
    85  H    0.021276
    86  H   -0.011737
    87  H   -0.002300
    88  H   -0.002841
    89  H   -0.005241
    90  H    0.036916
    91  H    0.051976
    92  H    0.025441
    93  H    0.063691
    94  H    0.042940
    95  H   -0.016394
    96  H    0.043821
    97  H    0.040582
    98  H    0.059021
    99  H    0.022879
   100  H   -0.082456
   101  H   -0.044648
   102  H    0.040997
   103  H    0.033950
   104  H   -0.027797
   105  H    0.013950
   106  H   -0.019672
   107  H   -0.032138
   108  H   -0.017932
   109  H   -0.009449
   110  H    0.003309
   111  H    0.036407
   112  H    0.023872
   113  H    0.032694
   114  H   -0.043405
   115  H   -0.015778
   116  H    0.002599
   117  H   -0.013174
   118  H    0.002285
   119  H   -0.023710
   120  H   -0.029957
   121  H    0.023228
   122  H    0.021835
   123  H   -0.001304
   124  H    0.012883
   125  H   -0.004702
   126  H    0.006670
   127  H    0.007383
   128  H   -0.020489
   129  H   -0.037459
   130  H   -0.013046
   131  H    0.002301
   132  H    0.006664
   133  H    0.048293
   134  H    0.023549
   135  H    0.005728
   136  H    0.000271
   137  H    0.191024
   138  H    0.063696
 Sum of Mulliken charges =  -0.00000

 Dipole moment (field-independent basis, Debye):
    X=              1.7557    Y=              3.6158    Z=              0.3576  Tot=              4.0354
 Quadrupole moment (field-independent basis, Debye-Ang):
   XX=           -362.4358   YY=           -381.7516   ZZ=           -404.2651
   XY=            -16.6429   XZ=              8.7600   YZ=              1.2574

 Normal termination of Gaussian 16 at Sun Sep  1 13:37:01 2019.
