 Gaussian 16, Revision A.03,
 Gaussian 16:  ES64L-G16RevA.03 25-Dec-2016

 --------------------------
 # td=(NStates=1) B3LYP/SVP
 --------------------------

 --
 TD
 --
 Symbolic Z-matrix:
 Charge =  0 Multiplicity = 1

                         Standard orientation:
 ---------------------------------------------------------------------
 Center     Atomic      Atomic             Coordinates (Angstroms)
 Number     Number       Type             X           Y           Z
 ---------------------------------------------------------------------
      1          6           0       -4.982648   -1.980244    0.523799
      2          6           0       -4.746854    2.826903    1.580280
      3          6           0       -9.345052    3.278523   -0.267190
      4          6           0       -9.712698   -1.483873   -0.998554
      5          7           0       -5.154816    0.464781    0.889165
      6          6           0       -4.370084   -0.752970    0.961986
      7          6           0       -3.064475   -0.488773    1.436146
      8          6           0       -3.049436    0.869356    2.021786
      9          6           0       -4.356359    1.463166    1.544983
     10          6           0       -2.707838    0.995096    3.458659
     11          6           0       -2.059874   -0.811882    0.216538
     12          6           0       -0.549166   -0.689277    0.623199
     13          6           0        0.274964   -1.097964   -0.498563
     14          8           0        0.089843   -1.731352   -1.489288
     15          8           0        1.590099   -0.728683   -0.184227
     16          7           0       -7.109296    2.725258    0.525047
     17          6           0       -6.072056    3.380890    1.107581
     18          6           0       -6.338225    4.718354    1.154356
     19          6           0       -7.619594    4.911348    0.699202
     20          6           0       -8.080621    3.582120    0.328261
     21          6           0       -5.211791    5.871526    1.579116
     22          6           0       -8.267552    6.221820    0.432732
     23          6           0       -9.204630    6.699925   -0.401487
     24          7           0       -9.162975    0.882806   -0.601952
     25          6           0       -9.857863    2.038747   -0.574680
     26          6           0      -11.226660    1.883625   -1.171262
     27          6           0      -11.285765    0.519272   -1.446350
     28          6           0       -9.925524   -0.049546   -1.032376
     29          6           0      -12.364955    2.923748   -1.407916
     30          6           0      -12.548781   -0.264064   -1.908970
     31          6           0      -12.272687   -0.583646   -3.427324
     32          7           0       -7.333083   -1.283196   -0.240417
     33          6           0       -8.479171   -2.007409   -0.630837
     34          6           0       -8.069817   -3.429624   -0.683157
     35          6           0       -6.712456   -3.428518   -0.109002
     36          6           0       -6.296837   -2.091486    0.044636
     37          6           0       -8.847774   -4.615531   -1.145608
     38          6           0       -5.517428   -4.328329   -0.018873
     39          8           0       -5.443838   -5.544122   -0.239108
     40          6           0       -4.423431   -3.346190    0.537747
     41          6           0       -3.905446   -3.811788    1.901868
     42          8           0       -4.100419   -3.264241    2.984256
     43          8           0       -3.021224   -4.812223    1.698817
     44          6           0       -2.675542   -5.486553    2.968546
     45          6           0        2.563201   -1.142249   -1.090426
     46          6           0        3.936881   -0.567212   -0.614918
     47          6           0        4.899361    0.062510   -1.345157
     48          6           0        4.682117    0.558323   -2.767359
     49          6           0        6.206281    0.495896   -0.611566
     50          6           0        7.431155   -0.270798   -1.135205
     51          6           0        8.678559    0.112307   -0.277027
     52          6           0        9.918447   -0.647972   -0.861966
     53          6           0        9.876248   -2.308394   -0.617154
     54          6           0       11.147697   -0.030192   -0.116418
     55          6           0       12.533494   -0.445622   -0.663026
     56          6           0       13.675980    0.140590    0.094956
     57          6           0       15.165689   -0.348757   -0.347427
     58          6           0       15.487680   -1.804990   -0.216697
     59          6           0       16.224753    0.612101    0.347805
     60          6           0       17.593440    0.620199   -0.161984
     61          6           0       18.539166    1.487996    0.614281
     62          6           0       19.978333    1.615911    0.050057
     63          6           0       20.180526    2.106671   -1.314114
     64          6           0       20.785767    2.519058    1.005433
     65          1           0       -3.894879    3.344927    2.010943
     66          1           0       -9.878481    4.169107   -0.392117
     67          1           0      -10.382486   -2.169366   -1.340915
     68          1           0       -2.848747   -1.276392    2.363753
     69          1           0       -2.272883    1.518259    1.466764
     70          1           0       -1.595101    0.931955    3.521471
     71          1           0       -3.049148    1.961123    3.701103
     72          1           0       -3.399770    0.042330    3.971256
     73          1           0       -2.344890   -1.926154   -0.037508
     74          1           0       -2.142843   -0.318772   -0.673093
     75          1           0       -0.139407    0.187894    1.039744
     76          1           0       -0.255757   -1.508123    1.425978
     77          1           0       -4.495415    5.609775    1.013789
     78          1           0       -5.525317    6.847991    1.380404
     79          1           0       -4.842214    5.924683    2.703936
     80          1           0       -7.984411    6.883701    1.428725
     81          1           0       -9.668645    6.252059   -1.238084
     82          1           0       -9.506320    7.707970   -0.231070
     83          1           0      -12.592477    3.441387   -0.649043
     84          1           0      -12.009779    3.602548   -2.256428
     85          1           0      -13.179556    2.470687   -1.762280
     86          1           0      -12.686158   -1.068286   -1.561417
     87          1           0      -13.434021    0.314164   -1.682821
     88          1           0      -12.184133    0.539232   -3.966538
     89          1           0      -11.380997   -1.104584   -3.526179
     90          1           0      -13.057732   -1.234629   -3.706042
     91          1           0       -9.862944   -4.823333   -0.651431
     92          1           0       -9.110337   -4.446307   -2.231416
     93          1           0       -8.259283   -5.502175   -0.819711
     94          1           0       -3.502942   -3.499846   -0.077006
     95          1           0       -2.343629   -6.446711    2.692835
     96          1           0       -1.980760   -4.932338    3.545400
     97          1           0       -3.535804   -5.790692    3.559841
     98          1           0        2.692017   -2.290054   -1.069957
     99          1           0        2.456785   -0.903852   -2.102520
    100          1           0        4.065826   -0.661473    0.474559
    101          1           0        5.107596    1.569143   -2.867096
    102          1           0        5.091696   -0.165654   -3.443801
    103          1           0        3.611944    0.711412   -3.065200
    104          1           0        6.270943    1.687475   -0.760359
    105          1           0        6.007178    0.255946    0.410942
    106          1           0        7.229916   -1.355928   -1.157151
    107          1           0        7.714802   -0.107420   -2.262284
    108          1           0        8.596029    1.318824   -0.611324
    109          1           0        8.494782   -0.163609    0.800549
    110          1           0       10.096860   -0.383244   -1.910573
    111          1           0        9.137286   -2.745404   -1.429391
    112          1           0       11.100201   -2.967861   -0.441370
    113          1           0        9.278637   -2.559140    0.578349
    114          1           0       11.148730    1.056833   -0.177723
    115          1           0       11.172576   -0.461095    0.870527
    116          1           0       12.616865   -1.592818   -0.566775
    117          1           0       12.688108   -0.233085   -1.816203
    118          1           0       13.609600    1.143721    0.299415
    119          1           0       13.798821   -0.120921    1.140911
    120          1           0       15.092183    0.070482   -1.453713
    121          1           0       14.583570   -2.433454   -0.720511
    122          1           0       16.540236   -1.988866   -0.812871
    123          1           0       15.660941   -1.813525    1.022640
    124          1           0       15.863672    1.654233    0.317409
    125          1           0       16.256090    0.395605    1.556638
    126          1           0       17.985315   -0.391617   -0.281425
    127          1           0       17.577947    1.159453   -1.127024
    128          1           0       17.981268    2.423908    0.494645
    129          1           0       18.458972    1.207506    1.568877
    130          1           0       20.504165    0.537876    0.183134
    131          1           0       19.790696    3.111741   -1.452505
    132          1           0       21.281977    2.312624   -1.537731
    133          1           0       19.920681    1.393272   -2.256443
    134          1           0       20.882950    2.235643    2.035458
    135          1           0       21.912967    2.438640    0.760046
    136          1           0       20.407844    3.617024    1.014439
    137          1           0       -7.280468    1.613885    0.439941
    138          1           0       -7.439340   -0.373641   -0.062053
 ---------------------------------------------------------------------

 SCF Done:  E(RB3LYP) =  -2732.98341363     A.U. after   18 cycles

 Excitation energies and oscillator strengths:

 Excited State   1:      Singlet-A      1.9394 eV  639.30 nm  f=0.1938  <S**2>=0.000
     235 -> 237       -0.16140
     235 -> 238       -0.25248
     236 -> 237        0.63228
 This state for optimization and/or second-order correction.
 Total Energy, E(TD-HF/TD-DFT) =  -2732.91214323
 Copying the excited state density for this state as the 1-particle RhoCI density.

 The electronic state is 1-A.
 Alpha  occ. eigenvalues --  -19.18753 -19.16435 -19.13291 -19.13165 -19.12902
 Alpha  occ. eigenvalues --  -14.37799 -14.36792 -14.32692 -14.30405 -10.32306
 Alpha  occ. eigenvalues --  -10.31493 -10.28789 -10.24224 -10.24216 -10.24081
 Alpha  occ. eigenvalues --  -10.23855 -10.23827 -10.23777 -10.23631 -10.22791
 Alpha  occ. eigenvalues --  -10.22722 -10.22716 -10.22192 -10.21929 -10.21718
 Alpha  occ. eigenvalues --  -10.21604 -10.21577 -10.21288 -10.21233 -10.21104
 Alpha  occ. eigenvalues --  -10.20764 -10.20758 -10.20587 -10.20449 -10.20427
 Alpha  occ. eigenvalues --  -10.20368 -10.20311 -10.20153 -10.19990 -10.19981
 Alpha  occ. eigenvalues --  -10.19873 -10.19716 -10.19673 -10.19652 -10.19580
 Alpha  occ. eigenvalues --  -10.19565 -10.19375 -10.19196 -10.19139 -10.19004
 Alpha  occ. eigenvalues --  -10.18755 -10.18745 -10.18729 -10.18700 -10.18685
 Alpha  occ. eigenvalues --  -10.18665 -10.18330 -10.18203 -10.17732 -10.17718
 Alpha  occ. eigenvalues --  -10.17431 -10.16800 -10.16764 -10.16619  -1.09616
 Alpha  occ. eigenvalues --   -1.09325  -1.01727  -1.01166  -1.00319  -1.00076
 Alpha  occ. eigenvalues --   -0.98637  -0.95326  -0.92129  -0.85713  -0.82013
 Alpha  occ. eigenvalues --   -0.81679  -0.81131  -0.81063  -0.80695  -0.80142
 Alpha  occ. eigenvalues --   -0.79802  -0.79378  -0.79179  -0.78814  -0.78379
 Alpha  occ. eigenvalues --   -0.76736  -0.76384  -0.75971  -0.74784  -0.74512
 Alpha  occ. eigenvalues --   -0.74130  -0.73075  -0.72124  -0.71262  -0.70804
 Alpha  occ. eigenvalues --   -0.70354  -0.69742  -0.69060  -0.68786  -0.67236
 Alpha  occ. eigenvalues --   -0.67027  -0.66431  -0.66108  -0.65477  -0.64393
 Alpha  occ. eigenvalues --   -0.64179  -0.63179  -0.62495  -0.62317  -0.61877
 Alpha  occ. eigenvalues --   -0.60220  -0.59321  -0.58008  -0.57770  -0.56850
 Alpha  occ. eigenvalues --   -0.56536  -0.56212  -0.55931  -0.55645  -0.55184
 Alpha  occ. eigenvalues --   -0.55143  -0.54931  -0.53588  -0.53472  -0.52921
 Alpha  occ. eigenvalues --   -0.52799  -0.52076  -0.51444  -0.50940  -0.50757
 Alpha  occ. eigenvalues --   -0.50110  -0.49948  -0.49482  -0.48800  -0.48752
 Alpha  occ. eigenvalues --   -0.48381  -0.47722  -0.47569  -0.47185  -0.46758
 Alpha  occ. eigenvalues --   -0.46678  -0.46356  -0.46184  -0.46066  -0.45795
 Alpha  occ. eigenvalues --   -0.45605  -0.45534  -0.45149  -0.44726  -0.44542
 Alpha  occ. eigenvalues --   -0.44398  -0.44178  -0.43930  -0.43766  -0.43716
 Alpha  occ. eigenvalues --   -0.43707  -0.43595  -0.43336  -0.43203  -0.42537
 Alpha  occ. eigenvalues --   -0.42281  -0.42243  -0.42093  -0.41823  -0.41686
 Alpha  occ. eigenvalues --   -0.41354  -0.40999  -0.40811  -0.40781  -0.40474
 Alpha  occ. eigenvalues --   -0.40275  -0.40057  -0.39934  -0.39683  -0.39450
 Alpha  occ. eigenvalues --   -0.39362  -0.39128  -0.38873  -0.38590  -0.38453
 Alpha  occ. eigenvalues --   -0.38328  -0.38092  -0.37907  -0.37630  -0.37627
 Alpha  occ. eigenvalues --   -0.37419  -0.37236  -0.37000  -0.36885  -0.36705
 Alpha  occ. eigenvalues --   -0.36545  -0.36223  -0.35974  -0.35950  -0.35699
 Alpha  occ. eigenvalues --   -0.35584  -0.35483  -0.35323  -0.35111  -0.34879
 Alpha  occ. eigenvalues --   -0.34717  -0.34368  -0.34293  -0.33580  -0.33243
 Alpha  occ. eigenvalues --   -0.33115  -0.33024  -0.32839  -0.32761  -0.32560
 Alpha  occ. eigenvalues --   -0.32505  -0.32186  -0.31653  -0.31617  -0.31446
 Alpha  occ. eigenvalues --   -0.31290  -0.30646  -0.30567  -0.30212  -0.29900
 Alpha  occ. eigenvalues --   -0.29397  -0.28971  -0.28657  -0.28542  -0.27822
 Alpha  occ. eigenvalues --   -0.27470  -0.27104  -0.26919  -0.26282  -0.25714
 Alpha  occ. eigenvalues --   -0.25445  -0.24490  -0.23777  -0.22931  -0.19729
 Alpha  occ. eigenvalues --   -0.18848
 Alpha virt. eigenvalues --   -0.10895  -0.07377  -0.04841  -0.01761  -0.00947
 Alpha virt. eigenvalues --   -0.00617   0.00469   0.00784   0.01335   0.01536
 Alpha virt. eigenvalues --    0.03749   0.04145   0.04282   0.04579   0.04732

 Mulliken charges:
               1
     1  C    0.058155
     2  C   -0.055524
     3  C   -0.019282
     4  C   -0.024229
     5  N   -0.277554
     6  C   -0.021762
     7  C   -0.062904
     8  C   -0.021939
     9  C   -0.037883
    10  C    0.083147
    11  C    0.058473
    12  C    0.057056
    13  C    0.149303
    14  O   -0.197648
    15  O   -0.341028
    16  N   -0.029049
    17  C    0.109568
    18  C   -0.136070
    19  C   -0.003664
    20  C   -0.031237
    21  C    0.173614
    22  C   -0.054814
    23  C   -0.019224
    24  N   -0.163007
    25  C    0.077514
    26  C   -0.179224
    27  C   -0.163373
    28  C    0.037082
    29  C    0.261657
    30  C    0.248534
    31  C   -0.005951
    32  N    0.037702
    33  C    0.075989
    34  C   -0.123194
    35  C   -0.086768
    36  C    0.073736
    37  C    0.059463
    38  C    0.116111
    39  O   -0.186651
    40  C   -0.101698
    41  C    0.213527
    42  O   -0.238942
    43  O   -0.313241
    44  C    0.229528
    45  C    0.300112
    46  C   -0.121426
    47  C   -0.169804
    48  C    0.081452
    49  C    0.091642
    50  C   -0.027477
    51  C   -0.005583
    52  C   -0.034203
    53  C   -0.146143
    54  C    0.058615
    55  C    0.025738
    56  C    0.065899
    57  C   -0.098181
    58  C   -0.037533
    59  C   -0.048967
    60  C    0.084527
    61  C    0.087299
    62  C   -0.078325
    63  C    0.015577
    64  C   -0.000294
    65  H   -0.031572
    66  H   -0.072368
    67  H   -0.067715
    68  H    0.050740
    69  H    0.003909
    70  H    0.023929
    71  H   -0.006497
    72  H    0.060289
    73  H    0.030614
    74  H   -0.002596
    75  H    0.019755
    76  H    0.055796
    77  H   -0.024507
    78  H   -0.003097
    79  H    0.035134
    80  H    0.036894
    81  H    0.017213
    82  H    0.018004
    83  H   -0.035164
    84  H    0.017435
    85  H   -0.040984
    86  H   -0.120300
    87  H   -0.005601
    88  H    0.037192
    89  H    0.000498
    90  H   -0.002069
    91  H    0.032951
    92  H    0.044941
    93  H    0.052217
    94  H    0.075099
    95  H    0.016268
    96  H    0.031044
    97  H    0.027173
    98  H    0.015798
    99  H   -0.019382
   100  H   -0.010790
   101  H    0.012450
   102  H    0.022102
   103  H    0.019537
   104  H    0.020395
   105  H   -0.015651
   106  H   -0.006211
   107  H    0.005275
   108  H    0.028993
   109  H    0.019410
   110  H   -0.004181
   111  H    0.060433
   112  H    0.066460
   113  H    0.031605
   114  H   -0.002500
   115  H   -0.010140
   116  H   -0.011174
   117  H   -0.000412
   118  H   -0.050383
   119  H   -0.042603
   120  H   -0.005749
   121  H    0.050729
   122  H    0.050086
   123  H    0.036627
   124  H   -0.014161
   125  H   -0.009183
   126  H   -0.018286
   127  H   -0.013993
   128  H   -0.028714
   129  H   -0.050648
   130  H    0.003482
   131  H   -0.002452
   132  H    0.003516
   133  H    0.031942
   134  H   -0.006388
   135  H    0.007111
   136  H    0.017039
   137  H    0.217583
   138  H    0.060574
 Sum of Mulliken charges =  -0.00000

 Dipole moment (field-independent basis, Debye):
    X=              0.3105    Y=              3.1360    Z=              1.0710  Tot=              3.3284
 Quadrupole moment (field-independent basis, Debye-Ang):
   XX=           -355.2797   YY=           -384.4606   ZZ=           -395.2225
   XY=             -7.0457   XZ=              7.6357   YZ=             -6.8640

 Normal termination of Gaussian 16 at Mon Aug 12 11:37:23 2019.
