 Gaussian 16, Revision A.03,
 Gaussian 16:  ES64L-G16RevA.03 25-Dec-2016

 --------------------------
 # td=(NStates=1) B3LYP/SVP
 --------------------------

 --
 TD
 --
 Symbolic Z-matrix:
 Charge =  0 Multiplicity = 1

                         Standard orientation:
 ---------------------------------------------------------------------
 Center     Atomic      Atomic             Coordinates (Angstroms)
 Number     Number       Type             X           Y           Z
 ---------------------------------------------------------------------
      1          6           0       -5.067563   -1.982416    0.409332
      2          6           0       -4.715059    2.776650    1.455984
      3          6           0       -9.329287    3.253261   -0.249150
      4          6           0       -9.864276   -1.519513   -0.858969
      5          7           0       -5.294243    0.429800    0.875102
      6          6           0       -4.438694   -0.678960    0.848294
      7          6           0       -3.046585   -0.580996    1.323479
      8          6           0       -3.073800    0.907795    1.913674
      9          6           0       -4.455497    1.380422    1.423551
     10          6           0       -2.896631    1.014766    3.448026
     11          6           0       -2.016634   -0.710016    0.075130
     12          6           0       -0.608783   -0.730747    0.498360
     13          6           0        0.468425   -0.967951   -0.631726
     14          8           0        0.199820   -1.385532   -1.711229
     15          8           0        1.617008   -0.555515   -0.211366
     16          7           0       -7.084321    2.769384    0.472217
     17          6           0       -5.954150    3.427563    0.961912
     18          6           0       -6.232012    4.792128    1.133214
     19          6           0       -7.538346    4.893016    0.581449
     20          6           0       -8.065868    3.651964    0.261856
     21          6           0       -5.316793    5.772633    1.657974
     22          6           0       -8.245620    6.167028    0.331830
     23          6           0       -9.290678    6.456266   -0.595336
     24          7           0       -9.259453    0.830730   -0.507707
     25          6           0       -9.873365    2.026910   -0.672348
     26          6           0      -11.268601    1.760715   -0.954387
     27          6           0      -11.429638    0.440755   -1.158359
     28          6           0      -10.158759   -0.167714   -0.802315
     29          6           0      -12.274779    2.896854   -1.335076
     30          6           0      -12.744957   -0.121702   -1.636659
     31          6           0      -12.623782   -0.526574   -3.110325
     32          7           0       -7.533954   -1.320928   -0.375485
     33          6           0       -8.619869   -2.127321   -0.669750
     34          6           0       -8.149332   -3.490279   -0.608605
     35          6           0       -6.782249   -3.451585   -0.210824
     36          6           0       -6.444328   -2.107789   -0.026696
     37          6           0       -9.019624   -4.708850   -0.820053
     38          6           0       -5.673092   -4.336983    0.107381
     39          8           0       -5.592598   -5.531206    0.110063
     40          6           0       -4.573816   -3.363048    0.433362
     41          6           0       -3.919520   -3.689223    1.744067
     42          8           0       -4.119137   -3.298877    2.793393
     43          8           0       -2.950830   -4.688900    1.486640
     44          6           0       -2.406334   -5.366214    2.571580
     45          6           0        2.735754   -0.846997   -1.254958
     46          6           0        4.077383   -0.626644   -0.602346
     47          6           0        5.015995    0.137115   -1.224938
     48          6           0        5.048868    0.718423   -2.674093
     49          6           0        6.267584    0.348502   -0.372994
     50          6           0        7.526387   -0.273197   -1.088940
     51          6           0        8.800493   -0.231598   -0.113612
     52          6           0       10.089067   -0.820840   -0.762154
     53          6           0        9.969859   -2.322684   -0.880899
     54          6           0       11.309896   -0.220767   -0.001737
     55          6           0       12.621584   -0.673436   -0.597354
     56          6           0       13.777795   -0.111593    0.259176
     57          6           0       15.235005   -0.314403   -0.268642
     58          6           0       15.567998   -1.744741   -0.193741
     59          6           0       16.230192    0.625862    0.465219
     60          6           0       17.631139    0.713745   -0.243848
     61          6           0       18.605490    1.626662    0.625783
     62          6           0       20.113575    1.619925    0.061176
     63          6           0       20.108226    2.232039   -1.292378
     64          6           0       20.932331    2.426948    1.080334
     65          1           0       -4.140656    3.657035    1.888473
     66          1           0       -9.948593    4.082541   -0.167884
     67          1           0      -10.628475   -2.164941   -1.299402
     68          1           0       -3.019433   -1.233254    2.137337
     69          1           0       -2.252718    1.374000    1.266483
     70          1           0       -2.032795    0.401394    3.493720
     71          1           0       -2.777526    2.005989    3.742697
     72          1           0       -3.630037    0.419189    4.031534
     73          1           0       -2.283743   -1.683598   -0.423817
     74          1           0       -2.278488    0.139189   -0.740598
     75          1           0       -0.261835    0.111974    0.924838
     76          1           0       -0.422360   -1.273181    1.510964
     77          1           0       -4.521451    5.864705    1.015481
     78          1           0       -5.857251    6.827180    1.499497
     79          1           0       -5.024045    5.806341    2.739009
     80          1           0       -8.006116    7.075658    1.086504
     81          1           0       -9.579957    5.856566   -1.393281
     82          1           0       -9.669747    7.498125   -0.738898
     83          1           0      -12.304498    3.622118   -0.394768
     84          1           0      -12.084842    3.524375   -2.094307
     85          1           0      -13.371901    2.512671   -1.219882
     86          1           0      -13.251781   -0.978259   -0.989863
     87          1           0      -13.488589    0.581031   -1.548149
     88          1           0      -12.365026    0.397395   -3.772136
     89          1           0      -11.777415   -1.158829   -3.335188
     90          1           0      -13.595489   -0.907456   -3.482327
     91          1           0       -9.793691   -4.674460   -0.174502
     92          1           0       -9.382530   -4.674405   -1.985970
     93          1           0       -8.495207   -5.875761   -0.646645
     94          1           0       -3.585109   -3.563200   -0.393449
     95          1           0       -1.470717   -5.861831    2.124015
     96          1           0       -2.212315   -4.465901    3.297627
     97          1           0       -2.984514   -6.009903    3.229539
     98          1           0        2.598700   -1.946501   -1.619851
     99          1           0        2.603216   -0.151395   -2.018837
    100          1           0        4.085006   -0.909600    0.491065
    101          1           0        4.998906    1.890805   -2.679226
    102          1           0        5.830700    0.141518   -3.212083
    103          1           0        4.034534    0.468064   -3.131631
    104          1           0        6.509016    1.468795   -0.383465
    105          1           0        6.266770    0.171747    0.647823
    106          1           0        7.365519   -1.190022   -1.338822
    107          1           0        7.921483    0.290234   -1.993740
    108          1           0        9.032639    0.784718    0.182202
    109          1           0        8.568614   -0.777458    0.951100
    110          1           0       10.179698   -0.289352   -1.808440
    111          1           0        9.018277   -2.524046   -1.455185
    112          1           0       10.931973   -2.699280   -1.565696
    113          1           0       10.037875   -2.710210    0.079525
    114          1           0       11.189932    0.919278    0.119833
    115          1           0       11.213801   -0.560673    0.988516
    116          1           0       12.690931   -1.791047   -0.587925
    117          1           0       12.763041   -0.535216   -1.708866
    118          1           0       13.472019    0.944930    0.423119
    119          1           0       13.798789   -0.655214    1.212337
    120          1           0       15.272139    0.049396   -1.371943
    121          1           0       15.001437   -2.329890   -0.780556
    122          1           0       16.650192   -2.081137   -0.585054
    123          1           0       15.393404   -1.987939    0.922300
    124          1           0       15.811604    1.722176    0.416414
    125          1           0       16.303439    0.200870    1.551049
    126          1           0       18.023251   -0.194653   -0.326043
    127          1           0       17.577407    1.171962   -1.155168
    128          1           0       18.191376    2.631967    0.612854
    129          1           0       18.451350    1.328286    1.685374
    130          1           0       20.397867    0.548106    0.061415
    131          1           0       19.847291    3.235174   -1.182843
    132          1           0       21.145894    2.294302   -1.896833
    133          1           0       19.453714    1.765046   -1.988979
    134          1           0       20.856073    1.940015    2.022254
    135          1           0       21.938588    2.616387    0.664934
    136          1           0       20.462556    3.385457    1.000659
    137          1           0       -6.886430    1.796756    0.334977
    138          1           0       -7.622387   -0.466504   -0.305696
 ---------------------------------------------------------------------

 SCF Done:  E(RB3LYP) =  -2733.10582855     A.U. after   18 cycles

 Excitation energies and oscillator strengths:

 Excited State   1:      Singlet-A      1.9704 eV  629.25 nm  f=0.1602  <S**2>=0.000
     235 -> 237       -0.40685
     235 -> 238        0.22841
     236 -> 237        0.47080
     236 -> 238        0.23890
 This state for optimization and/or second-order correction.
 Total Energy, E(TD-HF/TD-DFT) =  -2733.03341939
 Copying the excited state density for this state as the 1-particle RhoCI density.

 The electronic state is 1-A.
 Alpha  occ. eigenvalues --  -19.18352 -19.15660 -19.14194 -19.12227 -19.11666
 Alpha  occ. eigenvalues --  -14.36026 -14.35591 -14.33922 -14.29201 -10.31391
 Alpha  occ. eigenvalues --  -10.30939 -10.27674 -10.25601 -10.24609 -10.23978
 Alpha  occ. eigenvalues --  -10.23662 -10.23455 -10.23321 -10.23145 -10.22869
 Alpha  occ. eigenvalues --  -10.22345 -10.22079 -10.21979 -10.21969 -10.21564
 Alpha  occ. eigenvalues --  -10.21520 -10.21153 -10.21113 -10.21097 -10.20995
 Alpha  occ. eigenvalues --  -10.20977 -10.20441 -10.20422 -10.20281 -10.20186
 Alpha  occ. eigenvalues --  -10.20127 -10.19942 -10.19898 -10.19843 -10.19651
 Alpha  occ. eigenvalues --  -10.19537 -10.19462 -10.19379 -10.19302 -10.19292
 Alpha  occ. eigenvalues --  -10.19219 -10.19211 -10.18933 -10.18895 -10.18840
 Alpha  occ. eigenvalues --  -10.18715 -10.18703 -10.18549 -10.18422 -10.18382
 Alpha  occ. eigenvalues --  -10.18292 -10.18088 -10.18067 -10.18056 -10.17867
 Alpha  occ. eigenvalues --  -10.17785 -10.17548 -10.16967 -10.16343  -1.11318
 Alpha  occ. eigenvalues --   -1.10332  -1.03759  -1.02224  -1.00955  -0.98685
 Alpha  occ. eigenvalues --   -0.98572  -0.93766  -0.93206  -0.86229  -0.82579
 Alpha  occ. eigenvalues --   -0.81876  -0.81855  -0.81180  -0.80773  -0.80635
 Alpha  occ. eigenvalues --   -0.80049  -0.79840  -0.79058  -0.78711  -0.77746
 Alpha  occ. eigenvalues --   -0.76750  -0.75669  -0.75145  -0.74795  -0.73587
 Alpha  occ. eigenvalues --   -0.73255  -0.72935  -0.72229  -0.71750  -0.71097
 Alpha  occ. eigenvalues --   -0.70174  -0.68963  -0.68608  -0.68211  -0.68081
 Alpha  occ. eigenvalues --   -0.67115  -0.67076  -0.66270  -0.66057  -0.64928
 Alpha  occ. eigenvalues --   -0.63966  -0.62931  -0.62588  -0.62232  -0.61499
 Alpha  occ. eigenvalues --   -0.61114  -0.59648  -0.58681  -0.58266  -0.57493
 Alpha  occ. eigenvalues --   -0.57077  -0.56096  -0.55889  -0.55874  -0.55439
 Alpha  occ. eigenvalues --   -0.55129  -0.54992  -0.54126  -0.53759  -0.53256
 Alpha  occ. eigenvalues --   -0.53214  -0.52028  -0.51916  -0.50815  -0.50271
 Alpha  occ. eigenvalues --   -0.49925  -0.49443  -0.49158  -0.48659  -0.48308
 Alpha  occ. eigenvalues --   -0.47870  -0.47855  -0.47403  -0.47046  -0.46814
 Alpha  occ. eigenvalues --   -0.46723  -0.46380  -0.46113  -0.45848  -0.45668
 Alpha  occ. eigenvalues --   -0.45489  -0.45170  -0.44978  -0.44780  -0.44592
 Alpha  occ. eigenvalues --   -0.44445  -0.44343  -0.44220  -0.44065  -0.43702
 Alpha  occ. eigenvalues --   -0.43651  -0.43292  -0.43233  -0.43035  -0.42930
 Alpha  occ. eigenvalues --   -0.42611  -0.42501  -0.42330  -0.42133  -0.42086
 Alpha  occ. eigenvalues --   -0.41457  -0.41346  -0.41054  -0.40663  -0.40501
 Alpha  occ. eigenvalues --   -0.40408  -0.40065  -0.39967  -0.39843  -0.39504
 Alpha  occ. eigenvalues --   -0.39454  -0.39376  -0.38959  -0.38846  -0.38717
 Alpha  occ. eigenvalues --   -0.38457  -0.38153  -0.38108  -0.37999  -0.37791
 Alpha  occ. eigenvalues --   -0.37612  -0.37232  -0.36886  -0.36848  -0.36648
 Alpha  occ. eigenvalues --   -0.36531  -0.36274  -0.36144  -0.36068  -0.35740
 Alpha  occ. eigenvalues --   -0.35296  -0.35200  -0.35017  -0.34903  -0.34815
 Alpha  occ. eigenvalues --   -0.34645  -0.34537  -0.33988  -0.33902  -0.33891
 Alpha  occ. eigenvalues --   -0.33476  -0.33397  -0.33289  -0.33186  -0.32732
 Alpha  occ. eigenvalues --   -0.32505  -0.32145  -0.31983  -0.31693  -0.31517
 Alpha  occ. eigenvalues --   -0.31320  -0.31287  -0.31135  -0.30612  -0.30106
 Alpha  occ. eigenvalues --   -0.29818  -0.29361  -0.29162  -0.28460  -0.27859
 Alpha  occ. eigenvalues --   -0.27736  -0.27490  -0.26308  -0.25675  -0.25563
 Alpha  occ. eigenvalues --   -0.25415  -0.25170  -0.23258  -0.22665  -0.19440
 Alpha  occ. eigenvalues --   -0.18950
 Alpha virt. eigenvalues --   -0.10757  -0.07760  -0.04756  -0.02640  -0.00979
 Alpha virt. eigenvalues --   -0.00733   0.00716   0.01151   0.02062   0.03792
 Alpha virt. eigenvalues --    0.04099   0.04494   0.04542   0.04876   0.05090

 Mulliken charges:
               1
     1  C    0.007246
     2  C   -0.046008
     3  C   -0.007256
     4  C   -0.064837
     5  N   -0.197475
     6  C   -0.055749
     7  C    0.001936
     8  C   -0.107061
     9  C    0.075407
    10  C    0.147529
    11  C    0.035166
    12  C    0.070747
    13  C    0.156988
    14  O   -0.222581
    15  O   -0.306889
    16  N   -0.021504
    17  C   -0.049182
    18  C   -0.113280
    19  C    0.057839
    20  C    0.048240
    21  C    0.096133
    22  C   -0.103155
    23  C   -0.045469
    24  N   -0.223799
    25  C    0.056877
    26  C   -0.128975
    27  C   -0.061776
    28  C    0.045206
    29  C    0.080896
    30  C    0.116398
    31  C   -0.012058
    32  N    0.078431
    33  C    0.051521
    34  C   -0.115363
    35  C   -0.042777
    36  C    0.103288
    37  C    0.022129
    38  C    0.095260
    39  O   -0.131597
    40  C   -0.158955
    41  C    0.183176
    42  O   -0.127856
    43  O   -0.338992
    44  C    0.140583
    45  C    0.260851
    46  C   -0.105122
    47  C   -0.151776
    48  C    0.047003
    49  C    0.115120
    50  C    0.053879
    51  C   -0.031296
    52  C   -0.124682
    53  C    0.055302
    54  C    0.041318
    55  C    0.028777
    56  C    0.032038
    57  C   -0.073165
    58  C    0.054837
    59  C   -0.023677
    60  C    0.134038
    61  C   -0.033870
    62  C   -0.090815
    63  C    0.044663
    64  C    0.105075
    65  H   -0.012517
    66  H   -0.050877
    67  H   -0.014785
    68  H   -0.008339
    69  H    0.019597
    70  H   -0.006667
    71  H    0.012211
    72  H    0.027846
    73  H    0.026947
    74  H    0.040727
    75  H   -0.035403
    76  H    0.024676
    77  H    0.011033
    78  H    0.010093
    79  H    0.048915
    80  H    0.039685
    81  H    0.012581
    82  H    0.030783
    83  H    0.013257
    84  H    0.008325
    85  H    0.020950
    86  H    0.008935
    87  H   -0.049466
    88  H    0.011615
    89  H    0.010660
    90  H    0.015216
    91  H    0.013480
    92  H    0.051064
    93  H    0.070646
    94  H    0.114438
    95  H    0.046433
    96  H    0.014363
    97  H    0.028163
    98  H    0.062604
    99  H    0.008124
   100  H    0.022124
   101  H    0.057101
   102  H    0.056580
   103  H    0.010313
   104  H   -0.005688
   105  H   -0.021659
   106  H   -0.046790
   107  H    0.014620
   108  H   -0.018208
   109  H    0.000577
   110  H   -0.006612
   111  H    0.024290
   112  H    0.027314
   113  H   -0.000406
   114  H    0.004078
   115  H   -0.030534
   116  H   -0.010639
   117  H   -0.007013
   118  H   -0.007242
   119  H   -0.014772
   120  H   -0.016472
   121  H   -0.021621
   122  H    0.018256
   123  H    0.007779
   124  H    0.007108
   125  H    0.002935
   126  H   -0.047422
   127  H   -0.026199
   128  H   -0.021651
   129  H   -0.009854
   130  H   -0.005163
   131  H   -0.018837
   132  H    0.010689
   133  H    0.002845
   134  H    0.008677
   135  H   -0.000557
   136  H   -0.015200
   137  H    0.134812
   138  H   -0.009769
 Sum of Mulliken charges =  -0.00000

 Dipole moment (field-independent basis, Debye):
    X=              4.0727    Y=              4.2712    Z=              0.1347  Tot=              5.9033
 Quadrupole moment (field-independent basis, Debye-Ang):
   XX=           -375.7042   YY=           -389.1140   ZZ=           -392.1066
   XY=            -19.3461   XZ=              1.1870   YZ=             -1.1929

 Normal termination of Gaussian 16 at Tue Aug 20 01:55:54 2019.
