 Gaussian 16, Revision A.03,
 Gaussian 16:  ES64L-G16RevA.03 25-Dec-2016

 --------------------------
 # td=(NStates=1) B3LYP/SVP
 --------------------------

 --
 TD
 --
 Symbolic Z-matrix:
 Charge =  0 Multiplicity = 1

                         Standard orientation:
 ---------------------------------------------------------------------
 Center     Atomic      Atomic             Coordinates (Angstroms)
 Number     Number       Type             X           Y           Z
 ---------------------------------------------------------------------
      1          6           0       -5.109608   -1.917255    0.527784
      2          6           0       -4.777867    2.777344    1.421242
      3          6           0       -9.343948    3.260712   -0.278939
      4          6           0       -9.834085   -1.513055   -0.886122
      5          7           0       -5.197682    0.532604    0.810922
      6          6           0       -4.515355   -0.687875    0.809610
      7          6           0       -2.965454   -0.541022    1.111347
      8          6           0       -3.063551    0.856387    1.792567
      9          6           0       -4.407965    1.430932    1.306246
     10          6           0       -2.840320    0.809330    3.304393
     11          6           0       -2.189954   -0.538635   -0.034574
     12          6           0       -0.625141   -0.670319    0.307802
     13          6           0        0.328138   -0.843515   -0.740137
     14          8           0        0.007033   -1.183580   -1.865626
     15          8           0        1.607166   -0.532860   -0.389321
     16          7           0       -7.118694    2.698434    0.465220
     17          6           0       -5.959128    3.404425    0.987826
     18          6           0       -6.352699    4.751114    1.051360
     19          6           0       -7.720882    4.961842    0.555584
     20          6           0       -8.043046    3.635861    0.162261
     21          6           0       -5.375438    5.876240    1.490308
     22          6           0       -8.431911    6.200351    0.508329
     23          6           0       -9.343290    6.486664   -0.462302
     24          7           0       -9.260962    0.753720   -0.351559
     25          6           0       -9.926843    1.986209   -0.519808
     26          6           0      -11.341637    1.768880   -0.981889
     27          6           0      -11.368414    0.408188   -1.084275
     28          6           0      -10.163835   -0.190535   -0.822763
     29          6           0      -12.313540    2.927363   -1.285720
     30          6           0      -12.564839   -0.345119   -1.614211
     31          6           0      -12.492784   -0.614108   -3.093303
     32          7           0       -7.514956   -1.320886   -0.106794
     33          6           0       -8.598324   -2.139083   -0.459080
     34          6           0       -8.125858   -3.529808   -0.542515
     35          6           0       -6.834734   -3.454943   -0.215811
     36          6           0       -6.437267   -2.083452    0.073393
     37          6           0       -9.020156   -4.739558   -0.920061
     38          6           0       -5.654722   -4.308365    0.045610
     39          8           0       -5.572637   -5.520348    0.046805
     40          6           0       -4.539103   -3.292296    0.461044
     41          6           0       -3.900700   -3.786572    1.805946
     42          8           0       -4.184543   -3.268721    2.873821
     43          8           0       -3.027087   -4.800461    1.625891
     44          6           0       -2.669222   -5.488047    2.693809
     45          6           0        2.621906   -0.784134   -1.344676
     46          6           0        3.955732   -0.590355   -0.657799
     47          6           0        4.956729    0.206785   -1.124405
     48          6           0        4.857785    0.972505   -2.388718
     49          6           0        6.334015    0.344178   -0.360794
     50          6           0        7.657518   -0.345132   -1.037248
     51          6           0        8.771133   -0.113394   -0.104012
     52          6           0       10.122757   -0.708968   -0.794437
     53          6           0       10.034858   -2.214958   -1.098151
     54          6           0       11.376717   -0.326386    0.044845
     55          6           0       12.766955   -0.596470   -0.666651
     56          6           0       13.873851   -0.060669    0.226552
     57          6           0       15.255722   -0.117957   -0.388460
     58          6           0       15.746886   -1.563205   -0.591376
     59          6           0       16.283446    0.607956    0.369223
     60          6           0       17.706845    0.599392   -0.159317
     61          6           0       18.716133    1.549042    0.655267
     62          6           0       20.199337    1.441938    0.332729
     63          6           0       20.378499    2.038638   -1.087282
     64          6           0       20.926468    2.225695    1.304930
     65          1           0       -4.085348    3.515751    2.083014
     66          1           0      -10.184855    4.002477   -0.156561
     67          1           0      -10.771494   -2.044769   -1.267284
     68          1           0       -2.619468   -1.297250    1.805305
     69          1           0       -2.144403    1.423820    1.308863
     70          1           0       -1.843403    0.452433    3.393449
     71          1           0       -2.965827    1.855222    4.051907
     72          1           0       -3.451812   -0.058550    3.819204
     73          1           0       -2.281330   -1.517579   -0.499184
     74          1           0       -2.252586    0.358944   -0.756671
     75          1           0       -0.383403    0.316767    0.865326
     76          1           0       -0.445470   -1.568378    1.006611
     77          1           0       -4.601730    5.995953    0.689435
     78          1           0       -6.088896    6.749116    1.680507
     79          1           0       -4.913016    5.800226    2.408595
     80          1           0       -8.163225    7.213374    1.249369
     81          1           0       -9.640632    5.705755   -1.272964
     82          1           0       -9.830135    7.385013   -0.507757
     83          1           0      -12.581378    3.484351   -0.308100
     84          1           0      -11.892740    3.501020   -2.233037
     85          1           0      -13.345635    2.331658   -1.541794
     86          1           0      -12.529290   -1.348469   -1.121454
     87          1           0      -13.560202    0.114161   -1.393110
     88          1           0      -12.279715    0.319876   -3.947471
     89          1           0      -11.816331   -1.296628   -3.412679
     90          1           0      -13.595842   -1.033652   -3.487220
     91          1           0       -9.537624   -5.088516    0.066084
     92          1           0       -9.603896   -4.282844   -1.841042
     93          1           0       -7.950142   -5.403796   -1.161788
     94          1           0       -3.660357   -3.609171   -0.104230
     95          1           0       -1.763028   -6.052641    2.229362
     96          1           0       -2.132020   -4.990952    3.382726
     97          1           0       -3.498416   -6.205869    3.046059
     98          1           0        2.590812   -1.873879   -1.488623
     99          1           0        2.461999    0.015120   -2.238088
    100          1           0        4.218386   -1.106999    0.415254
    101          1           0        5.165549    2.154560   -2.322842
    102          1           0        5.600098    0.479408   -3.171587
    103          1           0        3.866266    1.227716   -2.699692
    104          1           0        6.498804    1.416102   -0.329685
    105          1           0        6.294524    0.045571    0.608494
    106          1           0        7.210799   -1.345452   -1.045766
    107          1           0        7.943238    0.206952   -1.902776
    108          1           0        8.854564    0.946398   -0.036109
    109          1           0        8.686479   -0.658956    0.710927
    110          1           0       10.187996   -0.238189   -1.966454
    111          1           0        9.166754   -2.524831   -1.811237
    112          1           0       10.811150   -2.600231   -1.525445
    113          1           0        9.888361   -2.675789   -0.093730
    114          1           0       11.365242    0.793394    0.126049
    115          1           0       11.375878   -1.019190    0.956159
    116          1           0       13.041646   -1.577699   -0.940934
    117          1           0       12.806750   -0.076055   -1.505011
    118          1           0       13.505821    0.890907    0.416520
    119          1           0       13.980595   -0.632371    1.169510
    120          1           0       15.275635    0.284281   -1.451359
    121          1           0       14.828239   -2.224746   -1.068198
    122          1           0       16.659636   -1.591950   -1.321641
    123          1           0       15.948607   -2.269513    0.283534
    124          1           0       15.934554    1.745667    0.223669
    125          1           0       16.318364    0.282529    1.623597
    126          1           0       17.832042   -0.489323   -0.122304
    127          1           0       17.611147    1.097096   -1.106345
    128          1           0       18.394620    2.713695    0.745564
    129          1           0       18.668236    1.154798    1.725357
    130          1           0       20.609301    0.468113    0.331249
    131          1           0       19.544055    2.964130   -1.116774
    132          1           0       21.546483    2.560329   -1.393612
    133          1           0       20.022629    1.343985   -2.039296
    134          1           0       20.788123    1.673651    2.472104
    135          1           0       21.920243    2.270025    1.131058
    136          1           0       20.707982    3.343106    1.638159
    137          1           0       -7.254508    1.661400    0.385685
    138          1           0       -7.575694   -0.296621   -0.026953
 ---------------------------------------------------------------------

 SCF Done:  E(RB3LYP) =  -2732.96642191     A.U. after   17 cycles

 Excitation energies and oscillator strengths:

 Excited State   1:      Singlet-A      2.0298 eV  610.82 nm  f=0.1436  <S**2>=0.000
     235 -> 237       -0.27213
     235 -> 238       -0.26268
     236 -> 237        0.56321
     236 -> 238       -0.18558
 This state for optimization and/or second-order correction.
 Total Energy, E(TD-HF/TD-DFT) =  -2732.89182865
 Copying the excited state density for this state as the 1-particle RhoCI density.

 The electronic state is 1-A.
 Alpha  occ. eigenvalues --  -19.18885 -19.17258 -19.13058 -19.12893 -19.11862
 Alpha  occ. eigenvalues --  -14.37561 -14.36639 -14.32815 -14.29711 -10.32291
 Alpha  occ. eigenvalues --  -10.31038 -10.28433 -10.25747 -10.24257 -10.24248
 Alpha  occ. eigenvalues --  -10.23922 -10.23829 -10.23679 -10.23603 -10.22946
 Alpha  occ. eigenvalues --  -10.22774 -10.22579 -10.22215 -10.21778 -10.21731
 Alpha  occ. eigenvalues --  -10.21561 -10.21490 -10.21216 -10.21215 -10.21164
 Alpha  occ. eigenvalues --  -10.21006 -10.20946 -10.20901 -10.20699 -10.20510
 Alpha  occ. eigenvalues --  -10.20492 -10.20427 -10.20314 -10.20253 -10.20010
 Alpha  occ. eigenvalues --  -10.19984 -10.19928 -10.19866 -10.19821 -10.19798
 Alpha  occ. eigenvalues --  -10.19764 -10.19754 -10.19730 -10.19713 -10.19668
 Alpha  occ. eigenvalues --  -10.19536 -10.19141 -10.19095 -10.19029 -10.18870
 Alpha  occ. eigenvalues --  -10.18804 -10.18361 -10.18269 -10.18257 -10.18010
 Alpha  occ. eigenvalues --  -10.17361 -10.17301 -10.17160 -10.16445  -1.12280
 Alpha  occ. eigenvalues --   -1.09154  -1.03267  -1.01909  -1.00279  -0.98828
 Alpha  occ. eigenvalues --   -0.96869  -0.95218  -0.92441  -0.85256  -0.83376
 Alpha  occ. eigenvalues --   -0.82877  -0.81925  -0.81376  -0.81271  -0.81163
 Alpha  occ. eigenvalues --   -0.80283  -0.80215  -0.79248  -0.78608  -0.77933
 Alpha  occ. eigenvalues --   -0.77189  -0.76875  -0.75729  -0.74849  -0.74189
 Alpha  occ. eigenvalues --   -0.73683  -0.73257  -0.72328  -0.71761  -0.70527
 Alpha  occ. eigenvalues --   -0.70278  -0.69795  -0.68653  -0.68012  -0.67391
 Alpha  occ. eigenvalues --   -0.66766  -0.66143  -0.65968  -0.64962  -0.64622
 Alpha  occ. eigenvalues --   -0.63488  -0.62881  -0.62730  -0.62134  -0.61655
 Alpha  occ. eigenvalues --   -0.60969  -0.59089  -0.58672  -0.57939  -0.57883
 Alpha  occ. eigenvalues --   -0.57432  -0.56622  -0.55279  -0.55260  -0.55014
 Alpha  occ. eigenvalues --   -0.54765  -0.54521  -0.53532  -0.53020  -0.53005
 Alpha  occ. eigenvalues --   -0.52172  -0.51799  -0.51447  -0.51185  -0.50813
 Alpha  occ. eigenvalues --   -0.50660  -0.50558  -0.49815  -0.49164  -0.49032
 Alpha  occ. eigenvalues --   -0.48965  -0.48409  -0.47941  -0.47504  -0.47168
 Alpha  occ. eigenvalues --   -0.46986  -0.46627  -0.46540  -0.46418  -0.46315
 Alpha  occ. eigenvalues --   -0.45437  -0.45360  -0.45293  -0.44946  -0.44571
 Alpha  occ. eigenvalues --   -0.44462  -0.44088  -0.43704  -0.43654  -0.43509
 Alpha  occ. eigenvalues --   -0.43366  -0.43318  -0.43157  -0.42777  -0.42490
 Alpha  occ. eigenvalues --   -0.42358  -0.42139  -0.41742  -0.41587  -0.41448
 Alpha  occ. eigenvalues --   -0.41225  -0.41095  -0.40994  -0.40886  -0.40661
 Alpha  occ. eigenvalues --   -0.40099  -0.39975  -0.39461  -0.39329  -0.39177
 Alpha  occ. eigenvalues --   -0.38743  -0.38721  -0.38535  -0.38231  -0.38128
 Alpha  occ. eigenvalues --   -0.37788  -0.37776  -0.37565  -0.37341  -0.37086
 Alpha  occ. eigenvalues --   -0.37017  -0.36931  -0.36749  -0.36570  -0.36354
 Alpha  occ. eigenvalues --   -0.36115  -0.36053  -0.35994  -0.35761  -0.35548
 Alpha  occ. eigenvalues --   -0.35300  -0.34850  -0.34764  -0.34685  -0.34533
 Alpha  occ. eigenvalues --   -0.34308  -0.34252  -0.34081  -0.33865  -0.33828
 Alpha  occ. eigenvalues --   -0.33701  -0.33405  -0.32919  -0.32471  -0.32007
 Alpha  occ. eigenvalues --   -0.31776  -0.31469  -0.31343  -0.31095  -0.31014
 Alpha  occ. eigenvalues --   -0.30939  -0.30779  -0.30576  -0.30452  -0.30358
 Alpha  occ. eigenvalues --   -0.30261  -0.29138  -0.28602  -0.28398  -0.27843
 Alpha  occ. eigenvalues --   -0.27469  -0.27411  -0.27341  -0.26748  -0.26550
 Alpha  occ. eigenvalues --   -0.25508  -0.24347  -0.23485  -0.22674  -0.19816
 Alpha  occ. eigenvalues --   -0.19105
 Alpha virt. eigenvalues --   -0.10617  -0.07915  -0.04661  -0.02280  -0.00773
 Alpha virt. eigenvalues --   -0.00271   0.00115   0.00304   0.01735   0.03271
 Alpha virt. eigenvalues --    0.03467   0.03495   0.03682   0.04069   0.04421

 Mulliken charges:
               1
     1  C    0.143201
     2  C   -0.117675
     3  C   -0.116074
     4  C   -0.077771
     5  N   -0.146817
     6  C   -0.077777
     7  C   -0.039015
     8  C   -0.066301
     9  C    0.026533
    10  C    0.010420
    11  C    0.123369
    12  C   -0.047995
    13  C    0.175812
    14  O   -0.244643
    15  O   -0.321214
    16  N   -0.115366
    17  C    0.146561
    18  C   -0.177574
    19  C    0.064967
    20  C    0.119569
    21  C    0.113940
    22  C   -0.109107
    23  C   -0.035234
    24  N   -0.309097
    25  C    0.016707
    26  C   -0.125081
    27  C   -0.062488
    28  C    0.047827
    29  C    0.020289
    30  C    0.072953
    31  C   -0.047707
    32  N   -0.018521
    33  C    0.093563
    34  C   -0.174056
    35  C   -0.014026
    36  C    0.026667
    37  C   -0.020216
    38  C    0.095925
    39  O   -0.167800
    40  C   -0.068888
    41  C    0.165685
    42  O   -0.223253
    43  O   -0.247108
    44  C    0.188222
    45  C    0.278506
    46  C   -0.122221
    47  C   -0.154067
    48  C    0.015767
    49  C    0.088604
    50  C    0.030772
    51  C    0.152171
    52  C   -0.188337
    53  C    0.083627
    54  C    0.051366
    55  C    0.097849
    56  C    0.086340
    57  C   -0.029512
    58  C   -0.089848
    59  C   -0.068020
    60  C    0.086916
    61  C   -0.046144
    62  C    0.033789
    63  C   -0.124028
    64  C   -0.004522
    65  H    0.018493
    66  H    0.011376
    67  H   -0.012257
    68  H   -0.011264
    69  H    0.008663
    70  H    0.001738
    71  H    0.044774
    72  H    0.046270
    73  H    0.003629
    74  H    0.035758
    75  H    0.041375
    76  H    0.042925
    77  H    0.045895
    78  H    0.007349
    79  H    0.001157
    80  H    0.058034
    81  H    0.051911
    82  H   -0.001099
    83  H    0.057478
    84  H    0.069925
    85  H    0.027520
    86  H    0.003937
    87  H    0.011792
    88  H    0.024119
    89  H   -0.009112
    90  H    0.018710
    91  H    0.080453
    92  H    0.072022
    93  H    0.087833
    94  H    0.036954
    95  H    0.012742
    96  H   -0.013370
    97  H    0.050921
    98  H    0.018156
    99  H    0.058113
   100  H    0.019926
   101  H    0.017025
   102  H    0.057268
   103  H    0.003486
   104  H   -0.016209
   105  H   -0.039981
   106  H    0.017339
   107  H   -0.007491
   108  H   -0.012853
   109  H   -0.048421
   110  H   -0.008535
   111  H    0.019618
   112  H   -0.036513
   113  H   -0.004494
   114  H    0.009702
   115  H    0.011492
   116  H   -0.023968
   117  H   -0.060271
   118  H   -0.039639
   119  H   -0.010929
   120  H   -0.010574
   121  H    0.010012
   122  H    0.042346
   123  H    0.020193
   124  H   -0.008900
   125  H    0.010128
   126  H    0.010175
   127  H   -0.011756
   128  H    0.028585
   129  H   -0.006693
   130  H   -0.007527
   131  H    0.021602
   132  H    0.033199
   133  H    0.043448
   134  H    0.006117
   135  H   -0.022820
   136  H    0.020965
   137  H    0.165411
   138  H    0.146202
 Sum of Mulliken charges =  -0.00000

 Dipole moment (field-independent basis, Debye):
    X=              2.0934    Y=              3.4541    Z=              0.7107  Tot=              4.1010
 Quadrupole moment (field-independent basis, Debye-Ang):
   XX=           -357.7708   YY=           -383.9772   ZZ=           -401.9971
   XY=            -28.5471   XZ=              4.9926   YZ=             -3.1972

 Normal termination of Gaussian 16 at Fri Aug  9 06:12:44 2019.
