 Gaussian 16, Revision A.03,
 Gaussian 16:  ES64L-G16RevA.03 25-Dec-2016

 --------------------------
 # td=(NStates=1) B3LYP/SVP
 --------------------------

 --
 TD
 --
 Symbolic Z-matrix:
 Charge =  0 Multiplicity = 1

                         Standard orientation:
 ---------------------------------------------------------------------
 Center     Atomic      Atomic             Coordinates (Angstroms)
 Number     Number       Type             X           Y           Z
 ---------------------------------------------------------------------
      1          6           0       -5.075036   -1.901582    0.420944
      2          6           0       -4.709172    2.865352    1.349751
      3          6           0       -9.422867    3.263318   -0.244287
      4          6           0       -9.957752   -1.596378   -0.755673
      5          7           0       -5.197301    0.537941    0.789247
      6          6           0       -4.476229   -0.679822    0.766470
      7          6           0       -2.955514   -0.487370    1.125362
      8          6           0       -3.004731    0.837363    1.878798
      9          6           0       -4.362571    1.502379    1.308478
     10          6           0       -2.856605    0.840990    3.298292
     11          6           0       -2.060697   -0.642349    0.013404
     12          6           0       -0.601412   -0.604087    0.415184
     13          6           0        0.417214   -0.919312   -0.756743
     14          8           0        0.076675   -1.383437   -1.827657
     15          8           0        1.627948   -0.623677   -0.361143
     16          7           0       -7.028860    2.744157    0.496452
     17          6           0       -5.991811    3.385633    1.020584
     18          6           0       -6.335872    4.768783    0.978268
     19          6           0       -7.553644    5.041557    0.410860
     20          6           0       -8.126127    3.635470    0.280169
     21          6           0       -5.349603    5.792034    1.448777
     22          6           0       -8.213593    6.225054    0.173255
     23          6           0       -9.220773    6.563929   -0.655226
     24          7           0       -9.281244    0.743828   -0.434373
     25          6           0       -9.875248    1.960527   -0.502188
     26          6           0      -11.383939    1.728128   -0.825838
     27          6           0      -11.536986    0.400440   -1.036757
     28          6           0      -10.167203   -0.187945   -0.818841
     29          6           0      -12.400837    2.851903   -1.027190
     30          6           0      -12.756606   -0.362650   -1.571215
     31          6           0      -12.688324   -0.776013   -3.015210
     32          7           0       -7.577134   -1.273537   -0.128680
     33          6           0       -8.716013   -2.065966   -0.452690
     34          6           0       -8.239807   -3.430312   -0.452066
     35          6           0       -6.877935   -3.401855   -0.072181
     36          6           0       -6.448909   -2.069583    0.026114
     37          6           0       -9.016915   -4.650412   -0.685920
     38          6           0       -5.695759   -4.359051    0.092945
     39          8           0       -5.522045   -5.562560    0.023871
     40          6           0       -4.526684   -3.281203    0.508775
     41          6           0       -3.798355   -3.742160    1.831670
     42          8           0       -4.139927   -3.303032    2.923644
     43          8           0       -2.937431   -4.719422    1.541018
     44          6           0       -2.098742   -5.294512    2.650280
     45          6           0        2.549501   -0.940262   -1.358284
     46          6           0        3.963267   -0.674515   -0.809344
     47          6           0        4.994768    0.109622   -1.146975
     48          6           0        5.059019    1.029054   -2.363505
     49          6           0        6.310177    0.148303   -0.364518
     50          6           0        7.522847   -0.352154   -1.038528
     51          6           0        8.839542   -0.298299   -0.274592
     52          6           0       10.142341   -0.685974   -0.969967
     53          6           0       10.123784   -2.181765   -1.428369
     54          6           0       11.343054   -0.202603   -0.057791
     55          6           0       12.632488   -0.488983   -0.766249
     56          6           0       13.726837    0.111088    0.093448
     57          6           0       15.215933   -0.185007   -0.401845
     58          6           0       15.482573   -1.638108   -0.705124
     59          6           0       16.338493    0.512915    0.488101
     60          6           0       17.695950    0.590750   -0.061132
     61          6           0       18.576274    1.440714    0.821425
     62          6           0       20.107334    1.598122    0.465234
     63          6           0       20.313676    2.090423   -0.981396
     64          6           0       20.901765    2.281437    1.566013
     65          1           0       -3.970328    3.664817    1.549280
     66          1           0       -9.967682    4.146272   -0.412408
     67          1           0      -10.785679   -2.312831   -1.117494
     68          1           0       -2.721045   -1.146221    1.788392
     69          1           0       -2.193580    1.434700    1.433970
     70          1           0       -2.108301    0.173076    3.704702
     71          1           0       -2.758041    1.944972    3.745830
     72          1           0       -3.786702    0.356594    3.825155
     73          1           0       -2.178304   -1.576533   -0.555366
     74          1           0       -2.297868    0.132314   -0.819771
     75          1           0       -0.397365    0.091232    1.276854
     76          1           0       -0.246807   -1.489519    1.062112
     77          1           0       -4.626238    6.052175    0.584232
     78          1           0       -5.744086    6.834627    1.586194
     79          1           0       -4.657825    5.490468    2.292064
     80          1           0       -7.674261    7.163895    0.577978
     81          1           0       -9.755270    6.044708   -1.406563
     82          1           0       -9.370877    7.654720   -0.827840
     83          1           0      -12.351066    3.539118   -0.136114
     84          1           0      -12.231335    3.472289   -1.835501
     85          1           0      -13.394070    2.445885   -1.206597
     86          1           0      -12.990402   -1.264377   -0.946820
     87          1           0      -13.578015    0.168100   -1.391168
     88          1           0      -12.512317    0.061582   -3.630371
     89          1           0      -11.682860   -1.337238   -3.313494
     90          1           0      -13.569269   -1.216502   -3.488236
     91          1           0       -9.722359   -4.840832    0.219684
     92          1           0       -9.638207   -4.607645   -1.654395
     93          1           0       -8.332184   -5.493086   -0.877570
     94          1           0       -3.823963   -3.666981   -0.299062
     95          1           0       -1.610263   -6.092635    2.220166
     96          1           0       -1.321968   -4.385174    2.984441
     97          1           0       -2.692535   -5.523846    3.565641
     98          1           0        2.504498   -2.016631   -1.657995
     99          1           0        2.395775   -0.154436   -2.283721
    100          1           0        4.134087   -1.167111    0.194925
    101          1           0        4.896823    2.172174   -2.151763
    102          1           0        5.959499    1.054993   -2.981696
    103          1           0        4.033347    0.951818   -2.739624
    104          1           0        6.517137    1.044837    0.027197
    105          1           0        6.048481   -0.457392    0.587869
    106          1           0        7.476802   -1.506991   -1.428474
    107          1           0        7.641792    0.223554   -2.027606
    108          1           0        9.058476    0.888780    0.126272
    109          1           0        8.567280   -0.987076    0.580810
    110          1           0       10.295260   -0.088959   -1.892875
    111          1           0        9.102588   -2.364575   -1.834816
    112          1           0       10.965189   -2.303968   -2.111566
    113          1           0       10.195963   -2.773830   -0.489912
    114          1           0       11.063528    0.896059    0.150567
    115          1           0       11.236553   -0.575977    0.885600
    116          1           0       12.728581   -1.456972   -1.094716
    117          1           0       12.489286    0.007510   -1.824553
    118          1           0       13.516626    1.323801    0.122110
    119          1           0       13.615282   -0.101210    1.056205
    120          1           0       15.248352    0.509085   -1.347957
    121          1           0       14.791504   -2.023106   -1.587350
    122          1           0       16.384370   -1.923524   -1.138584
    123          1           0       15.704369   -2.327004    0.195277
    124          1           0       15.900921    1.599494    0.524567
    125          1           0       16.525015   -0.173167    1.350456
    126          1           0       18.111427   -0.508017   -0.153696
    127          1           0       17.573190    1.117477   -1.104889
    128          1           0       18.179868    2.473653    1.127315
    129          1           0       18.529771    1.016349    1.852942
    130          1           0       20.544077    0.448268    0.618320
    131          1           0       19.772648    3.076974   -1.022527
    132          1           0       21.447036    2.185708   -1.351239
    133          1           0       19.816413    1.573221   -1.791874
    134          1           0       20.634268    1.775284    2.554925
    135          1           0       22.088645    2.367647    1.166166
    136          1           0       20.401125    3.302647    1.514596
    137          1           0       -7.177569    1.827662    0.509411
    138          1           0       -8.004583   -0.225214   -0.080157
 ---------------------------------------------------------------------

 SCF Done:  E(RB3LYP) =  -2733.12628827     A.U. after   17 cycles

 Excitation energies and oscillator strengths:

 Excited State   1:      Singlet-A      1.9969 eV  620.88 nm  f=0.1620  <S**2>=0.000
     235 -> 238        0.29699
     236 -> 237        0.62494
 This state for optimization and/or second-order correction.
 Total Energy, E(TD-HF/TD-DFT) =  -2733.05290270
 Copying the excited state density for this state as the 1-particle RhoCI density.

 The electronic state is 1-A.
 Alpha  occ. eigenvalues --  -19.19829 -19.18544 -19.13033 -19.12999 -19.11927
 Alpha  occ. eigenvalues --  -14.36901 -14.35147 -14.32501 -14.31762 -10.32506
 Alpha  occ. eigenvalues --  -10.31615 -10.28712 -10.26804 -10.26534 -10.24537
 Alpha  occ. eigenvalues --  -10.23710 -10.23494 -10.23306 -10.23231 -10.22805
 Alpha  occ. eigenvalues --  -10.22308 -10.22003 -10.21237 -10.21069 -10.20905
 Alpha  occ. eigenvalues --  -10.20697 -10.20671 -10.20657 -10.20616 -10.20595
 Alpha  occ. eigenvalues --  -10.20532 -10.20463 -10.20457 -10.20226 -10.19995
 Alpha  occ. eigenvalues --  -10.19953 -10.19931 -10.19898 -10.19852 -10.19807
 Alpha  occ. eigenvalues --  -10.19799 -10.19756 -10.19448 -10.19442 -10.19431
 Alpha  occ. eigenvalues --  -10.19275 -10.19213 -10.19151 -10.18886 -10.18877
 Alpha  occ. eigenvalues --  -10.18850 -10.18832 -10.18824 -10.18799 -10.18738
 Alpha  occ. eigenvalues --  -10.18707 -10.18688 -10.18494 -10.18412 -10.18390
 Alpha  occ. eigenvalues --  -10.18335 -10.18156 -10.18038 -10.17604  -1.13032
 Alpha  occ. eigenvalues --   -1.08207  -1.02547  -1.01894  -0.99665  -0.98886
 Alpha  occ. eigenvalues --   -0.95796  -0.93929  -0.92009  -0.83628  -0.83201
 Alpha  occ. eigenvalues --   -0.82727  -0.82473  -0.81797  -0.80923  -0.80344
 Alpha  occ. eigenvalues --   -0.79675  -0.79073  -0.78962  -0.78696  -0.78010
 Alpha  occ. eigenvalues --   -0.77056  -0.76434  -0.75705  -0.75232  -0.74664
 Alpha  occ. eigenvalues --   -0.73916  -0.73386  -0.72600  -0.72014  -0.70463
 Alpha  occ. eigenvalues --   -0.69886  -0.69268  -0.68329  -0.67869  -0.67506
 Alpha  occ. eigenvalues --   -0.67429  -0.67204  -0.66419  -0.65853  -0.65714
 Alpha  occ. eigenvalues --   -0.64085  -0.63059  -0.62514  -0.62310  -0.61386
 Alpha  occ. eigenvalues --   -0.60852  -0.58507  -0.58042  -0.58028  -0.57884
 Alpha  occ. eigenvalues --   -0.57274  -0.56958  -0.56717  -0.55507  -0.54871
 Alpha  occ. eigenvalues --   -0.54266  -0.54116  -0.53692  -0.53201  -0.52975
 Alpha  occ. eigenvalues --   -0.52242  -0.51833  -0.51655  -0.51389  -0.50421
 Alpha  occ. eigenvalues --   -0.49676  -0.49168  -0.48689  -0.48682  -0.48436
 Alpha  occ. eigenvalues --   -0.47844  -0.47530  -0.47365  -0.47322  -0.46952
 Alpha  occ. eigenvalues --   -0.46783  -0.46542  -0.46211  -0.46018  -0.45510
 Alpha  occ. eigenvalues --   -0.45435  -0.45248  -0.45152  -0.44731  -0.44637
 Alpha  occ. eigenvalues --   -0.44495  -0.44404  -0.44084  -0.43891  -0.43423
 Alpha  occ. eigenvalues --   -0.43050  -0.42938  -0.42815  -0.42776  -0.42595
 Alpha  occ. eigenvalues --   -0.42325  -0.42216  -0.41931  -0.41726  -0.41310
 Alpha  occ. eigenvalues --   -0.41228  -0.41052  -0.40816  -0.40651  -0.40357
 Alpha  occ. eigenvalues --   -0.40308  -0.40166  -0.39844  -0.39774  -0.39567
 Alpha  occ. eigenvalues --   -0.39330  -0.39286  -0.39213  -0.39088  -0.38559
 Alpha  occ. eigenvalues --   -0.38536  -0.38402  -0.38076  -0.37760  -0.37642
 Alpha  occ. eigenvalues --   -0.37532  -0.37412  -0.37238  -0.36963  -0.36746
 Alpha  occ. eigenvalues --   -0.36563  -0.36239  -0.36048  -0.35930  -0.35869
 Alpha  occ. eigenvalues --   -0.35534  -0.35492  -0.35197  -0.35153  -0.35080
 Alpha  occ. eigenvalues --   -0.34731  -0.34682  -0.34271  -0.33955  -0.33630
 Alpha  occ. eigenvalues --   -0.33128  -0.32756  -0.32719  -0.32408  -0.32325
 Alpha  occ. eigenvalues --   -0.32151  -0.31832  -0.31538  -0.31346  -0.31330
 Alpha  occ. eigenvalues --   -0.31124  -0.30779  -0.30505  -0.30279  -0.30025
 Alpha  occ. eigenvalues --   -0.28982  -0.28585  -0.28477  -0.28258  -0.27891
 Alpha  occ. eigenvalues --   -0.27448  -0.27231  -0.26773  -0.25817  -0.25337
 Alpha  occ. eigenvalues --   -0.24914  -0.24647  -0.23965  -0.23798  -0.19826
 Alpha  occ. eigenvalues --   -0.18774
 Alpha virt. eigenvalues --   -0.10370  -0.07858  -0.04237  -0.02571  -0.00193
 Alpha virt. eigenvalues --   -0.00049   0.00461   0.00742   0.02428   0.03341
 Alpha virt. eigenvalues --    0.03482   0.03827   0.04298   0.04399   0.04622

 Mulliken charges:
               1
     1  C    0.110643
     2  C   -0.074156
     3  C   -0.049233
     4  C   -0.101706
     5  N   -0.203275
     6  C   -0.086321
     7  C    0.113980
     8  C   -0.040312
     9  C    0.022627
    10  C    0.069459
    11  C    0.119400
    12  C   -0.040514
    13  C    0.187268
    14  O   -0.235336
    15  O   -0.238904
    16  N    0.028310
    17  C    0.080290
    18  C   -0.119294
    19  C    0.099102
    20  C    0.003051
    21  C    0.036356
    22  C   -0.077258
    23  C   -0.053749
    24  N   -0.233850
    25  C    0.137818
    26  C   -0.175132
    27  C   -0.109820
    28  C    0.033086
    29  C    0.141087
    30  C    0.164777
    31  C    0.007806
    32  N   -0.164151
    33  C    0.104802
    34  C   -0.132985
    35  C   -0.066186
    36  C    0.107915
    37  C    0.053183
    38  C    0.117484
    39  O   -0.161396
    40  C   -0.126995
    41  C    0.214853
    42  O   -0.242744
    43  O   -0.307573
    44  C    0.165545
    45  C    0.220783
    46  C   -0.107770
    47  C   -0.146802
    48  C    0.064623
    49  C    0.165386
    50  C   -0.038553
    51  C   -0.038995
    52  C   -0.093690
    53  C    0.043163
    54  C    0.038514
    55  C    0.078939
    56  C    0.072952
    57  C   -0.054618
    58  C    0.028663
    59  C   -0.007907
    60  C    0.033065
    61  C   -0.009382
    62  C   -0.112464
    63  C    0.015090
    64  C   -0.011577
    65  H   -0.012659
    66  H   -0.052818
    67  H    0.025620
    68  H   -0.113475
    69  H   -0.016855
    70  H    0.007682
    71  H    0.030917
    72  H    0.023194
    73  H    0.014102
    74  H    0.014250
    75  H    0.018530
    76  H    0.019014
    77  H    0.026432
    78  H    0.016422
    79  H    0.040928
    80  H    0.011398
    81  H    0.017533
    82  H    0.024521
    83  H    0.023610
    84  H   -0.002288
    85  H    0.004294
    86  H   -0.004224
    87  H   -0.058803
    88  H   -0.015416
    89  H    0.017342
    90  H    0.015847
    91  H    0.053045
    92  H    0.026581
    93  H    0.036920
    94  H    0.056903
    95  H    0.037328
    96  H    0.048425
    97  H    0.061709
    98  H    0.047462
    99  H    0.048908
   100  H   -0.004284
   101  H    0.013298
   102  H    0.040772
   103  H   -0.019673
   104  H   -0.039328
   105  H   -0.018350
   106  H    0.012818
   107  H   -0.005654
   108  H    0.004730
   109  H    0.003566
   110  H   -0.013863
   111  H    0.012458
   112  H    0.022569
   113  H    0.007555
   114  H   -0.007515
   115  H   -0.039000
   116  H   -0.027164
   117  H   -0.012951
   118  H   -0.000554
   119  H   -0.043558
   120  H   -0.007756
   121  H    0.025016
   122  H   -0.022073
   123  H    0.009378
   124  H    0.014378
   125  H   -0.004655
   126  H    0.014217
   127  H    0.000445
   128  H   -0.011194
   129  H   -0.024232
   130  H   -0.007891
   131  H    0.001691
   132  H    0.025600
   133  H    0.013289
   134  H    0.033771
   135  H    0.044408
   136  H    0.006163
   137  H    0.085832
   138  H    0.207989
 Sum of Mulliken charges =  -0.00000

 Dipole moment (field-independent basis, Debye):
    X=              2.2130    Y=              3.7853    Z=              0.2641  Tot=              4.3927
 Quadrupole moment (field-independent basis, Debye-Ang):
   XX=           -356.5859   YY=           -378.8906   ZZ=           -397.9193
   XY=            -32.7267   XZ=             15.0611   YZ=             -7.3257

 Normal termination of Gaussian 16 at Wed Aug 28 08:29:24 2019.
