 Gaussian 16, Revision A.03,
 Gaussian 16:  ES64L-G16RevA.03 25-Dec-2016

 --------------------------
 # td=(NStates=1) B3LYP/SVP
 --------------------------

 --
 TD
 --
 Symbolic Z-matrix:
 Charge =  0 Multiplicity = 1

                         Standard orientation:
 ---------------------------------------------------------------------
 Center     Atomic      Atomic             Coordinates (Angstroms)
 Number     Number       Type             X           Y           Z
 ---------------------------------------------------------------------
      1          6           0       -5.084455   -1.945322    0.445913
      2          6           0       -4.889482    2.798868    1.487407
      3          6           0       -9.509050    3.188713   -0.252743
      4          6           0       -9.767615   -1.659119   -1.025452
      5          7           0       -5.234539    0.447218    0.861138
      6          6           0       -4.469648   -0.670806    0.784309
      7          6           0       -3.031765   -0.483377    1.112893
      8          6           0       -3.100450    0.954971    1.719384
      9          6           0       -4.503487    1.393775    1.340925
     10          6           0       -2.993876    1.074076    3.318191
     11          6           0       -1.995830   -0.642003    0.011435
     12          6           0       -0.511333   -0.324097    0.504187
     13          6           0        0.437972   -0.727839   -0.521138
     14          8           0        0.100816   -1.471573   -1.475955
     15          8           0        1.679093   -0.214809   -0.293015
     16          7           0       -7.282587    2.677718    0.668806
     17          6           0       -6.174722    3.321918    1.154112
     18          6           0       -6.503605    4.736620    1.131879
     19          6           0       -7.802559    4.833780    0.634022
     20          6           0       -8.253565    3.504462    0.282937
     21          6           0       -5.436345    5.744342    1.455452
     22          6           0       -8.495812    6.113082    0.314193
     23          6           0       -9.445414    6.375774   -0.513564
     24          7           0       -9.251569    0.731136   -0.506961
     25          6           0      -10.061408    1.983831   -0.522003
     26          6           0      -11.383405    1.660955   -0.941553
     27          6           0      -11.460505    0.284101   -1.200561
     28          6           0      -10.074039   -0.252140   -0.944982
     29          6           0      -12.440418    2.616337   -1.073925
     30          6           0      -12.653047   -0.422191   -1.773994
     31          6           0      -12.543143   -0.582543   -3.337015
     32          7           0       -7.452849   -1.374881   -0.229155
     33          6           0       -8.567687   -2.154430   -0.656989
     34          6           0       -8.156087   -3.535458   -0.634815
     35          6           0       -6.678960   -3.537250   -0.359471
     36          6           0       -6.368273   -2.166182   -0.037021
     37          6           0       -8.879447   -4.745870   -0.979565
     38          6           0       -5.566449   -4.319319   -0.049633
     39          8           0       -5.431769   -5.550885   -0.022318
     40          6           0       -4.421272   -3.255900    0.424715
     41          6           0       -3.795381   -3.777068    1.697968
     42          8           0       -4.106177   -3.350348    2.816809
     43          8           0       -2.848759   -4.690191    1.484338
     44          6           0       -2.084057   -5.351171    2.601388
     45          6           0        2.669869   -0.511436   -1.243429
     46          6           0        4.025268   -0.258187   -0.605706
     47          6           0        5.048147    0.397394   -1.131268
     48          6           0        5.023040    1.091957   -2.530649
     49          6           0        6.317267    0.605766   -0.295025
     50          6           0        7.554707   -0.154772   -0.858860
     51          6           0        8.802005    0.038171    0.026796
     52          6           0       10.009906   -0.700761   -0.530722
     53          6           0        9.803291   -2.294529   -0.492327
     54          6           0       11.280768   -0.355520    0.279377
     55          6           0       12.658369   -0.824529   -0.350801
     56          6           0       13.848628   -0.143107    0.321612
     57          6           0       15.276921   -0.391897   -0.279529
     58          6           0       15.645252   -1.861261   -0.243726
     59          6           0       16.320791    0.511114    0.443928
     60          6           0       17.685022    0.708332   -0.349820
     61          6           0       18.720339    1.556997    0.450519
     62          6           0       20.094447    1.566612   -0.105951
     63          6           0       20.249628    1.959403   -1.566250
     64          6           0       20.971265    2.374932    0.808613
     65          1           0       -4.060402    3.354668    1.924445
     66          1           0      -10.222794    4.056572   -0.358690
     67          1           0      -10.522259   -2.412082   -1.377226
     68          1           0       -2.854016   -1.438425    1.847909
     69          1           0       -2.287687    1.467998    1.224703
     70          1           0       -1.911806    0.806449    3.559056
     71          1           0       -3.294683    2.217283    3.717821
     72          1           0       -3.602247    0.359998    3.942316
     73          1           0       -1.977138   -1.590487   -0.379267
     74          1           0       -2.225538    0.205286   -0.723241
     75          1           0       -0.369307    0.820882    0.729865
     76          1           0       -0.207831   -1.086052    1.461128
     77          1           0       -4.710242    6.030869    0.811639
     78          1           0       -6.025498    6.799388    1.495790
     79          1           0       -4.851974    5.382745    2.387299
     80          1           0       -8.077075    7.042037    0.932955
     81          1           0       -9.755272    5.751326   -1.227446
     82          1           0       -9.740320    7.329679   -0.648986
     83          1           0      -12.403814    3.149402   -0.042219
     84          1           0      -12.251728    3.422785   -1.909660
     85          1           0      -13.303441    2.144127   -1.140951
     86          1           0      -12.744130   -1.353214   -1.316079
     87          1           0      -13.558218    0.110988   -1.634030
     88          1           0      -12.467708    0.527062   -3.724401
     89          1           0      -11.418757   -0.876361   -3.758284
     90          1           0      -13.217619   -1.374304   -3.608664
     91          1           0       -9.858223   -4.891751   -0.266396
     92          1           0       -9.246017   -4.666700   -1.966826
     93          1           0       -8.339101   -5.700358   -1.015612
     94          1           0       -3.604873   -3.186866   -0.399044
     95          1           0       -1.120213   -5.811333    2.325010
     96          1           0       -2.008371   -4.390539    3.424471
     97          1           0       -3.046177   -6.133537    3.087247
     98          1           0        2.594763   -1.525004   -1.606261
     99          1           0        2.467734    0.209443   -2.086280
    100          1           0        4.095214   -0.509541    0.506031
    101          1           0        5.424654    2.070446   -2.357193
    102          1           0        5.693436    0.637033   -3.117018
    103          1           0        3.930357    1.262039   -2.962820
    104          1           0        6.469814    1.674169   -0.026810
    105          1           0        6.306576    0.171000    0.570023
    106          1           0        7.335810   -1.182670   -0.888724
    107          1           0        7.805661    0.176398   -1.895185
    108          1           0        9.008708    1.073144    0.143494
    109          1           0        8.442304   -0.484873    0.945081
    110          1           0       10.379288   -0.341690   -1.495896
    111          1           0        8.747554   -2.545634   -0.969043
    112          1           0       10.768475   -2.802740   -0.971065
    113          1           0        9.661470   -2.415824    0.432323
    114          1           0       11.470454    0.804681    0.316497
    115          1           0       11.194562   -0.869160    1.110479
    116          1           0       12.829779   -1.981060   -0.002908
    117          1           0       12.484581   -0.571222   -1.694232
    118          1           0       13.684653    0.909799    0.329083
    119          1           0       13.952157   -0.540881    1.329329
    120          1           0       15.092089   -0.107355   -1.361660
    121          1           0       14.864497   -2.488315   -0.754215
    122          1           0       16.519037   -2.099800   -0.844593
    123          1           0       15.873150   -2.141206    0.851288
    124          1           0       15.963024    1.580332    0.306381
    125          1           0       16.279733    0.188107    1.411484
    126          1           0       18.128383   -0.340051   -0.439031
    127          1           0       17.587546    1.298813   -1.273868
    128          1           0       18.424692    2.680535    0.410336
    129          1           0       18.678104    1.133736    1.470652
    130          1           0       20.465766    0.449575   -0.129416
    131          1           0       19.956181    2.971157   -2.047559
    132          1           0       21.385895    1.879815   -1.694536
    133          1           0       19.816848    1.431209   -2.532570
    134          1           0       20.959234    2.081023    2.045369
    135          1           0       21.951559    2.264907    0.636078
    136          1           0       20.568632    3.507660    0.520076
    137          1           0       -7.159843    1.588273    0.724465
    138          1           0       -7.454720   -0.398884    0.020114
 ---------------------------------------------------------------------

 SCF Done:  E(RB3LYP) =  -2733.03901117     A.U. after   17 cycles

 Excitation energies and oscillator strengths:

 Excited State   1:      Singlet-A      1.8931 eV  654.94 nm  f=0.1739  <S**2>=0.000
     235 -> 237       -0.10027
     235 -> 238       -0.22458
     236 -> 237        0.65197
     236 -> 238       -0.10288
 This state for optimization and/or second-order correction.
 Total Energy, E(TD-HF/TD-DFT) =  -2732.96944264
 Copying the excited state density for this state as the 1-particle RhoCI density.

 The electronic state is 1-A.
 Alpha  occ. eigenvalues --  -19.18672 -19.17540 -19.12710 -19.11370 -19.11351
 Alpha  occ. eigenvalues --  -14.37574 -14.36548 -14.32911 -14.29654 -10.32169
 Alpha  occ. eigenvalues --  -10.31362 -10.28493 -10.27231 -10.24895 -10.23797
 Alpha  occ. eigenvalues --  -10.23750 -10.23676 -10.23595 -10.23256 -10.23091
 Alpha  occ. eigenvalues --  -10.23036 -10.22858 -10.21738 -10.21490 -10.21393
 Alpha  occ. eigenvalues --  -10.21200 -10.21165 -10.21063 -10.20744 -10.20573
 Alpha  occ. eigenvalues --  -10.20472 -10.20377 -10.20342 -10.20338 -10.20279
 Alpha  occ. eigenvalues --  -10.20189 -10.20138 -10.20137 -10.20067 -10.20042
 Alpha  occ. eigenvalues --  -10.19887 -10.19823 -10.19663 -10.19578 -10.19281
 Alpha  occ. eigenvalues --  -10.19116 -10.18856 -10.18839 -10.18768 -10.18729
 Alpha  occ. eigenvalues --  -10.18585 -10.18542 -10.18479 -10.18474 -10.18366
 Alpha  occ. eigenvalues --  -10.18285 -10.18067 -10.18066 -10.18057 -10.18057
 Alpha  occ. eigenvalues --  -10.17838 -10.17824 -10.17749 -10.16752  -1.09639
 Alpha  occ. eigenvalues --   -1.07717  -1.00503  -0.99898  -0.98839  -0.98476
 Alpha  occ. eigenvalues --   -0.97323  -0.96542  -0.90579  -0.85085  -0.82712
 Alpha  occ. eigenvalues --   -0.81833  -0.81688  -0.81429  -0.81109  -0.81068
 Alpha  occ. eigenvalues --   -0.80258  -0.80072  -0.79677  -0.78473  -0.77936
 Alpha  occ. eigenvalues --   -0.76851  -0.76293  -0.75633  -0.75398  -0.74417
 Alpha  occ. eigenvalues --   -0.73496  -0.73019  -0.72606  -0.71744  -0.70901
 Alpha  occ. eigenvalues --   -0.70045  -0.68878  -0.68183  -0.67941  -0.67219
 Alpha  occ. eigenvalues --   -0.67208  -0.67066  -0.66756  -0.66300  -0.65957
 Alpha  occ. eigenvalues --   -0.64149  -0.63200  -0.62526  -0.61829  -0.61192
 Alpha  occ. eigenvalues --   -0.60969  -0.59341  -0.58361  -0.57967  -0.57396
 Alpha  occ. eigenvalues --   -0.56852  -0.56375  -0.55681  -0.55447  -0.55191
 Alpha  occ. eigenvalues --   -0.54305  -0.54299  -0.53597  -0.53482  -0.53138
 Alpha  occ. eigenvalues --   -0.52702  -0.51838  -0.51487  -0.50649  -0.50208
 Alpha  occ. eigenvalues --   -0.50097  -0.49275  -0.48988  -0.48693  -0.48645
 Alpha  occ. eigenvalues --   -0.48289  -0.48000  -0.47803  -0.47585  -0.47071
 Alpha  occ. eigenvalues --   -0.46877  -0.46614  -0.46288  -0.45925  -0.45699
 Alpha  occ. eigenvalues --   -0.45555  -0.45087  -0.44920  -0.44707  -0.44375
 Alpha  occ. eigenvalues --   -0.44278  -0.44270  -0.44174  -0.44039  -0.43958
 Alpha  occ. eigenvalues --   -0.43498  -0.43224  -0.42975  -0.42818  -0.42592
 Alpha  occ. eigenvalues --   -0.42341  -0.42259  -0.42176  -0.42027  -0.41953
 Alpha  occ. eigenvalues --   -0.41632  -0.41382  -0.41172  -0.40643  -0.40555
 Alpha  occ. eigenvalues --   -0.40160  -0.40033  -0.39817  -0.39605  -0.39284
 Alpha  occ. eigenvalues --   -0.39248  -0.38953  -0.38565  -0.38477  -0.38094
 Alpha  occ. eigenvalues --   -0.37927  -0.37903  -0.37872  -0.37729  -0.37368
 Alpha  occ. eigenvalues --   -0.37331  -0.37216  -0.36571  -0.36473  -0.36456
 Alpha  occ. eigenvalues --   -0.36188  -0.36089  -0.36030  -0.35823  -0.35662
 Alpha  occ. eigenvalues --   -0.35530  -0.35431  -0.35242  -0.34959  -0.34538
 Alpha  occ. eigenvalues --   -0.34205  -0.34044  -0.33921  -0.33853  -0.33497
 Alpha  occ. eigenvalues --   -0.33369  -0.33200  -0.33126  -0.32625  -0.32570
 Alpha  occ. eigenvalues --   -0.32463  -0.32308  -0.32108  -0.31850  -0.31258
 Alpha  occ. eigenvalues --   -0.31111  -0.30875  -0.30642  -0.30090  -0.29841
 Alpha  occ. eigenvalues --   -0.29556  -0.29225  -0.28433  -0.28365  -0.28152
 Alpha  occ. eigenvalues --   -0.28027  -0.27026  -0.25980  -0.25595  -0.25289
 Alpha  occ. eigenvalues --   -0.25260  -0.24418  -0.23978  -0.21651  -0.20143
 Alpha  occ. eigenvalues --   -0.18206
 Alpha virt. eigenvalues --   -0.10617  -0.07802  -0.04949  -0.01774  -0.00896
 Alpha virt. eigenvalues --    0.00015   0.01070   0.01224   0.02013   0.02931
 Alpha virt. eigenvalues --    0.03457   0.03763   0.03895   0.04336   0.04443

 Mulliken charges:
               1
     1  C    0.062522
     2  C   -0.050912
     3  C   -0.117411
     4  C   -0.117145
     5  N   -0.126448
     6  C   -0.056929
     7  C   -0.093244
     8  C   -0.006828
     9  C   -0.064789
    10  C   -0.015051
    11  C    0.119630
    12  C   -0.058146
    13  C    0.197495
    14  O   -0.276354
    15  O   -0.308287
    16  N   -0.052720
    17  C    0.098494
    18  C   -0.112435
    19  C    0.015106
    20  C    0.101847
    21  C    0.078322
    22  C   -0.066971
    23  C    0.058672
    24  N   -0.300820
    25  C    0.083349
    26  C   -0.125431
    27  C   -0.134118
    28  C    0.074293
    29  C    0.150554
    30  C    0.139495
    31  C   -0.054323
    32  N   -0.051771
    33  C    0.171734
    34  C   -0.111034
    35  C    0.041229
    36  C    0.000925
    37  C    0.075094
    38  C    0.028157
    39  O   -0.202815
    40  C   -0.093506
    41  C    0.213374
    42  O   -0.261623
    43  O   -0.308472
    44  C    0.070012
    45  C    0.293369
    46  C   -0.118071
    47  C   -0.165719
    48  C    0.131223
    49  C    0.162901
    50  C   -0.004434
    51  C    0.063676
    52  C   -0.074106
    53  C    0.042709
    54  C    0.079172
    55  C   -0.099973
    56  C    0.060642
    57  C   -0.082393
    58  C    0.023058
    59  C    0.062120
    60  C    0.021780
    61  C    0.017745
    62  C   -0.059245
    63  C   -0.071350
    64  C    0.020357
    65  H   -0.024544
    66  H   -0.008344
    67  H   -0.003170
    68  H    0.045442
    69  H   -0.009570
    70  H    0.023133
    71  H    0.038507
    72  H    0.049738
    73  H    0.002200
    74  H    0.015961
    75  H    0.061781
    76  H    0.068299
    77  H    0.004830
    78  H    0.017779
    79  H    0.039894
    80  H    0.017687
    81  H   -0.020343
    82  H   -0.015763
    83  H    0.026500
    84  H    0.039780
    85  H   -0.047389
    86  H   -0.020236
    87  H   -0.012525
    88  H    0.031451
    89  H    0.022966
    90  H    0.027024
    91  H    0.043158
    92  H    0.017780
    93  H    0.041023
    94  H    0.075924
    95  H    0.077201
    96  H    0.074059
    97  H    0.084173
    98  H    0.028238
    99  H    0.011519
   100  H    0.004913
   101  H   -0.001811
   102  H   -0.004186
   103  H    0.032604
   104  H    0.004140
   105  H   -0.083538
   106  H   -0.016391
   107  H   -0.006208
   108  H   -0.014748
   109  H   -0.008562
   110  H   -0.021908
   111  H    0.026428
   112  H    0.052228
   113  H   -0.052378
   114  H    0.010588
   115  H   -0.053116
   116  H    0.025981
   117  H    0.014234
   118  H   -0.019888
   119  H   -0.016350
   120  H   -0.019313
   121  H    0.017622
   122  H    0.003383
   123  H    0.007143
   124  H   -0.002751
   125  H   -0.027407
   126  H    0.003014
   127  H    0.008994
   128  H   -0.005925
   129  H   -0.006235
   130  H   -0.000576
   131  H    0.007787
   132  H    0.016002
   133  H    0.027309
   134  H    0.028618
   135  H   -0.021238
   136  H    0.029055
   137  H    0.192779
   138  H    0.129357
 Sum of Mulliken charges =  -0.00000

 Dipole moment (field-independent basis, Debye):
    X=              3.5453    Y=              3.9608    Z=              0.2098  Tot=              5.3199
 Quadrupole moment (field-independent basis, Debye-Ang):
   XX=           -344.0416   YY=           -390.7496   ZZ=           -398.3084
   XY=            -15.2248   XZ=             15.8308   YZ=             -5.9072

 Normal termination of Gaussian 16 at Sat Aug 17 00:09:53 2019.
