 Gaussian 16, Revision A.03,
 Gaussian 16:  ES64L-G16RevA.03 25-Dec-2016

 --------------------------
 # td=(NStates=1) B3LYP/SVP
 --------------------------

 --
 TD
 --
 Symbolic Z-matrix:
 Charge =  0 Multiplicity = 1

                         Standard orientation:
 ---------------------------------------------------------------------
 Center     Atomic      Atomic             Coordinates (Angstroms)
 Number     Number       Type             X           Y           Z
 ---------------------------------------------------------------------
      1          6           0       -5.243081   -1.984001    0.476531
      2          6           0       -4.791439    2.765472    1.536239
      3          6           0       -9.410221    3.337237   -0.111520
      4          6           0       -9.873802   -1.386959   -1.049357
      5          7           0       -5.255187    0.384310    0.919380
      6          6           0       -4.593351   -0.741477    0.872055
      7          6           0       -3.107451   -0.591294    1.271929
      8          6           0       -3.057260    0.944586    1.828490
      9          6           0       -4.408527    1.372545    1.423958
     10          6           0       -2.840001    1.033177    3.261590
     11          6           0       -2.111626   -1.029522    0.215399
     12          6           0       -0.651739   -0.799158    0.717536
     13          6           0        0.399246   -0.994433   -0.508562
     14          8           0        0.053163   -1.444762   -1.573767
     15          8           0        1.542022   -0.842547   -0.046681
     16          7           0       -7.099807    2.776997    0.581122
     17          6           0       -5.970373    3.335112    1.048483
     18          6           0       -6.297015    4.731924    1.155985
     19          6           0       -7.550429    4.965084    0.553606
     20          6           0       -8.095946    3.670221    0.304071
     21          6           0       -5.251906    5.781831    1.559800
     22          6           0       -8.136737    6.270788    0.266180
     23          6           0       -8.909018    6.628866   -0.827662
     24          7           0       -9.232894    0.941841   -0.515320
     25          6           0       -9.897521    2.048375   -0.513625
     26          6           0      -11.281222    1.864713   -0.968535
     27          6           0      -11.414531    0.533613   -1.385003
     28          6           0      -10.124623    0.016292   -0.929329
     29          6           0      -12.161938    3.015769   -1.198455
     30          6           0      -12.508601   -0.209383   -1.889694
     31          6           0      -12.341264   -0.739560   -3.324568
     32          7           0       -7.518562   -1.217082   -0.113187
     33          6           0       -8.643615   -1.953541   -0.721710
     34          6           0       -8.273664   -3.345054   -0.801382
     35          6           0       -6.976624   -3.410970   -0.184519
     36          6           0       -6.532417   -2.087038    0.015268
     37          6           0       -9.147337   -4.506683   -1.179027
     38          6           0       -5.786813   -4.260268    0.093013
     39          8           0       -5.684668   -5.476470   -0.061231
     40          6           0       -4.565787   -3.398594    0.362969
     41          6           0       -3.949998   -3.835690    1.663076
     42          8           0       -4.261298   -3.484244    2.767137
     43          8           0       -3.048635   -4.754137    1.442378
     44          6           0       -2.329145   -5.382923    2.540778
     45          6           0        2.739190   -0.990287   -0.896361
     46          6           0        3.988795   -0.673021   -0.462471
     47          6           0        4.899332    0.129406   -0.952571
     48          6           0        4.803896    0.764495   -2.420377
     49          6           0        6.270726    0.338090   -0.208933
     50          6           0        7.445599   -0.297415   -0.856955
     51          6           0        8.671224   -0.139999   -0.069971
     52          6           0       10.047224   -0.794050   -0.603623
     53          6           0        9.977192   -2.190360   -0.743774
     54          6           0       11.276935   -0.193437    0.186311
     55          6           0       12.643480   -0.562567   -0.506982
     56          6           0       13.863704    0.206185    0.247847
     57          6           0       15.281070   -0.221174   -0.277783
     58          6           0       15.505105   -1.740671   -0.217431
     59          6           0       16.356941    0.732965    0.460542
     60          6           0       17.771701    0.498133   -0.199023
     61          6           0       18.790357    1.560498    0.420759
     62          6           0       20.175663    1.547209   -0.233788
     63          6           0       20.329434    1.938723   -1.667490
     64          6           0       21.141796    2.522481    0.682837
     65          1           0       -4.216686    3.326570    2.224693
     66          1           0      -10.308007    4.107407   -0.120314
     67          1           0      -10.797972   -2.042056   -1.496782
     68          1           0       -2.804465   -1.197351    2.261278
     69          1           0       -2.184642    1.650336    1.364483
     70          1           0       -1.778429    0.925327    3.623626
     71          1           0       -3.172076    2.140198    3.635122
     72          1           0       -3.542596    0.438894    4.137100
     73          1           0       -2.191102   -2.124354   -0.132096
     74          1           0       -2.331848   -0.560298   -0.738587
     75          1           0       -0.440952    0.105908    1.309231
     76          1           0       -0.194615   -1.525090    1.449381
     77          1           0       -4.274447    5.746625    0.841204
     78          1           0       -5.646052    6.915014    1.514991
     79          1           0       -4.920638    5.694101    2.453978
     80          1           0       -7.911402    7.015994    1.249050
     81          1           0       -9.052862    5.953844   -1.646955
     82          1           0       -9.221353    7.649036   -0.695321
     83          1           0      -12.543807    3.457566   -0.093317
     84          1           0      -11.741095    3.755166   -1.689236
     85          1           0      -13.057609    2.784889   -1.794485
     86          1           0      -12.644634   -1.224118   -1.470097
     87          1           0      -13.446552    0.334467   -1.660399
     88          1           0      -12.495980    0.095539   -4.234419
     89          1           0      -11.359897   -1.293292   -3.331087
     90          1           0      -13.163990   -1.361956   -3.689475
     91          1           0      -10.069416   -4.620571   -0.515995
     92          1           0       -9.508644   -4.538223   -2.219304
     93          1           0       -8.475348   -5.403133   -1.276590
     94          1           0       -3.887613   -3.582673   -0.326800
     95          1           0       -1.403746   -5.881083    2.248591
     96          1           0       -1.964205   -4.462249    3.258893
     97          1           0       -3.023139   -6.121656    2.882698
     98          1           0        2.817762   -1.987341   -1.198687
     99          1           0        2.612195   -0.470299   -1.925485
    100          1           0        4.131721   -0.937751    0.582859
    101          1           0        5.238279    1.800547   -2.110185
    102          1           0        5.632416    0.244115   -3.124572
    103          1           0        3.866141    0.600727   -2.989268
    104          1           0        6.359092    1.439947   -0.110681
    105          1           0        6.237572   -0.133668    0.807974
    106          1           0        7.310451   -1.292326   -0.928275
    107          1           0        7.545390   -0.023830   -1.861289
    108          1           0        8.919564    0.954080    0.108219
    109          1           0        8.684194   -0.765909    0.866216
    110          1           0       10.026514   -0.415027   -1.628400
    111          1           0        9.157194   -2.571328   -1.476238
    112          1           0       10.931649   -2.697406   -1.192064
    113          1           0        9.779724   -2.781532    0.180648
    114          1           0       10.948665    0.826541    0.380658
    115          1           0       11.383126   -0.669048    1.209643
    116          1           0       12.719223   -1.604877   -0.399247
    117          1           0       12.544652   -0.350532   -1.629528
    118          1           0       13.721672    1.326712    0.137355
    119          1           0       13.720259   -0.142309    1.412800
    120          1           0       15.337022    0.151362   -1.307402
    121          1           0       14.726494   -2.417834   -0.576442
    122          1           0       16.460100   -1.924560   -0.802744
    123          1           0       15.418943   -2.128773    0.793910
    124          1           0       16.107269    1.905885    0.327903
    125          1           0       16.262980    0.489887    1.559079
    126          1           0       17.995055   -0.631589   -0.122331
    127          1           0       17.601714    0.904980   -1.246899
    128          1           0       18.241757    2.531054    0.382367
    129          1           0       18.846330    1.185006    1.425398
    130          1           0       20.676495    0.552206    0.097864
    131          1           0       19.920848    2.974216   -1.988279
    132          1           0       21.345000    2.278732   -2.157088
    133          1           0       19.935129    1.226234   -2.271607
    134          1           0       20.919101    2.111281    1.763437
    135          1           0       22.185546    2.610193    0.433321
    136          1           0       20.609324    3.540308    0.779258
    137          1           0       -7.381314    1.715094    0.570830
    138          1           0       -7.640468   -0.332687    0.048635
 ---------------------------------------------------------------------

 SCF Done:  E(RB3LYP) =  -2733.07432022     A.U. after   16 cycles

 Excitation energies and oscillator strengths:

 Excited State   1:      Singlet-A      2.0333 eV  609.77 nm  f=0.1326  <S**2>=0.000
     235 -> 237        0.13056
     235 -> 238       -0.32820
     236 -> 237        0.60094
     236 -> 238        0.10664
 This state for optimization and/or second-order correction.
 Total Energy, E(TD-HF/TD-DFT) =  -2732.99959764
 Copying the excited state density for this state as the 1-particle RhoCI density.

 The electronic state is 1-A.
 Alpha  occ. eigenvalues --  -19.19489 -19.17176 -19.11304 -19.11229 -19.10773
 Alpha  occ. eigenvalues --  -14.37122 -14.35918 -14.32370 -14.29652 -10.31098
 Alpha  occ. eigenvalues --  -10.30382 -10.27302 -10.25593 -10.25136 -10.23548
 Alpha  occ. eigenvalues --  -10.23396 -10.23365 -10.23175 -10.23140 -10.22785
 Alpha  occ. eigenvalues --  -10.22107 -10.22025 -10.21812 -10.21422 -10.21330
 Alpha  occ. eigenvalues --  -10.21096 -10.21073 -10.21017 -10.20955 -10.20765
 Alpha  occ. eigenvalues --  -10.20639 -10.20247 -10.20226 -10.20182 -10.20174
 Alpha  occ. eigenvalues --  -10.20052 -10.19998 -10.19946 -10.19930 -10.19888
 Alpha  occ. eigenvalues --  -10.19842 -10.19801 -10.19795 -10.19600 -10.19590
 Alpha  occ. eigenvalues --  -10.19466 -10.19421 -10.19298 -10.19285 -10.19178
 Alpha  occ. eigenvalues --  -10.18984 -10.18845 -10.18838 -10.18830 -10.18669
 Alpha  occ. eigenvalues --  -10.18628 -10.18624 -10.18580 -10.18538 -10.18301
 Alpha  occ. eigenvalues --  -10.18269 -10.18262 -10.17979 -10.17223  -1.12779
 Alpha  occ. eigenvalues --   -1.09905  -1.01276  -1.00719  -0.99805  -0.98540
 Alpha  occ. eigenvalues --   -0.97924  -0.95297  -0.94415  -0.84571  -0.84495
 Alpha  occ. eigenvalues --   -0.82546  -0.81368  -0.80702  -0.80574  -0.80403
 Alpha  occ. eigenvalues --   -0.80150  -0.79852  -0.79444  -0.78679  -0.78462
 Alpha  occ. eigenvalues --   -0.77194  -0.76177  -0.75266  -0.74368  -0.74344
 Alpha  occ. eigenvalues --   -0.73793  -0.73205  -0.72033  -0.71817  -0.70378
 Alpha  occ. eigenvalues --   -0.69936  -0.69569  -0.69005  -0.67946  -0.67633
 Alpha  occ. eigenvalues --   -0.67586  -0.66889  -0.66246  -0.65573  -0.65176
 Alpha  occ. eigenvalues --   -0.63777  -0.62859  -0.62741  -0.61963  -0.61646
 Alpha  occ. eigenvalues --   -0.61007  -0.59417  -0.58606  -0.58219  -0.57363
 Alpha  occ. eigenvalues --   -0.56669  -0.55728  -0.55713  -0.55601  -0.55517
 Alpha  occ. eigenvalues --   -0.55155  -0.54530  -0.54335  -0.53999  -0.53058
 Alpha  occ. eigenvalues --   -0.52070  -0.51757  -0.51286  -0.51201  -0.51149
 Alpha  occ. eigenvalues --   -0.50332  -0.49705  -0.49585  -0.49172  -0.48264
 Alpha  occ. eigenvalues --   -0.47890  -0.47845  -0.47785  -0.47345  -0.47120
 Alpha  occ. eigenvalues --   -0.46793  -0.46393  -0.46284  -0.46164  -0.45951
 Alpha  occ. eigenvalues --   -0.45277  -0.45096  -0.45051  -0.44858  -0.44350
 Alpha  occ. eigenvalues --   -0.44258  -0.44067  -0.43984  -0.43797  -0.43705
 Alpha  occ. eigenvalues --   -0.43319  -0.43083  -0.42935  -0.42684  -0.42442
 Alpha  occ. eigenvalues --   -0.42154  -0.42095  -0.41805  -0.41717  -0.41282
 Alpha  occ. eigenvalues --   -0.40938  -0.40735  -0.40713  -0.40549  -0.40405
 Alpha  occ. eigenvalues --   -0.40304  -0.40043  -0.39905  -0.39663  -0.39373
 Alpha  occ. eigenvalues --   -0.39146  -0.39059  -0.38954  -0.38829  -0.38491
 Alpha  occ. eigenvalues --   -0.38312  -0.38185  -0.37770  -0.37686  -0.37512
 Alpha  occ. eigenvalues --   -0.37186  -0.37053  -0.36896  -0.36607  -0.36560
 Alpha  occ. eigenvalues --   -0.36485  -0.36372  -0.36137  -0.35683  -0.35658
 Alpha  occ. eigenvalues --   -0.35480  -0.35191  -0.34939  -0.34734  -0.34548
 Alpha  occ. eigenvalues --   -0.34254  -0.34100  -0.33827  -0.33685  -0.33621
 Alpha  occ. eigenvalues --   -0.33451  -0.33237  -0.32893  -0.32724  -0.32420
 Alpha  occ. eigenvalues --   -0.32376  -0.31969  -0.31710  -0.31430  -0.31396
 Alpha  occ. eigenvalues --   -0.31063  -0.30889  -0.30527  -0.29877  -0.29838
 Alpha  occ. eigenvalues --   -0.29577  -0.28693  -0.27886  -0.27625  -0.27297
 Alpha  occ. eigenvalues --   -0.27043  -0.26841  -0.26814  -0.26082  -0.25646
 Alpha  occ. eigenvalues --   -0.25589  -0.24342  -0.23435  -0.22470  -0.19523
 Alpha  occ. eigenvalues --   -0.18592
 Alpha virt. eigenvalues --   -0.09881  -0.07812  -0.04246  -0.01876  -0.00561
 Alpha virt. eigenvalues --   -0.00273   0.01652   0.01863   0.02226   0.03627
 Alpha virt. eigenvalues --    0.03718   0.03996   0.04017   0.04312   0.04624

 Mulliken charges:
               1
     1  C    0.010368
     2  C   -0.079754
     3  C   -0.120432
     4  C   -0.160938
     5  N   -0.154323
     6  C   -0.040304
     7  C   -0.059614
     8  C   -0.030654
     9  C    0.009619
    10  C   -0.062215
    11  C    0.090171
    12  C   -0.037745
    13  C    0.149412
    14  O   -0.247881
    15  O   -0.228457
    16  N   -0.069049
    17  C    0.139312
    18  C   -0.151411
    19  C    0.019028
    20  C    0.096345
    21  C    0.092739
    22  C   -0.117517
    23  C    0.010639
    24  N   -0.154952
    25  C   -0.016761
    26  C   -0.152363
    27  C   -0.039493
    28  C    0.032466
    29  C    0.108592
    30  C    0.055335
    31  C   -0.058749
    32  N    0.041610
    33  C    0.129676
    34  C   -0.146760
    35  C   -0.006976
    36  C    0.066091
    37  C    0.080913
    38  C    0.032219
    39  O   -0.194718
    40  C    0.111059
    41  C    0.149718
    42  O   -0.219918
    43  O   -0.288509
    44  C    0.162239
    45  C    0.349609
    46  C   -0.124113
    47  C   -0.142665
    48  C   -0.011176
    49  C    0.053912
    50  C    0.169444
    51  C   -0.042651
    52  C   -0.052155
    53  C   -0.018578
    54  C    0.041811
    55  C    0.027476
    56  C   -0.024021
    57  C   -0.040376
    58  C    0.034859
    59  C   -0.051237
    60  C   -0.022617
    61  C    0.041253
    62  C   -0.078902
    63  C    0.047320
    64  C   -0.020593
    65  H   -0.027876
    66  H    0.024615
    67  H    0.034714
    68  H    0.041114
    69  H    0.044058
    70  H    0.025958
    71  H    0.015177
    72  H    0.050283
    73  H    0.030105
    74  H    0.007968
    75  H    0.007841
    76  H    0.020771
    77  H    0.042275
    78  H    0.023679
    79  H   -0.027916
    80  H    0.046581
    81  H    0.032545
    82  H    0.026573
    83  H    0.032788
    84  H   -0.013805
    85  H    0.001381
    86  H    0.003411
    87  H    0.004771
    88  H    0.015725
    89  H    0.037099
    90  H    0.009838
    91  H    0.052339
    92  H    0.011544
    93  H    0.039380
    94  H   -0.014902
    95  H    0.035417
    96  H    0.058224
    97  H    0.045383
    98  H    0.004677
    99  H    0.008433
   100  H   -0.022734
   101  H    0.042670
   102  H    0.048888
   103  H    0.041971
   104  H    0.006522
   105  H   -0.000174
   106  H   -0.053435
   107  H   -0.035916
   108  H   -0.000070
   109  H   -0.001669
   110  H   -0.024114
   111  H    0.012464
   112  H    0.016718
   113  H   -0.003431
   114  H   -0.011675
   115  H   -0.008342
   116  H   -0.008010
   117  H    0.006287
   118  H    0.011747
   119  H    0.009096
   120  H   -0.014149
   121  H    0.003442
   122  H    0.030805
   123  H   -0.004869
   124  H    0.013519
   125  H    0.004098
   126  H    0.029480
   127  H    0.006889
   128  H    0.001571
   129  H   -0.007987
   130  H    0.012346
   131  H    0.001889
   132  H    0.009922
   133  H   -0.006148
   134  H    0.003903
   135  H    0.023118
   136  H    0.004276
   137  H    0.195548
   138  H    0.030731
 Sum of Mulliken charges =  -0.00000

 Dipole moment (field-independent basis, Debye):
    X=              4.6644    Y=              3.0811    Z=              0.0643  Tot=              5.5905
 Quadrupole moment (field-independent basis, Debye-Ang):
   XX=           -353.6143   YY=           -388.0044   ZZ=           -395.5539
   XY=            -24.7213   XZ=              5.9667   YZ=              0.9564

 Normal termination of Gaussian 16 at Thu Aug 22 22:00:19 2019.
