 Gaussian 16, Revision A.03,
 Gaussian 16:  ES64L-G16RevA.03 25-Dec-2016

 --------------------------
 # td=(NStates=1) B3LYP/SVP
 --------------------------

 --
 TD
 --
 Symbolic Z-matrix:
 Charge =  0 Multiplicity = 1

                         Standard orientation:
 ---------------------------------------------------------------------
 Center     Atomic      Atomic             Coordinates (Angstroms)
 Number     Number       Type             X           Y           Z
 ---------------------------------------------------------------------
      1          6           0       -5.144618   -1.974842    0.339145
      2          6           0       -4.735406    2.753600    1.336227
      3          6           0       -9.348549    3.336999   -0.217489
      4          6           0       -9.864841   -1.409538   -0.890734
      5          7           0       -5.224756    0.412953    0.600285
      6          6           0       -4.454233   -0.727384    0.609536
      7          6           0       -3.051746   -0.618253    1.013771
      8          6           0       -3.101761    0.838718    1.683667
      9          6           0       -4.427777    1.418158    1.159761
     10          6           0       -3.062092    0.888476    3.295663
     11          6           0       -2.046565   -0.829235   -0.125574
     12          6           0       -0.643650   -0.752945    0.300525
     13          6           0        0.323843   -1.109018   -0.682438
     14          8           0        0.129258   -1.445562   -1.840911
     15          8           0        1.558079   -0.775948   -0.326594
     16          7           0       -7.010009    2.787192    0.446369
     17          6           0       -5.894539    3.441592    1.001009
     18          6           0       -6.224378    4.819410    1.012569
     19          6           0       -7.565494    5.027115    0.581193
     20          6           0       -8.011910    3.701384    0.236743
     21          6           0       -5.093125    5.815013    1.376117
     22          6           0       -8.057922    6.370306    0.390996
     23          6           0       -9.042783    6.673631   -0.523303
     24          7           0       -9.223053    0.851624   -0.360608
     25          6           0       -9.876384    2.083571   -0.402799
     26          6           0      -11.228567    1.797897   -0.822905
     27          6           0      -11.448142    0.520243   -1.136631
     28          6           0      -10.083476   -0.088481   -0.850379
     29          6           0      -12.252656    2.975528   -0.900960
     30          6           0      -12.677161   -0.294689   -1.480018
     31          6           0      -12.694337   -0.604178   -2.996623
     32          7           0       -7.455646   -1.269978   -0.171512
     33          6           0       -8.617003   -2.046345   -0.519546
     34          6           0       -8.180042   -3.429253   -0.616202
     35          6           0       -6.825853   -3.316486   -0.322117
     36          6           0       -6.470468   -2.034774   -0.077568
     37          6           0       -9.056468   -4.654330   -0.843162
     38          6           0       -5.780979   -4.275789    0.024085
     39          8           0       -5.733038   -5.512428   -0.011187
     40          6           0       -4.574968   -3.436865    0.363725
     41          6           0       -4.002420   -3.715152    1.755219
     42          8           0       -4.394486   -3.291988    2.808719
     43          8           0       -3.040384   -4.779961    1.614683
     44          6           0       -2.643145   -5.426332    2.796193
     45          6           0        2.626641   -1.012672   -1.325194
     46          6           0        3.929852   -0.617185   -0.635897
     47          6           0        4.961475    0.057529   -1.105938
     48          6           0        5.016503    0.927072   -2.431841
     49          6           0        6.275818    0.253997   -0.321139
     50          6           0        7.457845   -0.390704   -0.973365
     51          6           0        8.832351   -0.168927   -0.113500
     52          6           0       10.062387   -0.706695   -0.754893
     53          6           0       10.006353   -2.222344   -0.866114
     54          6           0       11.353177   -0.361400    0.125132
     55          6           0       12.704740   -0.514938   -0.423895
     56          6           0       13.845771   -0.156413    0.446397
     57          6           0       15.224268   -0.087190   -0.287491
     58          6           0       15.573675   -1.573665   -0.807024
     59          6           0       16.299067    0.509779    0.561414
     60          6           0       17.759382    0.599302   -0.124266
     61          6           0       18.689482    1.469456    0.767209
     62          6           0       20.193554    1.542880    0.141695
     63          6           0       20.087998    2.247891   -1.232175
     64          6           0       21.184321    2.280066    1.183489
     65          1           0       -3.796884    3.342124    1.635395
     66          1           0       -9.993875    4.289677   -0.242537
     67          1           0      -10.704996   -2.198861   -0.988736
     68          1           0       -2.721160   -1.340349    1.754782
     69          1           0       -2.407334    1.493386    1.156350
     70          1           0       -2.080033    0.946301    3.740090
     71          1           0       -3.251058    1.987187    3.469458
     72          1           0       -3.563386    0.204815    3.721708
     73          1           0       -2.342119   -1.830904   -0.502736
     74          1           0       -2.276193   -0.108371   -0.843590
     75          1           0       -0.155590    0.148287    0.524893
     76          1           0       -0.219751   -1.308896    1.246766
     77          1           0       -4.099599    5.854936    0.876872
     78          1           0       -5.299005    6.925958    1.318238
     79          1           0       -4.679132    5.693608    2.404055
     80          1           0       -7.767291    7.107860    1.046176
     81          1           0       -9.457980    6.035369   -1.364474
     82          1           0       -9.451440    7.705736   -0.488129
     83          1           0      -12.507983    3.434690   -0.101887
     84          1           0      -11.793125    3.586428   -1.845507
     85          1           0      -13.194774    2.598973   -1.253079
     86          1           0      -12.705915   -1.204902   -0.838278
     87          1           0      -13.646580    0.355954   -1.182720
     88          1           0      -12.673987    0.324284   -3.444384
     89          1           0      -11.622884   -1.089874   -3.146127
     90          1           0      -13.485665   -1.268559   -3.412821
     91          1           0       -9.984271   -4.622675   -0.206956
     92          1           0       -9.346446   -4.678553   -1.735774
     93          1           0       -8.690729   -5.624224   -0.530120
     94          1           0       -4.008869   -3.521210   -0.607782
     95          1           0       -2.190984   -6.297108    2.566206
     96          1           0       -2.099398   -4.627167    3.368525
     97          1           0       -3.476727   -5.584840    3.680354
     98          1           0        2.625293   -2.095649   -1.706390
     99          1           0        2.316090   -0.445515   -2.259863
    100          1           0        4.162839   -1.051461    0.428702
    101          1           0        5.351596    2.049386   -2.292228
    102          1           0        5.709097    0.389734   -3.046571
    103          1           0        3.978342    0.904467   -2.797275
    104          1           0        6.395105    1.311646   -0.324215
    105          1           0        6.201974   -0.337619    0.673031
    106          1           0        7.290009   -1.538165   -1.064685
    107          1           0        7.899912    0.049658   -1.908166
    108          1           0        9.001873    0.997089   -0.328649
    109          1           0        8.820293   -0.342668    0.921841
    110          1           0       10.374073   -0.426416   -1.770776
    111          1           0        9.154581   -2.347173   -1.531310
    112          1           0       11.052725   -2.876665   -1.070545
    113          1           0        9.468169   -2.546993    0.211732
    114          1           0       11.177729    0.833162    0.421584
    115          1           0       11.095650   -0.650430    1.216586
    116          1           0       12.665436   -1.567697   -0.681150
    117          1           0       12.801015   -0.115747   -1.445553
    118          1           0       13.443642    0.870412    0.632754
    119          1           0       13.781082   -0.754453    1.255301
    120          1           0       15.223865    0.336256   -1.134955
    121          1           0       15.035840   -1.999307   -1.774485
    122          1           0       16.559285   -1.352291   -1.179407
    123          1           0       15.408740   -2.401377    0.184918
    124          1           0       16.122594    1.553063    0.687564
    125          1           0       16.378351    0.059471    1.532946
    126          1           0       18.095027   -0.481009   -0.660709
    127          1           0       17.538134    1.067289   -1.139596
    128          1           0       18.202451    2.530594    0.946181
    129          1           0       18.833443    0.952875    1.637438
    130          1           0       20.582900    0.646762   -0.084950
    131          1           0       19.581230    3.181844   -1.038534
    132          1           0       21.080125    2.743748   -1.536055
    133          1           0       19.764124    1.643248   -1.960809
    134          1           0       21.039740    1.709060    2.149073
    135          1           0       22.202637    2.288941    0.708563
    136          1           0       20.818647    3.223507    1.360690
    137          1           0       -7.004377    1.819334    0.365899
    138          1           0       -7.645550   -0.346988   -0.073377
 ---------------------------------------------------------------------

 SCF Done:  E(RB3LYP) =  -2733.01522972     A.U. after   17 cycles

 Excitation energies and oscillator strengths:

 Excited State   1:      Singlet-A      2.0105 eV  616.67 nm  f=0.1931  <S**2>=0.000
     235 -> 238        0.29651
     236 -> 237        0.63943
 This state for optimization and/or second-order correction.
 Total Energy, E(TD-HF/TD-DFT) =  -2732.94134416
 Copying the excited state density for this state as the 1-particle RhoCI density.

 The electronic state is 1-A.
 Alpha  occ. eigenvalues --  -19.17139 -19.16998 -19.14721 -19.11860 -19.10916
 Alpha  occ. eigenvalues --  -14.36677 -14.36337 -14.33123 -14.30168 -10.33059
 Alpha  occ. eigenvalues --  -10.30366 -10.27471 -10.26254 -10.24629 -10.23998
 Alpha  occ. eigenvalues --  -10.23769 -10.23477 -10.23426 -10.22947 -10.22201
 Alpha  occ. eigenvalues --  -10.22111 -10.21680 -10.21448 -10.21276 -10.21069
 Alpha  occ. eigenvalues --  -10.21008 -10.20998 -10.20753 -10.20735 -10.20731
 Alpha  occ. eigenvalues --  -10.20684 -10.20558 -10.20525 -10.20498 -10.20437
 Alpha  occ. eigenvalues --  -10.20275 -10.20264 -10.20240 -10.20097 -10.20093
 Alpha  occ. eigenvalues --  -10.19947 -10.19870 -10.19867 -10.19699 -10.19641
 Alpha  occ. eigenvalues --  -10.19635 -10.19375 -10.19145 -10.19137 -10.19127
 Alpha  occ. eigenvalues --  -10.18683 -10.18538 -10.18465 -10.18465 -10.18422
 Alpha  occ. eigenvalues --  -10.18409 -10.18251 -10.18170 -10.17976 -10.17824
 Alpha  occ. eigenvalues --  -10.17652 -10.17221 -10.17084 -10.16705  -1.09555
 Alpha  occ. eigenvalues --   -1.08286  -1.01570  -1.01393  -1.00608  -0.98712
 Alpha  occ. eigenvalues --   -0.97867  -0.93543  -0.92934  -0.85664  -0.83236
 Alpha  occ. eigenvalues --   -0.82709  -0.81992  -0.81881  -0.81398  -0.80668
 Alpha  occ. eigenvalues --   -0.80212  -0.79425  -0.79125  -0.79068  -0.78228
 Alpha  occ. eigenvalues --   -0.76991  -0.76628  -0.75521  -0.75101  -0.74495
 Alpha  occ. eigenvalues --   -0.73591  -0.73084  -0.72318  -0.71982  -0.71205
 Alpha  occ. eigenvalues --   -0.70635  -0.69532  -0.69201  -0.68123  -0.67759
 Alpha  occ. eigenvalues --   -0.67509  -0.66701  -0.66134  -0.66016  -0.65981
 Alpha  occ. eigenvalues --   -0.64695  -0.64095  -0.63761  -0.62691  -0.61431
 Alpha  occ. eigenvalues --   -0.60923  -0.59323  -0.59083  -0.58181  -0.57127
 Alpha  occ. eigenvalues --   -0.56740  -0.56450  -0.56373  -0.56224  -0.55863
 Alpha  occ. eigenvalues --   -0.55655  -0.55399  -0.55252  -0.54816  -0.52989
 Alpha  occ. eigenvalues --   -0.52608  -0.51932  -0.51862  -0.51103  -0.50909
 Alpha  occ. eigenvalues --   -0.50168  -0.49679  -0.48850  -0.48794  -0.48422
 Alpha  occ. eigenvalues --   -0.48247  -0.47812  -0.47693  -0.47286  -0.47147
 Alpha  occ. eigenvalues --   -0.46718  -0.46692  -0.46490  -0.46277  -0.46119
 Alpha  occ. eigenvalues --   -0.45542  -0.45436  -0.45153  -0.45013  -0.44946
 Alpha  occ. eigenvalues --   -0.44745  -0.44290  -0.44098  -0.44004  -0.43868
 Alpha  occ. eigenvalues --   -0.43782  -0.43611  -0.43458  -0.43340  -0.42815
 Alpha  occ. eigenvalues --   -0.42628  -0.42429  -0.42186  -0.42037  -0.41736
 Alpha  occ. eigenvalues --   -0.41380  -0.41134  -0.40798  -0.40692  -0.40385
 Alpha  occ. eigenvalues --   -0.40277  -0.39998  -0.39861  -0.39838  -0.39595
 Alpha  occ. eigenvalues --   -0.39294  -0.38913  -0.38712  -0.38628  -0.38472
 Alpha  occ. eigenvalues --   -0.38239  -0.38067  -0.38010  -0.37978  -0.37956
 Alpha  occ. eigenvalues --   -0.37738  -0.37551  -0.37456  -0.36996  -0.36653
 Alpha  occ. eigenvalues --   -0.36524  -0.36448  -0.36360  -0.36114  -0.35946
 Alpha  occ. eigenvalues --   -0.35743  -0.35605  -0.35532  -0.35352  -0.34795
 Alpha  occ. eigenvalues --   -0.34666  -0.34334  -0.34212  -0.34056  -0.33982
 Alpha  occ. eigenvalues --   -0.33760  -0.33254  -0.32947  -0.32742  -0.32701
 Alpha  occ. eigenvalues --   -0.32454  -0.32080  -0.31578  -0.31430  -0.31289
 Alpha  occ. eigenvalues --   -0.30968  -0.30838  -0.30160  -0.29629  -0.29446
 Alpha  occ. eigenvalues --   -0.29056  -0.28719  -0.28304  -0.27977  -0.27957
 Alpha  occ. eigenvalues --   -0.27662  -0.26951  -0.26943  -0.26644  -0.26266
 Alpha  occ. eigenvalues --   -0.25587  -0.24920  -0.23781  -0.23276  -0.19602
 Alpha  occ. eigenvalues --   -0.19333
 Alpha virt. eigenvalues --   -0.10968  -0.07306  -0.04448  -0.02605  -0.01549
 Alpha virt. eigenvalues --    0.00186   0.00421   0.00870   0.01500   0.03624
 Alpha virt. eigenvalues --    0.03857   0.04324   0.04466   0.04662   0.04903

 Mulliken charges:
               1
     1  C   -0.159299
     2  C   -0.061131
     3  C   -0.114152
     4  C   -0.099249
     5  N   -0.205157
     6  C   -0.020113
     7  C   -0.060930
     8  C   -0.045258
     9  C   -0.027583
    10  C    0.174591
    11  C    0.172941
    12  C    0.073116
    13  C    0.119159
    14  O   -0.264322
    15  O   -0.326591
    16  N   -0.041771
    17  C    0.097420
    18  C   -0.070320
    19  C    0.033205
    20  C    0.045381
    21  C    0.034521
    22  C   -0.006545
    23  C   -0.067029
    24  N   -0.264569
    25  C    0.140325
    26  C   -0.177481
    27  C   -0.087534
    28  C    0.103932
    29  C    0.163460
    30  C    0.025349
    31  C    0.024095
    32  N    0.123021
    33  C   -0.027273
    34  C   -0.135354
    35  C   -0.065342
    36  C    0.131372
    37  C    0.210261
    38  C    0.045275
    39  O   -0.192333
    40  C    0.039697
    41  C    0.261871
    42  O   -0.187258
    43  O   -0.347037
    44  C    0.188475
    45  C    0.224895
    46  C   -0.071060
    47  C   -0.175654
    48  C    0.053727
    49  C    0.139880
    50  C   -0.059765
    51  C    0.005303
    52  C   -0.057245
    53  C   -0.037856
    54  C   -0.078873
    55  C    0.104514
    56  C    0.127350
    57  C    0.034836
    58  C   -0.064791
    59  C    0.100665
    60  C   -0.115163
    61  C    0.071072
    62  C   -0.098103
    63  C    0.067446
    64  C    0.052469
    65  H    0.000713
    66  H    0.014200
    67  H    0.017783
    68  H   -0.002198
    69  H   -0.013719
    70  H   -0.005786
    71  H   -0.001242
    72  H   -0.013014
    73  H    0.021937
    74  H   -0.015119
    75  H    0.005129
    76  H    0.035186
    77  H    0.020615
    78  H    0.010059
    79  H    0.015700
    80  H   -0.015202
    81  H    0.052157
    82  H    0.025114
    83  H   -0.020964
    84  H    0.038808
    85  H   -0.021580
    86  H    0.017456
    87  H    0.016316
    88  H   -0.001999
    89  H    0.020761
    90  H    0.027503
    91  H    0.014573
    92  H   -0.039282
    93  H    0.027748
    94  H    0.082975
    95  H    0.018856
    96  H    0.010871
    97  H    0.030961
    98  H    0.049409
    99  H    0.037164
   100  H    0.009745
   101  H    0.042032
   102  H    0.025955
   103  H    0.010671
   104  H   -0.008961
   105  H    0.007668
   106  H    0.025813
   107  H    0.017492
   108  H    0.010122
   109  H   -0.004774
   110  H   -0.010035
   111  H    0.007889
   112  H    0.060954
   113  H   -0.000240
   114  H   -0.032494
   115  H   -0.008385
   116  H   -0.043703
   117  H   -0.020154
   118  H   -0.010749
   119  H   -0.035120
   120  H   -0.092297
   121  H    0.030694
   122  H   -0.010606
   123  H    0.033208
   124  H   -0.017684
   125  H   -0.011479
   126  H    0.032079
   127  H   -0.003040
   128  H    0.026800
   129  H   -0.021193
   130  H   -0.031981
   131  H   -0.012637
   132  H   -0.011423
   133  H   -0.001000
   134  H    0.012849
   135  H    0.026129
   136  H   -0.014395
   137  H    0.110645
   138  H    0.072238
 Sum of Mulliken charges =  -0.00000

 Dipole moment (field-independent basis, Debye):
    X=              2.0028    Y=              4.8050    Z=              0.6675  Tot=              5.2483
 Quadrupole moment (field-independent basis, Debye-Ang):
   XX=           -351.3256   YY=           -387.4391   ZZ=           -395.3501
   XY=            -12.3564   XZ=              3.3702   YZ=             -0.6838

 Normal termination of Gaussian 16 at Fri Aug 23 23:28:08 2019.
