 Gaussian 16, Revision A.03,
 Gaussian 16:  ES64L-G16RevA.03 25-Dec-2016

 --------------------------
 # td=(NStates=1) B3LYP/SVP
 --------------------------

 --
 TD
 --
 Symbolic Z-matrix:
 Charge =  0 Multiplicity = 1

                         Standard orientation:
 ---------------------------------------------------------------------
 Center     Atomic      Atomic             Coordinates (Angstroms)
 Number     Number       Type             X           Y           Z
 ---------------------------------------------------------------------
      1          6           0       -5.111502   -1.947069    0.462241
      2          6           0       -4.717425    2.737339    1.561578
      3          6           0       -9.263597    3.386038   -0.210574
      4          6           0       -9.744373   -1.403543   -0.877015
      5          7           0       -5.127661    0.406151    0.774622
      6          6           0       -4.483279   -0.754828    0.824089
      7          6           0       -3.039720   -0.698967    1.223289
      8          6           0       -3.007034    0.777755    1.934242
      9          6           0       -4.320010    1.434105    1.329961
     10          6           0       -3.016048    0.770828    3.366911
     11          6           0       -2.062263   -0.696954    0.054169
     12          6           0       -0.623737   -0.771709    0.573660
     13          6           0        0.337596   -0.929138   -0.641170
     14          8           0        0.040275   -1.170718   -1.800365
     15          8           0        1.610571   -0.896061   -0.215065
     16          7           0       -6.924533    2.727944    0.404005
     17          6           0       -5.837517    3.269549    1.059583
     18          6           0       -6.126687    4.723298    1.091156
     19          6           0       -7.373633    5.027886    0.501541
     20          6           0       -7.952952    3.708837    0.212416
     21          6           0       -5.170024    5.823333    1.484909
     22          6           0       -7.953857    6.281520    0.272123
     23          6           0       -8.968688    6.626048   -0.549680
     24          7           0       -9.195434    0.924460   -0.548804
     25          6           0       -9.851996    2.142385   -0.598552
     26          6           0      -11.224166    1.890806   -0.894252
     27          6           0      -11.403550    0.551276   -1.046091
     28          6           0      -10.065404   -0.047696   -0.835938
     29          6           0      -12.261589    2.919171   -0.999322
     30          6           0      -12.718159   -0.160592   -1.443520
     31          6           0      -12.669565   -0.504775   -2.970147
     32          7           0       -7.532137   -1.358603   -0.276918
     33          6           0       -8.540067   -2.043216   -0.672793
     34          6           0       -8.147292   -3.472300   -0.745380
     35          6           0       -6.841014   -3.505152   -0.187771
     36          6           0       -6.484072   -2.157029   -0.030438
     37          6           0       -9.089561   -4.533398   -1.053310
     38          6           0       -5.669580   -4.338626   -0.008346
     39          8           0       -5.635812   -5.490930   -0.243083
     40          6           0       -4.580836   -3.391705    0.491020
     41          6           0       -3.860150   -3.857203    1.757080
     42          8           0       -4.194035   -3.504009    2.822770
     43          8           0       -2.964741   -4.808335    1.440299
     44          6           0       -2.468525   -5.519274    2.675892
     45          6           0        2.733600   -0.868485   -1.142897
     46          6           0        3.994429   -0.582818   -0.487334
     47          6           0        4.953475    0.145685   -0.994541
     48          6           0        4.776881    0.938372   -2.281505
     49          6           0        6.232161    0.446942   -0.334146
     50          6           0        7.347340   -0.317685   -1.063186
     51          6           0        8.686052   -0.251629   -0.193217
     52          6           0       10.012001   -0.588440   -0.888606
     53          6           0       10.015429   -2.093689   -1.472877
     54          6           0       11.247446   -0.337698    0.051044
     55          6           0       12.640062   -0.299979   -0.728912
     56          6           0       13.667237    0.036709    0.252961
     57          6           0       15.138768   -0.332844   -0.293217
     58          6           0       15.440668   -1.776392   -0.372574
     59          6           0       16.257554    0.524948    0.592082
     60          6           0       17.538503    0.604681   -0.105638
     61          6           0       18.641322    1.359489    0.794251
     62          6           0       20.114643    1.550752    0.150157
     63          6           0       20.057286    2.204198   -1.374374
     64          6           0       20.857252    2.370163    1.163375
     65          1           0       -4.123839    3.397565    1.989576
     66          1           0       -9.877018    4.311094   -0.624075
     67          1           0      -10.588863   -2.231937   -1.136285
     68          1           0       -2.600259   -1.170362    2.124232
     69          1           0       -2.156848    1.449720    1.742098
     70          1           0       -2.159131    0.423016    3.613419
     71          1           0       -2.973798    1.755345    3.820304
     72          1           0       -3.625041   -0.025362    3.657012
     73          1           0       -2.363735   -1.568951   -0.454242
     74          1           0       -2.203394    0.128927   -0.591917
     75          1           0       -0.182097    0.034157    0.876928
     76          1           0       -0.425112   -1.520786    1.158096
     77          1           0       -4.461267    5.914565    0.660434
     78          1           0       -5.682388    6.936011    1.573815
     79          1           0       -4.385164    5.399987    2.378861
     80          1           0       -7.592466    7.006805    0.968325
     81          1           0       -9.361471    6.026826   -1.212921
     82          1           0       -9.703515    7.407414   -0.439091
     83          1           0      -11.944131    3.682428   -0.218861
     84          1           0      -12.040828    3.263446   -2.197404
     85          1           0      -13.299847    2.610355   -0.882051
     86          1           0      -12.728601   -1.105452   -0.845109
     87          1           0      -13.533299    0.515526   -1.013969
     88          1           0      -12.768564    0.446021   -3.433906
     89          1           0      -11.844370   -0.895114   -3.326385
     90          1           0      -13.361311   -1.142349   -3.373074
     91          1           0       -9.820519   -4.950462   -0.106614
     92          1           0       -9.509598   -4.267802   -1.891191
     93          1           0       -8.494795   -5.576433   -1.106295
     94          1           0       -3.827424   -3.508134   -0.421468
     95          1           0       -1.895685   -6.392209    2.313302
     96          1           0       -1.873562   -4.901964    3.240744
     97          1           0       -3.296823   -5.931421    3.341030
     98          1           0        2.887467   -1.909223   -1.899696
     99          1           0        2.417465   -0.214363   -1.865516
    100          1           0        4.246908   -1.327119    0.304447
    101          1           0        5.202314    1.907576   -2.188372
    102          1           0        5.171408    0.492436   -3.255210
    103          1           0        3.773847    0.941174   -2.672077
    104          1           0        6.580742    1.509908   -0.340030
    105          1           0        6.348084    0.140323    0.737776
    106          1           0        6.950997   -1.387975   -1.091178
    107          1           0        7.638958    0.134463   -1.968133
    108          1           0        8.951587    0.862410    0.094992
    109          1           0        8.558974   -0.912264    0.686349
    110          1           0        9.958558    0.287971   -1.564932
    111          1           0        9.019845   -2.260198   -2.094766
    112          1           0       10.691470   -2.287038   -2.317396
    113          1           0       10.340691   -2.968206   -0.665063
    114          1           0       11.079462    0.832323    0.660014
    115          1           0       11.269893   -0.897877    1.088017
    116          1           0       12.765344   -1.300451   -1.113986
    117          1           0       12.547537    0.358275   -1.633564
    118          1           0       13.534218    1.156742    0.221846
    119          1           0       13.606127   -0.452201    1.237113
    120          1           0       15.226561    0.194138   -1.401970
    121          1           0       14.612294   -2.352925   -0.879469
    122          1           0       16.356780   -2.081937   -1.048240
    123          1           0       15.753870   -2.254347    0.547093
    124          1           0       15.848119    1.566718    0.948747
    125          1           0       16.399853   -0.126986    1.381221
    126          1           0       18.092879   -0.343243   -0.420456
    127          1           0       17.327702    1.040118   -1.086909
    128          1           0       18.264352    2.404134    1.012527
    129          1           0       18.462190    0.869163    1.738207
    130          1           0       20.462442    0.446623    0.065614
    131          1           0       19.602862    3.142182   -1.434075
    132          1           0       21.028722    2.375048   -1.566057
    133          1           0       19.535994    1.701619   -2.012726
    134          1           0       20.751993    1.918153    2.340120
    135          1           0       22.014631    2.208208    1.164667
    136          1           0       20.719108    3.358063    1.261697
    137          1           0       -7.401188    1.669546    0.259265
    138          1           0       -7.539002   -0.316370   -0.214465
 ---------------------------------------------------------------------

 SCF Done:  E(RB3LYP) =  -2732.96254287     A.U. after   16 cycles

 Excitation energies and oscillator strengths:

 Excited State   1:      Singlet-A      2.0370 eV  608.66 nm  f=0.1386  <S**2>=0.000
     235 -> 238       -0.34429
     236 -> 237        0.61331
 This state for optimization and/or second-order correction.
 Total Energy, E(TD-HF/TD-DFT) =  -2732.88768420
 Copying the excited state density for this state as the 1-particle RhoCI density.

 The electronic state is 1-A.
 Alpha  occ. eigenvalues --  -19.18403 -19.17676 -19.12755 -19.12061 -19.11955
 Alpha  occ. eigenvalues --  -14.37015 -14.36985 -14.32105 -14.29995 -10.31422
 Alpha  occ. eigenvalues --  -10.31253 -10.27414 -10.25568 -10.24970 -10.24054
 Alpha  occ. eigenvalues --  -10.23759 -10.22989 -10.22830 -10.22703 -10.22572
 Alpha  occ. eigenvalues --  -10.22422 -10.21479 -10.21424 -10.21336 -10.21216
 Alpha  occ. eigenvalues --  -10.21037 -10.21021 -10.20891 -10.20592 -10.20565
 Alpha  occ. eigenvalues --  -10.20552 -10.20503 -10.20203 -10.20180 -10.20152
 Alpha  occ. eigenvalues --  -10.20130 -10.20106 -10.20084 -10.20080 -10.20021
 Alpha  occ. eigenvalues --  -10.19996 -10.19358 -10.19178 -10.19050 -10.19042
 Alpha  occ. eigenvalues --  -10.19007 -10.18841 -10.18679 -10.18652 -10.18643
 Alpha  occ. eigenvalues --  -10.18438 -10.18352 -10.18343 -10.18322 -10.18279
 Alpha  occ. eigenvalues --  -10.18210 -10.18078 -10.17934 -10.17714 -10.17643
 Alpha  occ. eigenvalues --  -10.17535 -10.16130 -10.16058 -10.15974  -1.09936
 Alpha  occ. eigenvalues --   -1.08850  -1.04878  -1.01868  -1.01135  -0.99638
 Alpha  occ. eigenvalues --   -0.95667  -0.93566  -0.92994  -0.84974  -0.83802
 Alpha  occ. eigenvalues --   -0.82121  -0.81844  -0.81285  -0.81161  -0.79963
 Alpha  occ. eigenvalues --   -0.79894  -0.79626  -0.79258  -0.78626  -0.78383
 Alpha  occ. eigenvalues --   -0.76986  -0.76223  -0.75794  -0.75529  -0.74299
 Alpha  occ. eigenvalues --   -0.73699  -0.73168  -0.72688  -0.71968  -0.71072
 Alpha  occ. eigenvalues --   -0.70122  -0.69461  -0.69299  -0.68424  -0.67925
 Alpha  occ. eigenvalues --   -0.67472  -0.66018  -0.65935  -0.65581  -0.64972
 Alpha  occ. eigenvalues --   -0.64379  -0.63448  -0.63172  -0.62397  -0.62206
 Alpha  occ. eigenvalues --   -0.61004  -0.58550  -0.58493  -0.57897  -0.57450
 Alpha  occ. eigenvalues --   -0.56753  -0.56470  -0.56143  -0.55907  -0.55499
 Alpha  occ. eigenvalues --   -0.55017  -0.54588  -0.54227  -0.53560  -0.53228
 Alpha  occ. eigenvalues --   -0.52943  -0.52150  -0.51557  -0.51150  -0.50466
 Alpha  occ. eigenvalues --   -0.49880  -0.49382  -0.49069  -0.48975  -0.48685
 Alpha  occ. eigenvalues --   -0.48198  -0.47832  -0.47650  -0.47486  -0.46962
 Alpha  occ. eigenvalues --   -0.46798  -0.46703  -0.46410  -0.46313  -0.46059
 Alpha  occ. eigenvalues --   -0.45518  -0.45252  -0.45018  -0.44785  -0.44694
 Alpha  occ. eigenvalues --   -0.44560  -0.44328  -0.44202  -0.44087  -0.43986
 Alpha  occ. eigenvalues --   -0.43665  -0.43419  -0.43080  -0.42848  -0.42644
 Alpha  occ. eigenvalues --   -0.42476  -0.42390  -0.42104  -0.41983  -0.41634
 Alpha  occ. eigenvalues --   -0.41336  -0.41186  -0.41146  -0.40674  -0.40396
 Alpha  occ. eigenvalues --   -0.40157  -0.39996  -0.39934  -0.39855  -0.39546
 Alpha  occ. eigenvalues --   -0.39496  -0.39221  -0.39098  -0.38463  -0.38233
 Alpha  occ. eigenvalues --   -0.38178  -0.37985  -0.37803  -0.37767  -0.37569
 Alpha  occ. eigenvalues --   -0.37341  -0.37241  -0.37148  -0.37031  -0.37021
 Alpha  occ. eigenvalues --   -0.36885  -0.36572  -0.36402  -0.36341  -0.35980
 Alpha  occ. eigenvalues --   -0.35747  -0.35625  -0.35215  -0.35181  -0.34939
 Alpha  occ. eigenvalues --   -0.34394  -0.34336  -0.34205  -0.34004  -0.33786
 Alpha  occ. eigenvalues --   -0.33639  -0.33513  -0.33405  -0.33351  -0.32370
 Alpha  occ. eigenvalues --   -0.32242  -0.31938  -0.31746  -0.31407  -0.30640
 Alpha  occ. eigenvalues --   -0.30573  -0.30494  -0.30261  -0.30050  -0.29873
 Alpha  occ. eigenvalues --   -0.29792  -0.29353  -0.28568  -0.27978  -0.27298
 Alpha  occ. eigenvalues --   -0.26835  -0.26725  -0.26522  -0.26112  -0.25376
 Alpha  occ. eigenvalues --   -0.25171  -0.24859  -0.23077  -0.22165  -0.19409
 Alpha  occ. eigenvalues --   -0.18816
 Alpha virt. eigenvalues --   -0.10101  -0.07931  -0.04144  -0.02394  -0.00732
 Alpha virt. eigenvalues --    0.00126   0.01014   0.01189   0.02662   0.03409
 Alpha virt. eigenvalues --    0.03415   0.03975   0.04438   0.04683   0.04823

 Mulliken charges:
               1
     1  C    0.118754
     2  C   -0.029632
     3  C   -0.101682
     4  C   -0.122259
     5  N   -0.180938
     6  C   -0.089708
     7  C   -0.090983
     8  C   -0.146564
     9  C    0.055374
    10  C    0.267655
    11  C    0.176842
    12  C    0.200748
    13  C    0.130133
    14  O   -0.243192
    15  O   -0.323109
    16  N   -0.179137
    17  C    0.209116
    18  C   -0.137478
    19  C    0.097050
    20  C    0.045000
    21  C   -0.009249
    22  C   -0.047126
    23  C    0.012706
    24  N   -0.267455
    25  C    0.049608
    26  C   -0.115126
    27  C   -0.123517
    28  C    0.076081
    29  C    0.033174
    30  C    0.061950
    31  C    0.137434
    32  N    0.068877
    33  C   -0.026929
    34  C   -0.109563
    35  C   -0.021965
    36  C   -0.008216
    37  C    0.049955
    38  C    0.041818
    39  O   -0.118729
    40  C   -0.085679
    41  C    0.195305
    42  O   -0.183186
    43  O   -0.316674
    44  C    0.194932
    45  C    0.262128
    46  C   -0.081617
    47  C   -0.090364
    48  C    0.086709
    49  C    0.068564
    50  C    0.016474
    51  C   -0.039268
    52  C   -0.004969
    53  C   -0.032616
    54  C   -0.125454
    55  C    0.081196
    56  C    0.060854
    57  C   -0.150184
    58  C    0.027016
    59  C    0.064309
    60  C   -0.001368
    61  C   -0.002625
    62  C   -0.086764
    63  C    0.157976
    64  C    0.013320
    65  H   -0.116830
    66  H    0.017894
    67  H    0.015559
    68  H    0.005166
    69  H   -0.028834
    70  H   -0.072182
    71  H    0.000856
    72  H   -0.006879
    73  H   -0.013819
    74  H   -0.004517
    75  H   -0.037601
    76  H   -0.025061
    77  H    0.036116
    78  H    0.058263
    79  H    0.046223
    80  H   -0.018861
    81  H   -0.024824
    82  H    0.020189
    83  H    0.040702
    84  H    0.049378
    85  H    0.017088
    86  H    0.001158
    87  H    0.013782
    88  H   -0.008089
    89  H   -0.036807
    90  H   -0.018050
    91  H    0.059013
    92  H   -0.001708
    93  H    0.049482
    94  H    0.077345
    95  H    0.040252
    96  H    0.015351
    97  H    0.050641
    98  H    0.041111
    99  H   -0.022866
   100  H   -0.000007
   101  H    0.011355
   102  H    0.023684
   103  H   -0.012682
   104  H    0.002911
   105  H   -0.000635
   106  H    0.022297
   107  H   -0.011250
   108  H    0.006212
   109  H   -0.003270
   110  H   -0.007544
   111  H    0.023738
   112  H    0.011369
   113  H    0.043628
   114  H   -0.014908
   115  H    0.016977
   116  H   -0.018495
   117  H    0.005991
   118  H    0.005217
   119  H    0.004913
   120  H   -0.002823
   121  H    0.014248
   122  H    0.015539
   123  H    0.004555
   124  H    0.017182
   125  H   -0.031766
   126  H   -0.003165
   127  H   -0.018017
   128  H   -0.013722
   129  H   -0.012398
   130  H    0.013071
   131  H   -0.020741
   132  H   -0.016473
   133  H   -0.029384
   134  H    0.010324
   135  H    0.007714
   136  H   -0.007227
   137  H    0.225686
   138  H    0.151522
 Sum of Mulliken charges =  -0.00000

 Dipole moment (field-independent basis, Debye):
    X=              3.7635    Y=              2.9406    Z=              0.9837  Tot=              4.8764
 Quadrupole moment (field-independent basis, Debye-Ang):
   XX=           -360.2939   YY=           -380.0781   ZZ=           -393.6395
   XY=            -17.1501   XZ=              1.9620   YZ=             -6.1218

 Normal termination of Gaussian 16 at Thu Aug 15 01:59:00 2019.
