 Gaussian 16, Revision A.03,
 Gaussian 16:  ES64L-G16RevA.03 25-Dec-2016

 --------------------------
 # td=(NStates=1) B3LYP/SVP
 --------------------------

 --
 TD
 --
 Symbolic Z-matrix:
 Charge =  0 Multiplicity = 1

                         Standard orientation:
 ---------------------------------------------------------------------
 Center     Atomic      Atomic             Coordinates (Angstroms)
 Number     Number       Type             X           Y           Z
 ---------------------------------------------------------------------
      1          6           0       -5.184386   -1.956772    0.485400
      2          6           0       -4.685681    2.831020    1.447512
      3          6           0       -9.210014    3.387829   -0.311907
      4          6           0       -9.846500   -1.343105   -0.936821
      5          7           0       -5.284549    0.475301    0.934522
      6          6           0       -4.552738   -0.698534    0.876276
      7          6           0       -3.147048   -0.563061    1.203596
      8          6           0       -3.027750    0.886785    1.789854
      9          6           0       -4.445393    1.397614    1.446337
     10          6           0       -2.785216    0.962627    3.363719
     11          6           0       -2.168684   -0.804931    0.097364
     12          6           0       -0.679005   -0.856430    0.560894
     13          6           0        0.355793   -1.078932   -0.577011
     14          8           0        0.091928   -1.241426   -1.769018
     15          8           0        1.624716   -0.829456   -0.147781
     16          7           0       -6.995361    2.716205    0.485166
     17          6           0       -5.852390    3.378906    0.958789
     18          6           0       -6.226678    4.780960    1.019934
     19          6           0       -7.461037    4.984851    0.516000
     20          6           0       -7.982416    3.631658    0.242923
     21          6           0       -5.253020    5.918037    1.487784
     22          6           0       -8.151323    6.342016    0.459532
     23          6           0       -9.066742    6.655250   -0.526341
     24          7           0       -9.153291    0.942474   -0.627403
     25          6           0       -9.824565    2.172527   -0.621908
     26          6           0      -11.184204    1.969655   -1.034843
     27          6           0      -11.393040    0.609621   -1.144272
     28          6           0      -10.129240    0.024343   -0.977683
     29          6           0      -12.164470    3.007762   -1.218168
     30          6           0      -12.623252   -0.105747   -1.634231
     31          6           0      -12.582880   -0.219073   -3.200636
     32          7           0       -7.569474   -1.204226   -0.207877
     33          6           0       -8.650974   -2.018090   -0.769153
     34          6           0       -8.239124   -3.406369   -0.680882
     35          6           0       -6.927666   -3.453414   -0.230771
     36          6           0       -6.521955   -2.092429    0.150030
     37          6           0       -9.293527   -4.550347   -1.061460
     38          6           0       -5.789821   -4.423897   -0.095208
     39          8           0       -5.640112   -5.571298   -0.230257
     40          6           0       -4.611037   -3.457699    0.408949
     41          6           0       -4.063734   -3.904080    1.810445
     42          8           0       -4.299849   -3.362156    2.801209
     43          8           0       -3.243167   -4.907398    1.621106
     44          6           0       -2.665220   -5.471441    2.826500
     45          6           0        2.568757   -1.146180   -0.975526
     46          6           0        3.952151   -0.741651   -0.437741
     47          6           0        4.990366   -0.074203   -0.900051
     48          6           0        4.822630    0.649938   -2.286161
     49          6           0        6.319524   -0.015184   -0.208042
     50          6           0        7.510605   -0.772202   -0.967976
     51          6           0        8.802469   -0.553755   -0.051564
     52          6           0       10.133517   -0.944528   -0.694380
     53          6           0       10.083026   -2.388289   -1.150318
     54          6           0       11.392424   -0.554475    0.044230
     55          6           0       12.758685   -0.677333   -0.528967
     56          6           0       13.917673   -0.181778    0.287236
     57          6           0       15.243701   -0.063969   -0.307627
     58          6           0       15.834168   -1.536026   -0.647926
     59          6           0       16.248970    0.699976    0.503735
     60          6           0       17.682714    0.978890   -0.074541
     61          6           0       18.697908    1.754976    0.570671
     62          6           0       20.086664    1.810420    0.058150
     63          6           0       20.072990    2.276717   -1.375763
     64          6           0       20.901434    2.709115    0.950169
     65          1           0       -3.820281    3.475441    1.712708
     66          1           0       -9.777464    4.473696   -0.334580
     67          1           0      -10.709540   -2.040506   -1.275168
     68          1           0       -2.736316   -1.375856    2.005478
     69          1           0       -2.178235    1.672131    1.349845
     70          1           0       -1.762866    0.613286    3.672864
     71          1           0       -2.780144    1.923944    3.889923
     72          1           0       -3.418524    0.279928    3.865363
     73          1           0       -2.517833   -1.709087   -0.357163
     74          1           0       -2.216394    0.083351   -0.581970
     75          1           0       -0.243353   -0.001617    1.147024
     76          1           0       -0.660819   -1.832677    1.138210
     77          1           0       -4.372531    6.133930    0.980628
     78          1           0       -5.774130    6.996835    1.601884
     79          1           0       -4.789443    5.637927    2.513608
     80          1           0       -7.711514    7.153461    0.921744
     81          1           0       -9.531136    5.925039   -1.026881
     82          1           0       -9.605040    7.473080   -0.504139
     83          1           0      -12.815361    3.408477   -0.275922
     84          1           0      -11.551537    3.845183   -1.564712
     85          1           0      -13.112514    2.841888   -1.855088
     86          1           0      -12.462356   -1.226665   -1.296085
     87          1           0      -13.469512    0.512774   -1.340328
     88          1           0      -12.527978    0.713798   -3.768506
     89          1           0      -11.480721   -0.557950   -3.511689
     90          1           0      -13.442829   -0.953530   -3.579697
     91          1           0      -10.145690   -4.388897   -0.329763
     92          1           0       -9.411280   -4.472077   -2.041894
     93          1           0       -8.698670   -5.626272   -0.806508
     94          1           0       -3.730447   -3.543919   -0.265679
     95          1           0       -1.971213   -6.119801    2.604253
     96          1           0       -2.305961   -4.613847    3.415990
     97          1           0       -3.359076   -5.973549    3.234401
     98          1           0        2.727128   -2.286024   -1.052007
     99          1           0        2.410755   -0.754987   -2.005280
    100          1           0        3.954176   -1.053993    0.501193
    101          1           0        5.505423    1.616626   -2.305591
    102          1           0        5.410970    0.110073   -3.163613
    103          1           0        3.572071    0.816373   -2.555292
    104          1           0        6.665715    1.116333   -0.120767
    105          1           0        6.368975   -0.622199    0.658517
    106          1           0        7.306624   -1.974958   -1.034838
    107          1           0        7.685181   -0.507063   -1.986082
    108          1           0        8.912011    0.408520    0.002164
    109          1           0        8.576652   -1.032190    0.931920
    110          1           0       10.245868   -0.470587   -1.740504
    111          1           0        9.299046   -2.507488   -2.070942
    112          1           0       10.994066   -2.539754   -1.676482
    113          1           0        9.832265   -3.310333   -0.429241
    114          1           0       11.252280    0.434838    0.524857
    115          1           0       11.681765   -1.197832    0.969924
    116          1           0       13.026616   -1.620444   -0.982375
    117          1           0       13.138299   -0.096578   -1.510490
    118          1           0       13.693136    0.843569    0.669198
    119          1           0       14.048792   -0.649676    1.213767
    120          1           0       15.227738    0.529936   -1.327923
    121          1           0       15.078720   -2.179372   -1.212165
    122          1           0       16.699228   -1.546461   -1.313881
    123          1           0       15.947331   -1.984036    0.343304
    124          1           0       15.802856    1.460238    0.858016
    125          1           0       16.343848    0.074081    1.438445
    126          1           0       18.208231   -0.063366   -0.608914
    127          1           0       17.451068    1.460940   -1.065681
    128          1           0       18.501959    2.869568    0.404884
    129          1           0       18.669007    1.681486    1.709850
    130          1           0       20.548781    0.684481    0.028955
    131          1           0       19.637658    3.356258   -1.517111
    132          1           0       21.291508    2.236019   -1.717816
    133          1           0       19.496579    1.688559   -2.080229
    134          1           0       21.023798    2.306526    1.991814
    135          1           0       21.999615    2.939663    0.665532
    136          1           0       20.472990    3.881186    1.001777
    137          1           0       -7.166398    1.622603    0.334017
    138          1           0       -7.613646   -0.288245   -0.030908
 ---------------------------------------------------------------------

 SCF Done:  E(RB3LYP) =  -2733.00915634     A.U. after   17 cycles

 Excitation energies and oscillator strengths:

 Excited State   1:      Singlet-A      2.0644 eV  600.58 nm  f=0.0874  <S**2>=0.000
     235 -> 238       -0.37045
     236 -> 237        0.59035
 This state for optimization and/or second-order correction.
 Total Energy, E(TD-HF/TD-DFT) =  -2732.93329034
 Copying the excited state density for this state as the 1-particle RhoCI density.

 The electronic state is 1-A.
 Alpha  occ. eigenvalues --  -19.18998 -19.17935 -19.13470 -19.13363 -19.12586
 Alpha  occ. eigenvalues --  -14.37270 -14.35767 -14.33529 -14.29315 -10.32848
 Alpha  occ. eigenvalues --  -10.31098 -10.28665 -10.24573 -10.24188 -10.24093
 Alpha  occ. eigenvalues --  -10.23886 -10.23759 -10.23532 -10.23328 -10.22861
 Alpha  occ. eigenvalues --  -10.22578 -10.22408 -10.22266 -10.21782 -10.21357
 Alpha  occ. eigenvalues --  -10.21356 -10.21333 -10.21114 -10.21029 -10.21023
 Alpha  occ. eigenvalues --  -10.20903 -10.20749 -10.20678 -10.20561 -10.20342
 Alpha  occ. eigenvalues --  -10.20294 -10.20123 -10.20116 -10.20110 -10.20023
 Alpha  occ. eigenvalues --  -10.20015 -10.20006 -10.19873 -10.19851 -10.19827
 Alpha  occ. eigenvalues --  -10.19806 -10.19779 -10.19621 -10.19594 -10.19476
 Alpha  occ. eigenvalues --  -10.19420 -10.19314 -10.19179 -10.18838 -10.18751
 Alpha  occ. eigenvalues --  -10.18206 -10.18183 -10.18034 -10.17767 -10.17700
 Alpha  occ. eigenvalues --  -10.17513 -10.17413 -10.17352 -10.16980  -1.13054
 Alpha  occ. eigenvalues --   -1.11751  -1.06220  -1.03271  -1.01679  -0.97273
 Alpha  occ. eigenvalues --   -0.95536  -0.94708  -0.92257  -0.83408  -0.83365
 Alpha  occ. eigenvalues --   -0.82463  -0.82191  -0.81644  -0.81342  -0.80781
 Alpha  occ. eigenvalues --   -0.80670  -0.79617  -0.78903  -0.78523  -0.77828
 Alpha  occ. eigenvalues --   -0.76899  -0.76668  -0.76058  -0.75169  -0.74368
 Alpha  occ. eigenvalues --   -0.73896  -0.73406  -0.72484  -0.71638  -0.70199
 Alpha  occ. eigenvalues --   -0.69994  -0.69467  -0.68465  -0.67759  -0.67256
 Alpha  occ. eigenvalues --   -0.67075  -0.66894  -0.66837  -0.66104  -0.65501
 Alpha  occ. eigenvalues --   -0.64307  -0.63427  -0.62801  -0.61846  -0.61342
 Alpha  occ. eigenvalues --   -0.60724  -0.59674  -0.58678  -0.58232  -0.57537
 Alpha  occ. eigenvalues --   -0.57368  -0.56944  -0.56414  -0.55878  -0.55432
 Alpha  occ. eigenvalues --   -0.54789  -0.54682  -0.54353  -0.53831  -0.53699
 Alpha  occ. eigenvalues --   -0.52852  -0.51914  -0.51605  -0.51417  -0.51270
 Alpha  occ. eigenvalues --   -0.50570  -0.49418  -0.49215  -0.49040  -0.48607
 Alpha  occ. eigenvalues --   -0.48452  -0.48292  -0.48111  -0.47937  -0.47508
 Alpha  occ. eigenvalues --   -0.47363  -0.46938  -0.46535  -0.46258  -0.46089
 Alpha  occ. eigenvalues --   -0.45988  -0.45419  -0.45347  -0.45213  -0.45195
 Alpha  occ. eigenvalues --   -0.44861  -0.44563  -0.44428  -0.44096  -0.43895
 Alpha  occ. eigenvalues --   -0.43786  -0.43690  -0.43079  -0.42855  -0.42723
 Alpha  occ. eigenvalues --   -0.42442  -0.41983  -0.41590  -0.41419  -0.41394
 Alpha  occ. eigenvalues --   -0.41254  -0.40957  -0.40888  -0.40750  -0.40614
 Alpha  occ. eigenvalues --   -0.40370  -0.39984  -0.39764  -0.39640  -0.39607
 Alpha  occ. eigenvalues --   -0.39399  -0.39221  -0.38577  -0.38556  -0.38088
 Alpha  occ. eigenvalues --   -0.38008  -0.37714  -0.37540  -0.37468  -0.37293
 Alpha  occ. eigenvalues --   -0.37124  -0.36851  -0.36750  -0.36739  -0.36570
 Alpha  occ. eigenvalues --   -0.36221  -0.35999  -0.35941  -0.35861  -0.35841
 Alpha  occ. eigenvalues --   -0.35387  -0.35195  -0.35062  -0.34870  -0.34780
 Alpha  occ. eigenvalues --   -0.34516  -0.34385  -0.34224  -0.34123  -0.33925
 Alpha  occ. eigenvalues --   -0.33825  -0.33377  -0.33030  -0.32861  -0.32755
 Alpha  occ. eigenvalues --   -0.32261  -0.32081  -0.31848  -0.31796  -0.31508
 Alpha  occ. eigenvalues --   -0.31340  -0.30911  -0.30869  -0.30752  -0.30557
 Alpha  occ. eigenvalues --   -0.29925  -0.28800  -0.28757  -0.28735  -0.28289
 Alpha  occ. eigenvalues --   -0.28213  -0.27906  -0.26800  -0.26467  -0.26074
 Alpha  occ. eigenvalues --   -0.25416  -0.24503  -0.24493  -0.21571  -0.19866
 Alpha  occ. eigenvalues --   -0.18766
 Alpha virt. eigenvalues --   -0.09630  -0.08511  -0.04843  -0.02587  -0.01806
 Alpha virt. eigenvalues --    0.00067   0.00772   0.00920   0.02277   0.03286
 Alpha virt. eigenvalues --    0.03822   0.03886   0.04266   0.04415   0.04613

 Mulliken charges:
               1
     1  C   -0.003522
     2  C   -0.103712
     3  C   -0.133199
     4  C   -0.080052
     5  N   -0.176264
     6  C    0.017590
     7  C   -0.063549
     8  C   -0.123609
     9  C    0.041347
    10  C    0.056254
    11  C    0.083666
    12  C    0.005122
    13  C    0.174791
    14  O   -0.233155
    15  O   -0.233338
    16  N   -0.132639
    17  C    0.165077
    18  C   -0.099195
    19  C    0.012374
    20  C    0.036524
    21  C    0.041092
    22  C    0.002740
    23  C    0.074345
    24  N   -0.297259
    25  C    0.112451
    26  C   -0.057966
    27  C   -0.107048
    28  C    0.070132
    29  C   -0.004150
    30  C    0.081999
    31  C   -0.047554
    32  N   -0.074744
    33  C    0.086687
    34  C   -0.160545
    35  C   -0.079420
    36  C    0.112375
    37  C    0.089023
    38  C    0.127805
    39  O   -0.097080
    40  C   -0.122125
    41  C    0.157335
    42  O   -0.170085
    43  O   -0.299477
    44  C    0.332654
    45  C    0.239928
    46  C   -0.094662
    47  C   -0.063158
    48  C   -0.057167
    49  C    0.092112
    50  C   -0.082425
    51  C    0.139147
    52  C   -0.052180
    53  C   -0.029524
    54  C    0.075845
    55  C    0.035706
    56  C    0.062788
    57  C   -0.150979
    58  C    0.016822
    59  C    0.171055
    60  C   -0.005008
    61  C    0.039124
    62  C   -0.082726
    63  C   -0.038318
    64  C   -0.025530
    65  H   -0.007271
    66  H    0.029868
    67  H   -0.000336
    68  H    0.033262
    69  H    0.037597
    70  H    0.001211
    71  H    0.012287
    72  H    0.016783
    73  H    0.004948
    74  H    0.014746
    75  H    0.055377
    76  H    0.032577
    77  H    0.012567
    78  H    0.033564
    79  H    0.023758
    80  H   -0.029221
    81  H   -0.017752
    82  H   -0.019164
    83  H    0.027722
    84  H    0.021154
    85  H    0.019330
    86  H    0.023913
    87  H    0.009793
    88  H    0.008868
    89  H    0.017503
    90  H    0.037691
    91  H    0.061391
    92  H    0.013935
    93  H    0.059785
    94  H    0.055016
    95  H   -0.019454
    96  H    0.031328
    97  H   -0.031273
    98  H    0.012335
    99  H    0.004585
   100  H   -0.068529
   101  H    0.017980
   102  H    0.036992
   103  H    0.065069
   104  H    0.025641
   105  H   -0.010301
   106  H    0.024073
   107  H   -0.004668
   108  H   -0.058079
   109  H    0.009081
   110  H   -0.001646
   111  H    0.013015
   112  H   -0.007856
   113  H    0.028177
   114  H   -0.010801
   115  H   -0.001048
   116  H   -0.015708
   117  H   -0.029518
   118  H   -0.023219
   119  H   -0.045817
   120  H   -0.003223
   121  H    0.004823
   122  H    0.018716
   123  H    0.004072
   124  H   -0.085373
   125  H   -0.026813
   126  H    0.004939
   127  H   -0.008437
   128  H   -0.017433
   129  H   -0.003207
   130  H    0.010166
   131  H    0.016840
   132  H    0.026350
   133  H    0.019991
   134  H    0.020458
   135  H    0.014412
   136  H    0.021157
   137  H    0.217401
   138  H    0.061359
 Sum of Mulliken charges =  -0.00000

 Dipole moment (field-independent basis, Debye):
    X=              2.3892    Y=              2.7290    Z=              2.5774  Tot=              4.4496
 Quadrupole moment (field-independent basis, Debye-Ang):
   XX=           -379.2570   YY=           -374.5045   ZZ=           -398.7780
   XY=            -13.9650   XZ=              8.4182   YZ=             -4.7795

 Normal termination of Gaussian 16 at Sun Aug 11 14:53:02 2019.
