 Gaussian 16, Revision A.03,
 Gaussian 16:  ES64L-G16RevA.03 25-Dec-2016

 --------------------------
 # td=(NStates=1) B3LYP/SVP
 --------------------------

 --
 TD
 --
 Symbolic Z-matrix:
 Charge =  0 Multiplicity = 1

                         Standard orientation:
 ---------------------------------------------------------------------
 Center     Atomic      Atomic             Coordinates (Angstroms)
 Number     Number       Type             X           Y           Z
 ---------------------------------------------------------------------
      1          6           0       -5.131138   -1.954131    0.418792
      2          6           0       -4.721212    2.746959    1.558491
      3          6           0       -9.262939    3.373380   -0.246175
      4          6           0       -9.869560   -1.423681   -1.038770
      5          7           0       -5.179871    0.353060    0.745490
      6          6           0       -4.567734   -0.818449    0.879326
      7          6           0       -3.064783   -0.670940    1.317078
      8          6           0       -3.121377    0.725604    1.955708
      9          6           0       -4.453018    1.362214    1.508392
     10          6           0       -2.975243    0.648217    3.505735
     11          6           0       -2.095836   -0.820191    0.118937
     12          6           0       -0.624609   -0.728118    0.557269
     13          6           0        0.381142   -0.985307   -0.533121
     14          8           0        0.105271   -1.259952   -1.695757
     15          8           0        1.643596   -0.851748   -0.047630
     16          7           0       -7.035064    2.789341    0.595151
     17          6           0       -5.913154    3.442121    1.118937
     18          6           0       -6.185609    4.836302    1.109916
     19          6           0       -7.369089    5.013747    0.570072
     20          6           0       -7.926034    3.749488    0.258896
     21          6           0       -5.218282    5.866886    1.561653
     22          6           0       -8.134209    6.364380    0.439295
     23          6           0       -9.036523    6.654935   -0.351130
     24          7           0       -9.129877    0.878618   -0.495215
     25          6           0       -9.813563    2.122971   -0.551005
     26          6           0      -11.231758    1.954502   -1.039215
     27          6           0      -11.365344    0.610402   -1.256857
     28          6           0      -10.106748    0.017152   -0.919421
     29          6           0      -12.180950    3.079186   -1.338535
     30          6           0      -12.588773   -0.148640   -1.770162
     31          6           0      -12.696205   -0.241766   -3.294419
     32          7           0       -7.442740   -1.282539   -0.254243
     33          6           0       -8.591994   -1.978739   -0.861018
     34          6           0       -8.191852   -3.403991   -0.829481
     35          6           0       -6.851575   -3.507816   -0.466201
     36          6           0       -6.448179   -2.181935   -0.108441
     37          6           0       -9.056773   -4.522230   -1.181551
     38          6           0       -5.743425   -4.413806   -0.075925
     39          8           0       -5.694537   -5.635776   -0.171982
     40          6           0       -4.571925   -3.407354    0.450446
     41          6           0       -3.895245   -3.885812    1.734991
     42          8           0       -4.215764   -3.479785    2.892450
     43          8           0       -3.035728   -4.894355    1.404248
     44          6           0       -2.504759   -5.543007    2.597302
     45          6           0        2.685780   -1.135327   -1.009405
     46          6           0        3.961057   -0.769280   -0.382572
     47          6           0        4.921394    0.124597   -0.821755
     48          6           0        4.891528    0.837247   -2.259638
     49          6           0        6.221618    0.411272   -0.054120
     50          6           0        7.364125   -0.390760   -0.628962
     51          6           0        8.733859   -0.130882    0.095168
     52          6           0        9.989678   -0.780399   -0.524970
     53          6           0        9.863229   -2.285294   -0.570885
     54          6           0       11.384580   -0.274569    0.153781
     55          6           0       12.681793   -0.695726   -0.586463
     56          6           0       13.852657   -0.089400    0.118917
     57          6           0       15.319249   -0.275164   -0.531064
     58          6           0       15.578813   -1.767710   -0.428114
     59          6           0       16.288756    0.519132    0.218290
     60          6           0       17.747251    0.581532   -0.327772
     61          6           0       18.558466    1.753701    0.389125
     62          6           0       19.999508    1.789748   -0.115154
     63          6           0       20.107422    2.304750   -1.545076
     64          6           0       20.940187    2.642745    0.827031
     65          1           0       -4.090298    3.376588    2.013890
     66          1           0       -9.804838    4.172587   -0.470825
     67          1           0      -10.651774   -2.131664   -1.536047
     68          1           0       -2.706399   -1.539694    1.970441
     69          1           0       -2.334467    1.396910    1.565538
     70          1           0       -2.010352    0.015073    3.920944
     71          1           0       -3.136005    1.558292    3.919417
     72          1           0       -3.833614   -0.035111    3.851541
     73          1           0       -1.877997   -1.785215   -0.374987
     74          1           0       -2.584255   -0.402389   -0.838920
     75          1           0       -0.377613    0.298644    0.995193
     76          1           0       -0.569335   -1.649569    1.236253
     77          1           0       -4.173121    6.011221    0.914712
     78          1           0       -5.497012    6.950916    1.717613
     79          1           0       -5.014528    5.387909    2.651030
     80          1           0       -7.750461    6.949876    1.199314
     81          1           0       -9.412564    5.798231   -1.018157
     82          1           0       -9.680816    7.621911   -0.450278
     83          1           0      -12.273422    3.933335   -0.353302
     84          1           0      -11.732265    3.781980   -2.235219
     85          1           0      -13.143462    2.960511   -1.599731
     86          1           0      -12.574838   -1.046550   -1.313428
     87          1           0      -13.446414    0.448138   -1.559120
     88          1           0      -12.738449    0.767976   -3.836458
     89          1           0      -11.840932   -0.940974   -3.963996
     90          1           0      -13.552173   -0.960150   -3.778020
     91          1           0       -9.936464   -4.402911   -0.643862
     92          1           0       -9.213233   -4.538767   -2.153614
     93          1           0       -8.562046   -5.536152   -0.853399
     94          1           0       -3.796872   -3.498473   -0.308896
     95          1           0       -1.787967   -5.936347    2.121499
     96          1           0       -2.095428   -5.038354    3.400186
     97          1           0       -3.234817   -6.191429    2.827561
     98          1           0        2.650609   -2.224849   -1.301421
     99          1           0        2.312289   -0.530651   -1.858512
    100          1           0        4.187620   -1.383390    0.573869
    101          1           0        5.026461    1.903119   -2.018376
    102          1           0        5.597940    0.812015   -3.215107
    103          1           0        3.965933    0.896379   -2.854499
    104          1           0        6.319447    1.469307   -0.139701
    105          1           0        6.011769    0.112523    0.969884
    106          1           0        7.091811   -1.615751   -0.755278
    107          1           0        7.419578   -0.147263   -1.769598
    108          1           0        8.871846    1.046370    0.089792
    109          1           0        8.880473   -0.572267    1.218181
    110          1           0       10.057142   -0.467782   -1.545805
    111          1           0        9.025565   -2.197392   -1.123243
    112          1           0       10.714286   -2.904354   -1.151511
    113          1           0        9.617867   -2.835920    0.427315
    114          1           0       11.543710    0.722076    0.364812
    115          1           0       11.430332   -0.444530    1.285399
    116          1           0       12.937407   -1.756148   -0.741311
    117          1           0       12.582638   -0.184318   -1.545731
    118          1           0       13.798957    1.075585    0.385002
    119          1           0       13.989060   -0.679047    1.043262
    120          1           0       15.224226    0.038344   -1.623143
    121          1           0       15.003823   -2.206515   -1.238491
    122          1           0       16.610505   -1.981061   -0.918722
    123          1           0       15.325964   -1.979113    0.738892
    124          1           0       16.010172    1.616653    0.218437
    125          1           0       16.289820    0.095566    1.335474
    126          1           0       18.394824   -0.314685   -0.020783
    127          1           0       17.684082    0.769628   -1.297348
    128          1           0       17.918474    2.820337    0.252773
    129          1           0       18.572188    1.503988    1.508283
    130          1           0       20.327108    0.656482   -0.410956
    131          1           0       19.958748    3.260150   -1.627142
    132          1           0       21.063031    1.987551   -1.879541
    133          1           0       19.306458    1.757564   -2.154452
    134          1           0       20.949091    2.154589    1.799741
    135          1           0       21.952371    2.689418    0.489300
    136          1           0       20.497200    3.593205    0.902179
    137          1           0       -7.038976    1.878792    0.487807
    138          1           0       -7.333523   -0.243852   -0.002551
 ---------------------------------------------------------------------

 SCF Done:  E(RB3LYP) =  -2732.99598970     A.U. after   17 cycles

 Excitation energies and oscillator strengths:

 Excited State   1:      Singlet-A      1.9846 eV  624.73 nm  f=0.1542  <S**2>=0.000
     235 -> 237       -0.16767
     235 -> 238       -0.27024
     236 -> 237        0.61739
     236 -> 238       -0.11859
 This state for optimization and/or second-order correction.
 Total Energy, E(TD-HF/TD-DFT) =  -2732.92305682
 Copying the excited state density for this state as the 1-particle RhoCI density.

 The electronic state is 1-A.
 Alpha  occ. eigenvalues --  -19.18753 -19.17644 -19.13075 -19.12749 -19.12549
 Alpha  occ. eigenvalues --  -14.36758 -14.36583 -14.32424 -14.30638 -10.31963
 Alpha  occ. eigenvalues --  -10.31663 -10.29100 -10.24865 -10.24418 -10.23773
 Alpha  occ. eigenvalues --  -10.23722 -10.23601 -10.23380 -10.22575 -10.22341
 Alpha  occ. eigenvalues --  -10.22336 -10.22312 -10.21922 -10.21858 -10.21800
 Alpha  occ. eigenvalues --  -10.21745 -10.21545 -10.21435 -10.21409 -10.21388
 Alpha  occ. eigenvalues --  -10.21377 -10.20850 -10.20675 -10.20467 -10.20446
 Alpha  occ. eigenvalues --  -10.20214 -10.19856 -10.19815 -10.19752 -10.19662
 Alpha  occ. eigenvalues --  -10.19646 -10.19635 -10.19602 -10.19497 -10.19458
 Alpha  occ. eigenvalues --  -10.19454 -10.19430 -10.19428 -10.19403 -10.19236
 Alpha  occ. eigenvalues --  -10.19179 -10.19152 -10.18902 -10.18565 -10.18508
 Alpha  occ. eigenvalues --  -10.18454 -10.18425 -10.18397 -10.18076 -10.17974
 Alpha  occ. eigenvalues --  -10.17764 -10.17757 -10.17231 -10.16025  -1.09037
 Alpha  occ. eigenvalues --   -1.08274  -1.02396  -1.00325  -0.99257  -0.98550
 Alpha  occ. eigenvalues --   -0.96292  -0.92705  -0.92264  -0.83450  -0.83223
 Alpha  occ. eigenvalues --   -0.82213  -0.81836  -0.81409  -0.80890  -0.80325
 Alpha  occ. eigenvalues --   -0.80256  -0.79608  -0.79584  -0.78568  -0.77886
 Alpha  occ. eigenvalues --   -0.77356  -0.76454  -0.76062  -0.75410  -0.74265
 Alpha  occ. eigenvalues --   -0.74018  -0.73267  -0.72861  -0.71839  -0.71343
 Alpha  occ. eigenvalues --   -0.70064  -0.69157  -0.68616  -0.68291  -0.67605
 Alpha  occ. eigenvalues --   -0.67316  -0.66301  -0.66137  -0.65911  -0.64962
 Alpha  occ. eigenvalues --   -0.64103  -0.62718  -0.61811  -0.61540  -0.61027
 Alpha  occ. eigenvalues --   -0.60833  -0.59062  -0.58266  -0.57920  -0.56893
 Alpha  occ. eigenvalues --   -0.56721  -0.56273  -0.56143  -0.55316  -0.54873
 Alpha  occ. eigenvalues --   -0.54855  -0.54312  -0.54294  -0.53505  -0.53166
 Alpha  occ. eigenvalues --   -0.53148  -0.51976  -0.51310  -0.50950  -0.50348
 Alpha  occ. eigenvalues --   -0.50191  -0.49758  -0.49487  -0.48602  -0.48250
 Alpha  occ. eigenvalues --   -0.47924  -0.47701  -0.47532  -0.47118  -0.47012
 Alpha  occ. eigenvalues --   -0.46710  -0.46561  -0.46530  -0.46188  -0.45924
 Alpha  occ. eigenvalues --   -0.45789  -0.45446  -0.45405  -0.45021  -0.44929
 Alpha  occ. eigenvalues --   -0.44810  -0.44543  -0.44197  -0.44070  -0.43528
 Alpha  occ. eigenvalues --   -0.43160  -0.43095  -0.42933  -0.42828  -0.42728
 Alpha  occ. eigenvalues --   -0.42332  -0.42129  -0.42083  -0.41338  -0.41259
 Alpha  occ. eigenvalues --   -0.41088  -0.40979  -0.40790  -0.40429  -0.40425
 Alpha  occ. eigenvalues --   -0.40008  -0.39973  -0.39606  -0.39514  -0.39233
 Alpha  occ. eigenvalues --   -0.39017  -0.38889  -0.38775  -0.38472  -0.38334
 Alpha  occ. eigenvalues --   -0.38008  -0.37909  -0.37660  -0.37511  -0.37249
 Alpha  occ. eigenvalues --   -0.37207  -0.36917  -0.36808  -0.36766  -0.36592
 Alpha  occ. eigenvalues --   -0.36440  -0.36417  -0.36216  -0.35790  -0.35695
 Alpha  occ. eigenvalues --   -0.35595  -0.35550  -0.35191  -0.34980  -0.34767
 Alpha  occ. eigenvalues --   -0.34499  -0.34043  -0.33966  -0.33626  -0.33284
 Alpha  occ. eigenvalues --   -0.33262  -0.32784  -0.32636  -0.32610  -0.32178
 Alpha  occ. eigenvalues --   -0.32168  -0.31618  -0.31257  -0.31045  -0.30989
 Alpha  occ. eigenvalues --   -0.30887  -0.30693  -0.30596  -0.30467  -0.30247
 Alpha  occ. eigenvalues --   -0.30090  -0.29473  -0.28185  -0.27992  -0.27904
 Alpha  occ. eigenvalues --   -0.27553  -0.27506  -0.26765  -0.26384  -0.26257
 Alpha  occ. eigenvalues --   -0.25754  -0.25519  -0.24948  -0.22958  -0.19879
 Alpha  occ. eigenvalues --   -0.18845
 Alpha virt. eigenvalues --   -0.10622  -0.07835  -0.04219  -0.01663  -0.01566
 Alpha virt. eigenvalues --   -0.00705  -0.00084   0.00523   0.01858   0.03474
 Alpha virt. eigenvalues --    0.03660   0.04324   0.04552   0.04608   0.04840

 Mulliken charges:
               1
     1  C    0.145734
     2  C    0.014884
     3  C    0.030334
     4  C   -0.113959
     5  N   -0.237342
     6  C   -0.099727
     7  C   -0.026298
     8  C   -0.009140
     9  C    0.058806
    10  C    0.055972
    11  C   -0.036957
    12  C    0.043645
    13  C    0.169281
    14  O   -0.250384
    15  O   -0.325815
    16  N    0.039779
    17  C    0.014234
    18  C   -0.060234
    19  C   -0.003525
    20  C    0.026148
    21  C   -0.040651
    22  C    0.067941
    23  C   -0.053029
    24  N   -0.255873
    25  C    0.091028
    26  C   -0.075166
    27  C   -0.125734
    28  C    0.065958
    29  C    0.024150
    30  C    0.227089
    31  C   -0.128109
    32  N   -0.117497
    33  C    0.135275
    34  C   -0.206032
    35  C    0.039004
    36  C   -0.021805
    37  C    0.172998
    38  C    0.101543
    39  O   -0.171779
    40  C   -0.035892
    41  C    0.212998
    42  O   -0.278912
    43  O   -0.323164
    44  C    0.334308
    45  C    0.266093
    46  C   -0.089656
    47  C   -0.126070
    48  C   -0.011000
    49  C    0.159979
    50  C   -0.081748
    51  C   -0.028031
    52  C   -0.004373
    53  C    0.027208
    54  C    0.052210
    55  C    0.110700
    56  C   -0.080947
    57  C   -0.097898
    58  C    0.025295
    59  C    0.022717
    60  C    0.068277
    61  C   -0.044954
    62  C   -0.167218
    63  C    0.108074
    64  C    0.099452
    65  H   -0.082627
    66  H   -0.136371
    67  H    0.027456
    68  H    0.009994
    69  H    0.003673
    70  H    0.036871
    71  H   -0.014818
    72  H    0.028282
    73  H    0.012048
    74  H    0.028100
    75  H    0.052531
    76  H    0.043590
    77  H    0.060321
    78  H    0.033265
    79  H    0.049827
    80  H   -0.041089
    81  H    0.039818
    82  H    0.043224
    83  H    0.035239
    84  H    0.042404
    85  H   -0.017012
    86  H   -0.024532
    87  H   -0.007508
    88  H    0.037511
    89  H    0.014031
    90  H    0.027333
    91  H    0.006496
    92  H   -0.000942
    93  H    0.049830
    94  H    0.043975
    95  H   -0.036161
    96  H    0.019874
    97  H    0.003670
    98  H    0.031086
    99  H    0.022492
   100  H    0.017659
   101  H    0.002808
   102  H    0.044665
   103  H    0.004656
   104  H   -0.003363
   105  H   -0.001614
   106  H    0.034439
   107  H    0.014911
   108  H    0.017780
   109  H    0.026292
   110  H   -0.028008
   111  H   -0.028390
   112  H    0.032726
   113  H    0.018848
   114  H   -0.056077
   115  H   -0.032665
   116  H    0.003684
   117  H   -0.016859
   118  H    0.008974
   119  H   -0.015861
   120  H   -0.012452
   121  H    0.003475
   122  H    0.007094
   123  H    0.040692
   124  H   -0.005140
   125  H   -0.003029
   126  H    0.018875
   127  H   -0.038065
   128  H    0.012261
   129  H    0.005653
   130  H    0.002732
   131  H   -0.043032
   132  H   -0.003670
   133  H   -0.001928
   134  H    0.002912
   135  H   -0.000771
   136  H   -0.000558
   137  H    0.056677
   138  H    0.189595
 Sum of Mulliken charges =  -0.00000

 Dipole moment (field-independent basis, Debye):
    X=              1.6820    Y=              3.8355    Z=             -0.0445  Tot=              4.1883
 Quadrupole moment (field-independent basis, Debye-Ang):
   XX=           -348.5261   YY=           -377.7849   ZZ=           -397.1916
   XY=            -18.9866   XZ=              6.0732   YZ=             -0.7311

 Normal termination of Gaussian 16 at Sun Aug 18 12:35:49 2019.
