 Gaussian 16, Revision A.03,
 Gaussian 16:  ES64L-G16RevA.03 25-Dec-2016

 --------------------------
 # td=(NStates=1) B3LYP/SVP
 --------------------------

 --
 TD
 --
 Symbolic Z-matrix:
 Charge =  0 Multiplicity = 1

                         Standard orientation:
 ---------------------------------------------------------------------
 Center     Atomic      Atomic             Coordinates (Angstroms)
 Number     Number       Type             X           Y           Z
 ---------------------------------------------------------------------
      1          6           0       -5.122238   -2.071608    0.448558
      2          6           0       -4.768137    2.714334    1.465201
      3          6           0       -9.175142    3.470253   -0.190707
      4          6           0       -9.770933   -1.386692   -0.943123
      5          7           0       -5.135561    0.305137    0.808846
      6          6           0       -4.476702   -0.885796    0.869680
      7          6           0       -3.060823   -0.731683    1.438981
      8          6           0       -3.140705    0.752133    2.036533
      9          6           0       -4.373786    1.278111    1.339920
     10          6           0       -3.035765    0.797934    3.594697
     11          6           0       -1.949104   -1.010365    0.317355
     12          6           0       -0.635284   -0.912951    0.728873
     13          6           0        0.324633   -1.253573   -0.406101
     14          8           0        0.129642   -1.662925   -1.500220
     15          8           0        1.594565   -0.874330   -0.017199
     16          7           0       -6.960116    2.770756    0.407837
     17          6           0       -5.837000    3.369471    1.065008
     18          6           0       -6.061898    4.874433    1.028547
     19          6           0       -7.311875    5.070231    0.470806
     20          6           0       -7.839280    3.745734    0.264379
     21          6           0       -5.148179    5.815394    1.631912
     22          6           0       -7.955243    6.483906    0.379760
     23          6           0       -8.924985    6.921520   -0.523815
     24          7           0       -9.178345    1.070962   -0.521441
     25          6           0       -9.795928    2.200984   -0.540322
     26          6           0      -11.194000    2.104331   -1.085611
     27          6           0      -11.300195    0.753967   -1.246310
     28          6           0      -10.062402    0.113196   -0.903495
     29          6           0      -12.131298    3.171696   -1.283126
     30          6           0      -12.555172   -0.095388   -1.734120
     31          6           0      -12.654861   -0.254311   -3.218313
     32          7           0       -7.393111   -1.235275   -0.239764
     33          6           0       -8.554646   -1.916894   -0.725035
     34          6           0       -8.220554   -3.350008   -0.727922
     35          6           0       -6.898872   -3.404487   -0.320528
     36          6           0       -6.443691   -2.108522    0.052968
     37          6           0       -9.158029   -4.502210   -1.132916
     38          6           0       -5.785554   -4.337798   -0.138283
     39          8           0       -5.720866   -5.522201   -0.437673
     40          6           0       -4.571772   -3.497575    0.422420
     41          6           0       -4.009864   -3.986640    1.724139
     42          8           0       -4.173527   -3.531230    2.843253
     43          8           0       -3.334068   -5.073487    1.510512
     44          6           0       -2.870341   -5.858740    2.645801
     45          6           0        2.631548   -1.139836   -0.983629
     46          6           0        3.990577   -0.834121   -0.361683
     47          6           0        4.865015    0.049403   -0.954396
     48          6           0        4.699445    0.712450   -2.321603
     49          6           0        6.243784    0.189587   -0.282926
     50          6           0        7.403410   -0.334756   -0.962483
     51          6           0        8.720406   -0.085058   -0.281901
     52          6           0       10.010611   -0.775190   -0.865175
     53          6           0       10.004037   -2.297128   -0.870122
     54          6           0       11.289762   -0.168051   -0.024116
     55          6           0       12.580859   -0.400500   -0.884179
     56          6           0       13.746945    0.016224    0.064389
     57          6           0       15.161389   -0.162902   -0.604707
     58          6           0       15.682314   -1.591270   -0.793637
     59          6           0       16.109432    0.786793    0.282180
     60          6           0       17.642976    0.775759   -0.204636
     61          6           0       18.456639    1.777963    0.525128
     62          6           0       20.146609    1.651333    0.357008
     63          6           0       20.531554    1.931752   -1.139528
     64          6           0       20.877978    2.490956    1.343882
     65          1           0       -3.699414    3.219313    1.654872
     66          1           0       -9.688375    4.457362   -0.177457
     67          1           0      -10.638680   -1.979845   -1.356469
     68          1           0       -2.881359   -1.536126    2.331144
     69          1           0       -2.248488    1.456177    1.825815
     70          1           0       -2.017531    0.304974    3.717428
     71          1           0       -3.142600    1.734452    3.867895
     72          1           0       -3.918332    0.286952    3.961362
     73          1           0       -2.400918   -1.885324   -0.219206
     74          1           0       -2.477246   -0.347779   -0.559539
     75          1           0       -0.543067    0.071216    1.103945
     76          1           0       -0.429318   -1.750919    1.638914
     77          1           0       -4.123434    6.083444    0.801382
     78          1           0       -5.795330    6.762833    1.723340
     79          1           0       -4.734938    5.652725    2.601540
     80          1           0       -7.590090    7.255748    1.035672
     81          1           0       -9.445669    6.266891   -1.270655
     82          1           0       -9.153738    7.850232   -0.494988
     83          1           0      -12.029063    3.989023   -0.483371
     84          1           0      -11.998386    3.781105   -2.285634
     85          1           0      -13.108269    2.881926   -1.363865
     86          1           0      -12.476995   -1.099645   -1.253689
     87          1           0      -13.468250    0.396685   -1.225224
     88          1           0      -12.354753    0.691250   -3.703055
     89          1           0      -11.900135   -0.816678   -3.482337
     90          1           0      -13.443136   -0.547915   -3.692250
     91          1           0      -10.067531   -4.451039   -0.349677
     92          1           0       -9.708409   -4.216258   -2.152452
     93          1           0       -8.685616   -5.553362   -1.333618
     94          1           0       -3.672394   -3.610101   -0.273559
     95          1           0       -2.195326   -6.536446    2.371260
     96          1           0       -2.581001   -5.071685    3.581077
     97          1           0       -3.633584   -6.463452    3.087217
     98          1           0        2.560572   -2.250327   -1.130153
     99          1           0        2.507659   -0.561264   -1.927628
    100          1           0        4.162107   -1.213839    0.782044
    101          1           0        4.952610    1.764357   -2.183020
    102          1           0        5.626913    0.643237   -3.080629
    103          1           0        3.697534    0.673438   -2.706575
    104          1           0        6.523922    1.325115   -0.148917
    105          1           0        5.960813   -0.243585    0.837168
    106          1           0        7.226892   -1.539092   -1.079461
    107          1           0        7.462004    0.105741   -2.002497
    108          1           0        8.757061    0.844744   -0.048677
    109          1           0        8.581922   -0.622947    0.742798
    110          1           0       10.237848   -0.430008   -1.869878
    111          1           0        8.856597   -2.803509   -1.314892
    112          1           0       10.953663   -2.782109   -1.232982
    113          1           0       10.031424   -2.835132   -0.003184
    114          1           0       11.379088    0.926140    0.077649
    115          1           0       11.418620   -0.742463    0.834669
    116          1           0       12.733703   -1.488761   -1.038103
    117          1           0       12.560314    0.048716   -1.949673
    118          1           0       13.682709    1.038107    0.217139
    119          1           0       13.832533   -0.426302    1.062411
    120          1           0       15.171133    0.300251   -1.548510
    121          1           0       14.766167   -2.241432   -1.305854
    122          1           0       16.669647   -1.482011   -1.731084
    123          1           0       15.860034   -2.106681    0.175690
    124          1           0       15.853089    1.862171    0.177195
    125          1           0       15.950300    0.410687    1.360469
    126          1           0       18.083563   -0.163005    0.033198
    127          1           0       17.865805    0.766777   -1.532090
    128          1           0       18.312852    2.984033    0.282916
    129          1           0       18.055566    1.672023    1.688034
    130          1           0       20.226452    0.446309    0.468431
    131          1           0       20.161560    2.871528   -1.599652
    132          1           0       21.680877    1.780962   -1.386589
    133          1           0       20.176531    1.225053   -1.992242
    134          1           0       20.836958    2.200901    2.323001
    135          1           0       22.015757    2.576836    1.175621
    136          1           0       20.466765    3.534904    1.169831
    137          1           0       -7.323175    1.840093    0.565323
    138          1           0       -7.535024   -0.247831   -0.226873
 ---------------------------------------------------------------------

 SCF Done:  E(RB3LYP) =  -2732.96963787     A.U. after   16 cycles

 Excitation energies and oscillator strengths:

 Excited State   1:      Singlet-A      2.0209 eV  613.50 nm  f=0.1277  <S**2>=0.000
     235 -> 237       -0.20479
     235 -> 238       -0.26572
     236 -> 237        0.54769
     236 -> 238       -0.28965
 This state for optimization and/or second-order correction.
 Total Energy, E(TD-HF/TD-DFT) =  -2732.89536957
 Copying the excited state density for this state as the 1-particle RhoCI density.

 The electronic state is 1-A.
 Alpha  occ. eigenvalues --  -19.18385 -19.16467 -19.13228 -19.12156 -19.11729
 Alpha  occ. eigenvalues --  -14.37172 -14.36762 -14.32415 -14.29563 -10.31602
 Alpha  occ. eigenvalues --  -10.31421 -10.28033 -10.24934 -10.24547 -10.24010
 Alpha  occ. eigenvalues --  -10.23671 -10.23567 -10.23531 -10.23386 -10.23193
 Alpha  occ. eigenvalues --  -10.22410 -10.22321 -10.22124 -10.22024 -10.21782
 Alpha  occ. eigenvalues --  -10.21719 -10.21595 -10.21484 -10.21470 -10.21337
 Alpha  occ. eigenvalues --  -10.21313 -10.21290 -10.21269 -10.21222 -10.20918
 Alpha  occ. eigenvalues --  -10.20892 -10.20855 -10.20285 -10.20232 -10.20225
 Alpha  occ. eigenvalues --  -10.20194 -10.20149 -10.20082 -10.19979 -10.19874
 Alpha  occ. eigenvalues --  -10.19830 -10.19686 -10.19524 -10.19476 -10.19294
 Alpha  occ. eigenvalues --  -10.19280 -10.19164 -10.18998 -10.18839 -10.18837
 Alpha  occ. eigenvalues --  -10.18446 -10.18388 -10.18341 -10.18079 -10.17925
 Alpha  occ. eigenvalues --  -10.17870 -10.17651 -10.17584 -10.15281  -1.10869
 Alpha  occ. eigenvalues --   -1.09384  -1.02067  -1.00873  -0.99916  -0.98692
 Alpha  occ. eigenvalues --   -0.98541  -0.94814  -0.94204  -0.85096  -0.82527
 Alpha  occ. eigenvalues --   -0.82348  -0.82163  -0.80863  -0.80741  -0.79851
 Alpha  occ. eigenvalues --   -0.79557  -0.79103  -0.78461  -0.78427  -0.77836
 Alpha  occ. eigenvalues --   -0.76688  -0.76236  -0.75973  -0.75143  -0.74448
 Alpha  occ. eigenvalues --   -0.73633  -0.73230  -0.72472  -0.71699  -0.71344
 Alpha  occ. eigenvalues --   -0.69849  -0.69795  -0.69073  -0.68301  -0.67259
 Alpha  occ. eigenvalues --   -0.67224  -0.66321  -0.65569  -0.65171  -0.64491
 Alpha  occ. eigenvalues --   -0.64446  -0.63057  -0.62385  -0.62122  -0.61409
 Alpha  occ. eigenvalues --   -0.59740  -0.58304  -0.57793  -0.57670  -0.57093
 Alpha  occ. eigenvalues --   -0.56855  -0.56336  -0.56000  -0.55783  -0.55070
 Alpha  occ. eigenvalues --   -0.54629  -0.54588  -0.54410  -0.53856  -0.53092
 Alpha  occ. eigenvalues --   -0.52613  -0.51781  -0.51370  -0.50780  -0.50518
 Alpha  occ. eigenvalues --   -0.49984  -0.49402  -0.49133  -0.48960  -0.48504
 Alpha  occ. eigenvalues --   -0.48123  -0.47815  -0.47718  -0.47580  -0.47315
 Alpha  occ. eigenvalues --   -0.46995  -0.46774  -0.46156  -0.46036  -0.45577
 Alpha  occ. eigenvalues --   -0.45437  -0.45373  -0.44942  -0.44746  -0.44315
 Alpha  occ. eigenvalues --   -0.44132  -0.43883  -0.43641  -0.43353  -0.43171
 Alpha  occ. eigenvalues --   -0.42915  -0.42719  -0.42639  -0.42344  -0.42167
 Alpha  occ. eigenvalues --   -0.42072  -0.41905  -0.41852  -0.41701  -0.41514
 Alpha  occ. eigenvalues --   -0.41306  -0.41159  -0.40556  -0.40482  -0.40255
 Alpha  occ. eigenvalues --   -0.39886  -0.39824  -0.39612  -0.39423  -0.39349
 Alpha  occ. eigenvalues --   -0.39138  -0.38930  -0.38821  -0.38489  -0.38235
 Alpha  occ. eigenvalues --   -0.38048  -0.37960  -0.37760  -0.37708  -0.37585
 Alpha  occ. eigenvalues --   -0.37451  -0.37350  -0.37165  -0.37022  -0.36912
 Alpha  occ. eigenvalues --   -0.36890  -0.36656  -0.36115  -0.36006  -0.35719
 Alpha  occ. eigenvalues --   -0.35561  -0.35203  -0.35084  -0.34832  -0.34660
 Alpha  occ. eigenvalues --   -0.34478  -0.34314  -0.33850  -0.33542  -0.33378
 Alpha  occ. eigenvalues --   -0.33285  -0.33249  -0.32941  -0.32833  -0.32177
 Alpha  occ. eigenvalues --   -0.31881  -0.31573  -0.31570  -0.30962  -0.30682
 Alpha  occ. eigenvalues --   -0.30646  -0.30435  -0.30320  -0.30127  -0.29998
 Alpha  occ. eigenvalues --   -0.29495  -0.28798  -0.28589  -0.28503  -0.27664
 Alpha  occ. eigenvalues --   -0.27067  -0.26598  -0.26519  -0.26376  -0.25609
 Alpha  occ. eigenvalues --   -0.25043  -0.24831  -0.24387  -0.22657  -0.20316
 Alpha  occ. eigenvalues --   -0.17982
 Alpha virt. eigenvalues --   -0.09443  -0.08645  -0.04927  -0.02470  -0.00755
 Alpha virt. eigenvalues --   -0.00568  -0.00281   0.00382   0.02139   0.02260
 Alpha virt. eigenvalues --    0.03303   0.03562   0.03867   0.04172   0.04375

 Mulliken charges:
               1
     1  C    0.019587
     2  C   -0.143381
     3  C   -0.067993
     4  C   -0.084364
     5  N   -0.150846
     6  C   -0.096164
     7  C   -0.085893
     8  C   -0.122076
     9  C   -0.044578
    10  C    0.153318
    11  C   -0.041002
    12  C    0.141938
    13  C    0.173127
    14  O   -0.191698
    15  O   -0.345525
    16  N   -0.021660
    17  C    0.181292
    18  C   -0.085516
    19  C    0.047874
    20  C   -0.033704
    21  C    0.013560
    22  C   -0.063289
    23  C    0.038171
    24  N   -0.178765
    25  C    0.039397
    26  C   -0.110929
    27  C   -0.123559
    28  C   -0.006568
    29  C    0.100404
    30  C    0.014287
    31  C    0.189975
    32  N   -0.007498
    33  C    0.110113
    34  C   -0.138069
    35  C    0.002436
    36  C    0.092216
    37  C    0.006565
    38  C    0.081959
    39  O   -0.170293
    40  C   -0.059581
    41  C    0.180561
    42  O   -0.243072
    43  O   -0.267204
    44  C    0.193518
    45  C    0.267053
    46  C   -0.129566
    47  C   -0.114239
    48  C    0.076694
    49  C   -0.013671
    50  C    0.018603
    51  C    0.110816
    52  C   -0.002167
    53  C   -0.006492
    54  C    0.047727
    55  C   -0.018975
    56  C    0.054812
    57  C   -0.044441
    58  C   -0.055947
    59  C   -0.023608
    60  C    0.018208
    61  C   -0.085419
    62  C   -0.109144
    63  C   -0.038501
    64  C    0.086252
    65  H    0.022595
    66  H   -0.029778
    67  H    0.007889
    68  H    0.047367
    69  H    0.005762
    70  H    0.035146
    71  H   -0.036868
    72  H    0.018508
    73  H   -0.006848
    74  H    0.019637
    75  H    0.018480
    76  H    0.061467
    77  H    0.049843
    78  H    0.019182
    79  H    0.033022
    80  H    0.006992
    81  H    0.045539
    82  H   -0.029511
    83  H    0.025647
    84  H    0.021202
    85  H   -0.022110
    86  H   -0.002087
    87  H    0.008732
    88  H   -0.011053
    89  H   -0.055784
    90  H   -0.033490
    91  H    0.053318
    92  H    0.039980
    93  H    0.073972
    94  H    0.076769
    95  H    0.003183
    96  H    0.067084
    97  H    0.023088
    98  H    0.019247
    99  H    0.020971
   100  H    0.035157
   101  H   -0.002982
   102  H    0.039588
   103  H    0.013691
   104  H   -0.001981
   105  H    0.017297
   106  H    0.007857
   107  H   -0.003143
   108  H   -0.074912
   109  H   -0.011232
   110  H   -0.013239
   111  H    0.031431
   112  H    0.012831
   113  H   -0.023598
   114  H    0.006102
   115  H   -0.013916
   116  H   -0.012386
   117  H    0.018741
   118  H   -0.033390
   119  H   -0.008356
   120  H   -0.030497
   121  H    0.028807
   122  H    0.045746
   123  H    0.021793
   124  H    0.016136
   125  H    0.012756
   126  H   -0.006331
   127  H    0.015368
   128  H    0.013967
   129  H    0.018811
   130  H    0.011531
   131  H    0.011872
   132  H    0.020050
   133  H    0.010514
   134  H   -0.007001
   135  H    0.011646
   136  H    0.012724
   137  H    0.158734
   138  H    0.117653
 Sum of Mulliken charges =  -0.00000

 Dipole moment (field-independent basis, Debye):
    X=              2.1361    Y=              4.0983    Z=              1.7761  Tot=              4.9511
 Quadrupole moment (field-independent basis, Debye-Ang):
   XX=           -369.0466   YY=           -374.0292   ZZ=           -394.9222
   XY=            -21.0370   XZ=              9.3297   YZ=             -5.8647

 Normal termination of Gaussian 16 at Thu Aug 22 12:16:23 2019.
