 Gaussian 16, Revision A.03,
 Gaussian 16:  ES64L-G16RevA.03 25-Dec-2016

 --------------------------
 # td=(NStates=1) B3LYP/SVP
 --------------------------

 --
 TD
 --
 Symbolic Z-matrix:
 Charge =  0 Multiplicity = 1

                         Standard orientation:
 ---------------------------------------------------------------------
 Center     Atomic      Atomic             Coordinates (Angstroms)
 Number     Number       Type             X           Y           Z
 ---------------------------------------------------------------------
      1          6           0       -5.217832   -2.014476    0.504139
      2          6           0       -4.584528    2.718688    1.640010
      3          6           0       -9.126393    3.428403   -0.301637
      4          6           0       -9.844787   -1.293183   -1.175212
      5          7           0       -5.156535    0.485586    0.817121
      6          6           0       -4.542567   -0.793016    0.855734
      7          6           0       -3.143097   -0.731134    1.325360
      8          6           0       -3.061024    0.649145    1.939686
      9          6           0       -4.351869    1.281876    1.375053
     10          6           0       -2.920733    0.653311    3.500269
     11          6           0       -2.070369   -0.891565    0.227357
     12          6           0       -0.710879   -0.807838    0.756341
     13          6           0        0.299079   -1.231809   -0.392983
     14          8           0       -0.004338   -1.721650   -1.488302
     15          8           0        1.581933   -0.959340   -0.138709
     16          7           0       -6.915413    2.784137    0.574266
     17          6           0       -5.735663    3.354664    1.161468
     18          6           0       -5.987906    4.835867    1.171072
     19          6           0       -7.188747    5.027355    0.483468
     20          6           0       -7.795649    3.738493    0.202401
     21          6           0       -4.881958    5.818109    1.669956
     22          6           0       -7.787683    6.422029    0.438785
     23          6           0       -8.767456    6.860141   -0.365114
     24          7           0       -9.113793    1.003851   -0.518668
     25          6           0       -9.746332    2.222757   -0.481085
     26          6           0      -11.167481    2.093321   -1.083449
     27          6           0      -11.376748    0.796821   -1.380513
     28          6           0      -10.037395    0.080612   -0.965353
     29          6           0      -12.026019    3.324706   -1.353013
     30          6           0      -12.522000    0.075322   -2.006309
     31          6           0      -12.455730   -0.208246   -3.441050
     32          7           0       -7.521356   -1.173689   -0.223442
     33          6           0       -8.612708   -1.908639   -0.657675
     34          6           0       -8.251529   -3.391649   -0.702847
     35          6           0       -6.898260   -3.291200   -0.276750
     36          6           0       -6.477691   -2.003544   -0.039427
     37          6           0       -9.187976   -4.455090   -1.111538
     38          6           0       -5.956853   -4.305011   -0.071717
     39          8           0       -5.895262   -5.529090   -0.097508
     40          6           0       -4.624541   -3.367635    0.450430
     41          6           0       -4.222303   -3.932398    1.799397
     42          8           0       -4.520413   -3.390015    2.857070
     43          8           0       -3.429632   -4.984002    1.663301
     44          6           0       -3.143922   -5.601152    2.927216
     45          6           0        2.534605   -1.172346   -1.131433
     46          6           0        3.945951   -0.962306   -0.438369
     47          6           0        4.967993   -0.168823   -0.911081
     48          6           0        4.882396    0.553821   -2.402742
     49          6           0        6.271654    0.031036   -0.378394
     50          6           0        7.462647   -0.504397   -1.007009
     51          6           0        8.760342   -0.277283   -0.235429
     52          6           0       10.051050   -0.856471   -0.940194
     53          6           0       10.043319   -2.319372   -1.104963
     54          6           0       11.312203   -0.350987   -0.078431
     55          6           0       12.714015   -0.525972   -0.727752
     56          6           0       13.790447   -0.129392    0.300171
     57          6           0       15.250054   -0.069032   -0.459887
     58          6           0       15.665885   -1.617782   -0.999360
     59          6           0       16.291491    0.581628    0.512180
     60          6           0       17.552699    0.749152   -0.216672
     61          6           0       18.580500    1.672155    0.678390
     62          6           0       20.051954    1.755722    0.171945
     63          6           0       20.174916    2.446090   -1.260421
     64          6           0       20.952242    2.461041    1.280915
     65          1           0       -3.971530    3.540419    1.875674
     66          1           0       -9.711327    4.215458   -0.366503
     67          1           0      -10.683779   -1.927019   -1.412315
     68          1           0       -2.986628   -1.536362    2.286774
     69          1           0       -2.115336    1.098610    1.573465
     70          1           0       -2.035301    0.161963    3.893123
     71          1           0       -3.004734    1.775558    3.863190
     72          1           0       -3.744133    0.137470    3.995566
     73          1           0       -2.225311   -1.710518   -0.366319
     74          1           0       -2.151947    0.053076   -0.496138
     75          1           0       -0.411694    0.038088    1.287858
     76          1           0       -0.524406   -1.640981    1.568458
     77          1           0       -3.621321    5.325437    1.515643
     78          1           0       -4.942170    7.019855    1.203437
     79          1           0       -5.040547    5.875818    3.014460
     80          1           0       -7.392881    7.070898    1.415461
     81          1           0       -9.150370    6.211209   -1.185763
     82          1           0       -9.195021    7.878025   -0.267448
     83          1           0      -12.041512    4.247380   -0.572187
     84          1           0      -11.571071    3.853402   -2.148927
     85          1           0      -13.260322    3.297495   -1.258752
     86          1           0      -13.047628   -0.937760   -1.497694
     87          1           0      -13.517129    0.572547   -1.766403
     88          1           0      -12.420557    0.579991   -4.117230
     89          1           0      -11.730790   -0.842706   -3.889787
     90          1           0      -13.345122   -0.770911   -3.753463
     91          1           0      -10.168356   -4.155161   -0.609025
     92          1           0       -9.243236   -4.658331   -2.221319
     93          1           0       -8.830360   -5.310141   -0.904200
     94          1           0       -3.857204   -3.484902   -0.428761
     95          1           0       -2.324675   -6.592486    2.567088
     96          1           0       -2.328592   -5.072663    3.563765
     97          1           0       -3.985848   -6.246489    3.508161
     98          1           0        2.549804   -2.286323   -1.686991
     99          1           0        2.364279   -0.565885   -1.947047
    100          1           0        4.250214   -1.365503    0.515800
    101          1           0        5.324806    1.646894   -2.153847
    102          1           0        5.538167    0.027896   -3.187168
    103          1           0        3.896363    0.647132   -2.571056
    104          1           0        6.361341    1.026269   -0.261404
    105          1           0        6.254006   -0.250718    0.580060
    106          1           0        7.361667   -1.579966   -0.908156
    107          1           0        7.698485    0.002999   -2.060123
    108          1           0        9.028819    0.823479   -0.065344
    109          1           0        8.304823   -0.956573    0.692728
    110          1           0       10.182750   -0.303695   -1.816093
    111          1           0        9.147904   -2.642929   -1.840951
    112          1           0       11.063181   -2.744008   -1.414901
    113          1           0        9.701817   -2.688801   -0.172210
    114          1           0       11.150450    0.697009   -0.151977
    115          1           0       11.311244   -0.833642    0.915171
    116          1           0       12.881948   -1.699462   -1.003032
    117          1           0       12.836705   -0.124082   -1.772466
    118          1           0       13.764108    0.843445    0.395483
    119          1           0       13.763002   -0.892962    1.141189
    120          1           0       15.030923    0.231112   -1.448281
    121          1           0       15.002152   -2.048541   -1.927180
    122          1           0       16.766231   -1.603599   -0.938455
    123          1           0       15.426410   -2.315295   -0.128888
    124          1           0       15.646176    1.475957    0.883820
    125          1           0       16.231682    0.154906    1.585208
    126          1           0       18.084257   -0.136904   -0.608798
    127          1           0       17.550824    1.310306   -1.255578
    128          1           0       18.165067    2.669954    0.631244
    129          1           0       18.450209    1.591602    1.742815
    130          1           0       20.474781    0.597849   -0.137198
    131          1           0       19.934858    3.475736   -1.235036
    132          1           0       21.191167    2.587635   -1.524397
    133          1           0       19.575819    1.988637   -2.017911
    134          1           0       20.969365    1.912013    2.304452
    135          1           0       21.802684    2.528657    1.055673
    136          1           0       20.483454    3.414713    1.389752
    137          1           0       -6.774456    1.825919    0.304033
    138          1           0       -7.848151   -0.237042   -0.328159
 ---------------------------------------------------------------------

 SCF Done:  E(RB3LYP) =  -2732.84728700     A.U. after   17 cycles

 Excitation energies and oscillator strengths:

 Excited State   1:      Singlet-A      1.9361 eV  640.38 nm  f=0.2520  <S**2>=0.000
     235 -> 237        0.14257
     235 -> 238        0.23952
     236 -> 237        0.64562
     236 -> 238       -0.10139
 This state for optimization and/or second-order correction.
 Total Energy, E(TD-HF/TD-DFT) =  -2732.77613633
 Copying the excited state density for this state as the 1-particle RhoCI density.

 The electronic state is 1-A.
 Alpha  occ. eigenvalues --  -19.19032 -19.18566 -19.12745 -19.12423 -19.11753
 Alpha  occ. eigenvalues --  -14.36889 -14.36750 -14.33443 -14.31191 -10.32302
 Alpha  occ. eigenvalues --  -10.31347 -10.27814 -10.27523 -10.26636 -10.26238
 Alpha  occ. eigenvalues --  -10.25034 -10.24022 -10.23841 -10.23772 -10.23373
 Alpha  occ. eigenvalues --  -10.23264 -10.22556 -10.22456 -10.22189 -10.21947
 Alpha  occ. eigenvalues --  -10.21781 -10.21494 -10.21459 -10.21195 -10.21120
 Alpha  occ. eigenvalues --  -10.21005 -10.20973 -10.20492 -10.20464 -10.20453
 Alpha  occ. eigenvalues --  -10.20292 -10.20196 -10.20054 -10.20003 -10.19988
 Alpha  occ. eigenvalues --  -10.19961 -10.19889 -10.19764 -10.19691 -10.19639
 Alpha  occ. eigenvalues --  -10.19384 -10.19383 -10.19348 -10.19203 -10.19164
 Alpha  occ. eigenvalues --  -10.19161 -10.18928 -10.18860 -10.18838 -10.18758
 Alpha  occ. eigenvalues --  -10.18475 -10.18297 -10.18017 -10.17941 -10.17646
 Alpha  occ. eigenvalues --  -10.17076 -10.17025 -10.16618 -10.16118  -1.10774
 Alpha  occ. eigenvalues --   -1.10346  -1.02066  -1.00036  -0.99803  -0.98996
 Alpha  occ. eigenvalues --   -0.97443  -0.96267  -0.92608  -0.85923  -0.83672
 Alpha  occ. eigenvalues --   -0.82598  -0.81014  -0.81001  -0.80623  -0.80072
 Alpha  occ. eigenvalues --   -0.79906  -0.79717  -0.78548  -0.78381  -0.77732
 Alpha  occ. eigenvalues --   -0.76404  -0.75568  -0.75383  -0.75071  -0.74846
 Alpha  occ. eigenvalues --   -0.73941  -0.73034  -0.72745  -0.70953  -0.70625
 Alpha  occ. eigenvalues --   -0.69358  -0.69057  -0.68658  -0.67912  -0.67698
 Alpha  occ. eigenvalues --   -0.67047  -0.66779  -0.66233  -0.66021  -0.65217
 Alpha  occ. eigenvalues --   -0.64550  -0.62958  -0.62585  -0.62420  -0.62039
 Alpha  occ. eigenvalues --   -0.61377  -0.59510  -0.58682  -0.57767  -0.57662
 Alpha  occ. eigenvalues --   -0.56613  -0.56365  -0.55819  -0.55178  -0.55123
 Alpha  occ. eigenvalues --   -0.54775  -0.54533  -0.54282  -0.53754  -0.53164
 Alpha  occ. eigenvalues --   -0.52683  -0.51988  -0.51476  -0.51079  -0.50366
 Alpha  occ. eigenvalues --   -0.49963  -0.49608  -0.49396  -0.48798  -0.48520
 Alpha  occ. eigenvalues --   -0.47766  -0.47686  -0.47282  -0.47180  -0.47048
 Alpha  occ. eigenvalues --   -0.46544  -0.46133  -0.46009  -0.45612  -0.45521
 Alpha  occ. eigenvalues --   -0.45417  -0.45285  -0.44991  -0.44869  -0.44720
 Alpha  occ. eigenvalues --   -0.44375  -0.44292  -0.44045  -0.43924  -0.43351
 Alpha  occ. eigenvalues --   -0.43228  -0.43024  -0.42806  -0.42514  -0.42351
 Alpha  occ. eigenvalues --   -0.42287  -0.42177  -0.41939  -0.41791  -0.41616
 Alpha  occ. eigenvalues --   -0.41206  -0.40992  -0.40972  -0.40886  -0.40688
 Alpha  occ. eigenvalues --   -0.40526  -0.40304  -0.40000  -0.39896  -0.39652
 Alpha  occ. eigenvalues --   -0.39235  -0.38880  -0.38704  -0.38601  -0.38459
 Alpha  occ. eigenvalues --   -0.38380  -0.38137  -0.37938  -0.37925  -0.37618
 Alpha  occ. eigenvalues --   -0.37522  -0.37405  -0.37337  -0.36841  -0.36638
 Alpha  occ. eigenvalues --   -0.36577  -0.36386  -0.36221  -0.35687  -0.35577
 Alpha  occ. eigenvalues --   -0.35333  -0.35238  -0.35147  -0.34896  -0.34724
 Alpha  occ. eigenvalues --   -0.34653  -0.33769  -0.33571  -0.33445  -0.33358
 Alpha  occ. eigenvalues --   -0.33147  -0.32490  -0.32341  -0.32099  -0.32036
 Alpha  occ. eigenvalues --   -0.31784  -0.31774  -0.31423  -0.30862  -0.30794
 Alpha  occ. eigenvalues --   -0.30624  -0.30568  -0.30401  -0.29955  -0.29725
 Alpha  occ. eigenvalues --   -0.29004  -0.28691  -0.28269  -0.27898  -0.27801
 Alpha  occ. eigenvalues --   -0.27574  -0.26993  -0.26815  -0.26653  -0.25961
 Alpha  occ. eigenvalues --   -0.24508  -0.24406  -0.24309  -0.24069  -0.20317
 Alpha  occ. eigenvalues --   -0.18373
 Alpha virt. eigenvalues --   -0.10697  -0.07433  -0.05215  -0.02083  -0.00563
 Alpha virt. eigenvalues --   -0.00419   0.00258   0.00445   0.01255   0.01564
 Alpha virt. eigenvalues --    0.03585   0.03721   0.04162   0.04314   0.04493

 Mulliken charges:
               1
     1  C   -0.055620
     2  C    0.048112
     3  C    0.006505
     4  C   -0.012416
     5  N   -0.126847
     6  C   -0.010380
     7  C   -0.121832
     8  C   -0.030998
     9  C    0.008635
    10  C    0.039729
    11  C    0.107050
    12  C    0.042642
    13  C    0.175071
    14  O   -0.262366
    15  O   -0.264872
    16  N   -0.071963
    17  C   -0.005810
    18  C   -0.048325
    19  C   -0.003637
    20  C    0.096934
    21  C   -0.147309
    22  C   -0.069787
    23  C   -0.038818
    24  N   -0.272127
    25  C    0.106427
    26  C   -0.100742
    27  C   -0.013502
    28  C    0.042560
    29  C    0.011620
    30  C   -0.020713
    31  C    0.071129
    32  N    0.014942
    33  C   -0.056103
    34  C   -0.124241
    35  C   -0.024239
    36  C    0.200359
    37  C    0.202420
    38  C    0.043396
    39  O   -0.174866
    40  C   -0.142726
    41  C    0.232167
    42  O   -0.248780
    43  O   -0.244695
    44  C    0.064271
    45  C    0.264865
    46  C   -0.047433
    47  C   -0.210277
    48  C    0.033849
    49  C    0.255516
    50  C    0.052401
    51  C   -0.079877
    52  C   -0.023151
    53  C    0.031442
    54  C    0.058478
    55  C   -0.091296
    56  C    0.137435
    57  C   -0.146246
    58  C   -0.053874
    59  C    0.063487
    60  C    0.023607
    61  C    0.055433
    62  C   -0.166913
    63  C    0.070173
    64  C    0.167401
    65  H   -0.068033
    66  H   -0.114051
    67  H   -0.009769
    68  H    0.061492
    69  H   -0.005439
    70  H    0.013912
    71  H    0.023089
    72  H    0.023785
    73  H   -0.010908
    74  H    0.018498
    75  H    0.010081
    76  H    0.032926
    77  H    0.082741
    78  H    0.080828
    79  H    0.065215
    80  H    0.044750
    81  H    0.038451
    82  H    0.034285
    83  H    0.024065
    84  H    0.018523
    85  H    0.051316
    86  H    0.016399
    87  H    0.000355
    88  H   -0.012657
    89  H   -0.009947
    90  H   -0.013166
    91  H    0.050175
    92  H    0.030915
    93  H   -0.053277
    94  H    0.089396
    95  H    0.021920
    96  H    0.060309
    97  H    0.087388
    98  H    0.050490
    99  H   -0.012890
   100  H   -0.025848
   101  H    0.016296
   102  H    0.060980
   103  H   -0.019314
   104  H   -0.052405
   105  H   -0.083690
   106  H   -0.011831
   107  H    0.005217
   108  H    0.005223
   109  H    0.004765
   110  H   -0.037543
   111  H    0.023587
   112  H    0.030972
   113  H   -0.010578
   114  H   -0.016278
   115  H    0.002298
   116  H   -0.001116
   117  H   -0.000855
   118  H   -0.046803
   119  H    0.027308
   120  H   -0.005644
   121  H    0.050031
   122  H    0.004053
   123  H   -0.004851
   124  H   -0.005193
   125  H    0.009425
   126  H    0.014625
   127  H    0.011446
   128  H   -0.024523
   129  H   -0.021050
   130  H    0.008033
   131  H   -0.025026
   132  H   -0.010728
   133  H    0.013666
   134  H    0.017126
   135  H   -0.095376
   136  H   -0.001191
   137  H    0.143842
   138  H    0.114508
 Sum of Mulliken charges =  -0.00000

 Dipole moment (field-independent basis, Debye):
    X=              1.6512    Y=              5.1852    Z=              0.4179  Tot=              5.4578
 Quadrupole moment (field-independent basis, Debye-Ang):
   XX=           -339.3564   YY=           -385.3704   ZZ=           -394.3848
   XY=             -7.6472   XZ=             17.8182   YZ=             -1.8813

 Normal termination of Gaussian 16 at Mon Aug 26 03:41:26 2019.
