 Gaussian 16, Revision A.03,
 Gaussian 16:  ES64L-G16RevA.03 25-Dec-2016

 --------------------------
 # td=(NStates=1) B3LYP/SVP
 --------------------------

 --
 TD
 --
 Symbolic Z-matrix:
 Charge =  0 Multiplicity = 1

                         Standard orientation:
 ---------------------------------------------------------------------
 Center     Atomic      Atomic             Coordinates (Angstroms)
 Number     Number       Type             X           Y           Z
 ---------------------------------------------------------------------
      1          6           0       -5.196378   -1.941531    0.481953
      2          6           0       -4.804299    2.730935    1.219832
      3          6           0       -9.343995    3.369209   -0.175090
      4          6           0       -9.864536   -1.408437   -0.994949
      5          7           0       -5.217481    0.402856    0.724195
      6          6           0       -4.579346   -0.771559    0.723288
      7          6           0       -3.155165   -0.582297    1.231850
      8          6           0       -3.156276    0.861121    1.841679
      9          6           0       -4.416392    1.359838    1.258391
     10          6           0       -3.115506    1.009586    3.369664
     11          6           0       -2.174030   -0.729136    0.083085
     12          6           0       -0.769292   -0.773807    0.550512
     13          6           0        0.337841   -0.986740   -0.637159
     14          8           0        0.057651   -1.073706   -1.751941
     15          8           0        1.575712   -0.815649   -0.235604
     16          7           0       -7.084335    2.705996    0.555990
     17          6           0       -5.938672    3.451262    1.015450
     18          6           0       -6.272070    4.781755    0.990491
     19          6           0       -7.528710    4.967648    0.486982
     20          6           0       -8.074933    3.669920    0.294389
     21          6           0       -5.258502    5.903200    1.412173
     22          6           0       -8.176405    6.184661    0.426918
     23          6           0       -8.970428    6.739232   -0.523920
     24          7           0       -9.135458    0.891712   -0.534860
     25          6           0       -9.884243    2.086600   -0.622692
     26          6           0      -11.268285    1.899664   -1.004886
     27          6           0      -11.385103    0.534401   -1.231910
     28          6           0      -10.087279   -0.052126   -0.888204
     29          6           0      -12.208126    2.939232   -1.051462
     30          6           0      -12.624397   -0.168223   -1.663529
     31          6           0      -12.580911   -0.638590   -3.177384
     32          7           0       -7.545880   -1.352122   -0.380569
     33          6           0       -8.693571   -2.083898   -0.736593
     34          6           0       -8.285696   -3.430706   -0.592944
     35          6           0       -6.901901   -3.418170   -0.256312
     36          6           0       -6.542556   -2.084749    0.064762
     37          6           0       -9.161913   -4.634407   -1.019828
     38          6           0       -5.758945   -4.317323    0.134359
     39          8           0       -5.731967   -5.563513    0.096305
     40          6           0       -4.520588   -3.344838    0.473527
     41          6           0       -3.902746   -3.823608    1.817785
     42          8           0       -4.112921   -3.316513    2.914796
     43          8           0       -3.023213   -4.749149    1.544177
     44          6           0       -2.383782   -5.305210    2.754531
     45          6           0        2.659298   -0.883808   -1.124291
     46          6           0        3.975861   -0.748525   -0.483810
     47          6           0        4.998395    0.000995   -0.888525
     48          6           0        4.934005    0.914100   -2.061999
     49          6           0        6.311432    0.065433   -0.118345
     50          6           0        7.405775   -0.520273   -0.880844
     51          6           0        8.765618   -0.427681   -0.151800
     52          6           0       10.053691   -0.896052   -0.836475
     53          6           0       10.068823   -2.429563   -1.037014
     54          6           0       11.289295   -0.499758   -0.028891
     55          6           0       12.747149   -0.582202   -0.670802
     56          6           0       13.825316    0.018758    0.124719
     57          6           0       15.223906   -0.104832   -0.458845
     58          6           0       15.804135   -1.436200   -0.720510
     59          6           0       16.282577    0.639838    0.337670
     60          6           0       17.805774    0.721437   -0.223411
     61          6           0       18.651462    1.656571    0.597562
     62          6           0       20.118822    1.663935    0.195201
     63          6           0       20.381272    2.171190   -1.229199
     64          6           0       20.994289    2.411893    1.185791
     65          1           0       -3.941179    3.331313    1.611341
     66          1           0      -10.113234    4.119319   -0.222792
     67          1           0      -10.707860   -2.016521   -1.402970
     68          1           0       -2.816216   -1.264457    2.030057
     69          1           0       -2.214901    1.201471    1.350597
     70          1           0       -2.095131    0.695562    3.695546
     71          1           0       -3.089640    2.235351    3.404259
     72          1           0       -3.886871    0.498036    3.902407
     73          1           0       -2.292633   -1.643052   -0.474285
     74          1           0       -2.196716   -0.053063   -0.614138
     75          1           0       -0.354762   -0.007560    1.256974
     76          1           0       -0.850635   -1.615290    1.187073
     77          1           0       -4.197916    5.734886    0.761437
     78          1           0       -5.629562    6.813485    1.206105
     79          1           0       -5.010406    5.763377    2.490601
     80          1           0       -7.749775    6.993945    1.068399
     81          1           0       -9.074439    5.973218   -1.326316
     82          1           0       -9.372427    7.895685   -0.447110
     83          1           0      -12.397612    3.561844   -0.200893
     84          1           0      -11.793105    3.487596   -1.834672
     85          1           0      -13.096177    2.592932   -1.223799
     86          1           0      -12.760809   -1.136350   -1.100949
     87          1           0      -13.427163    0.511879   -1.669425
     88          1           0      -12.503672    0.179587   -3.882589
     89          1           0      -12.041440   -1.412397   -3.306232
     90          1           0      -13.516608   -1.087649   -3.375003
     91          1           0       -9.858492   -5.020967   -0.222083
     92          1           0       -9.571330   -4.434274   -2.013646
     93          1           0       -8.564100   -5.440965   -1.082105
     94          1           0       -3.750160   -3.677882   -0.226698
     95          1           0       -1.732192   -5.996016    2.373893
     96          1           0       -1.883343   -4.499506    3.396554
     97          1           0       -3.255557   -5.771720    3.324365
     98          1           0        2.601609   -1.952533   -1.560266
     99          1           0        2.434783   -0.067005   -2.023662
    100          1           0        4.050382   -1.100851    0.436990
    101          1           0        5.373499    1.946740   -1.835887
    102          1           0        5.232224    0.312731   -3.193529
    103          1           0        3.851926    1.364560   -2.414171
    104          1           0        6.514268    1.031263    0.327290
    105          1           0        6.284242   -0.567199    0.975048
    106          1           0        7.291013   -1.584656   -1.226626
    107          1           0        7.529320   -0.083407   -1.857957
    108          1           0        8.844889    0.716357    0.124229
    109          1           0        8.790145   -1.085453    0.825111
    110          1           0       10.239136   -0.279988   -1.841787
    111          1           0        9.159657   -2.799690   -1.351347
    112          1           0       10.986250   -2.926070   -1.676953
    113          1           0       10.202207   -2.795303   -0.030103
    114          1           0       11.262486    0.616907    0.277958
    115          1           0       11.406842   -0.998568    0.933689
    116          1           0       13.128434   -1.682754   -0.748441
    117          1           0       12.665672   -0.082764   -1.615922
    118          1           0       13.673475    1.087933    0.081363
    119          1           0       13.693044   -0.597462    1.180349
    120          1           0       15.264397    0.407977   -1.395723
    121          1           0       15.114082   -2.025691   -1.294430
    122          1           0       16.605878   -1.437527   -1.415918
    123          1           0       15.959850   -2.067733    0.326497
    124          1           0       16.096804    1.615201    0.613581
    125          1           0       16.231612    0.236048    1.202822
    126          1           0       18.242366   -0.404749   -0.142268
    127          1           0       17.701209    0.999088   -1.157453
    128          1           0       18.231688    2.751153    0.345635
    129          1           0       18.538568    1.593054    1.796954
    130          1           0       20.477631    0.592417    0.289283
    131          1           0       20.022078    3.162507   -1.472345
    132          1           0       21.684023    2.295683   -1.301386
    133          1           0       20.218589    1.426977   -2.096006
    134          1           0       20.708294    1.963213    2.272451
    135          1           0       22.104247    2.264203    1.069531
    136          1           0       20.931794    3.488229    1.327814
    137          1           0       -7.098157    1.685094    0.667809
    138          1           0       -7.642957   -0.289615   -0.436926
 ---------------------------------------------------------------------

 SCF Done:  E(RB3LYP) =  -2733.06635688     A.U. after   17 cycles

 Excitation energies and oscillator strengths:

 Excited State   1:      Singlet-A      2.0934 eV  592.26 nm  f=0.1254  <S**2>=0.000
     235 -> 237       -0.21157
     235 -> 238       -0.29947
     236 -> 237        0.57727
     236 -> 238       -0.16595
 This state for optimization and/or second-order correction.
 Total Energy, E(TD-HF/TD-DFT) =  -2732.98942588
 Copying the excited state density for this state as the 1-particle RhoCI density.

 The electronic state is 1-A.
 Alpha  occ. eigenvalues --  -19.18793 -19.17509 -19.12235 -19.11826 -19.11728
 Alpha  occ. eigenvalues --  -14.35938 -14.35614 -14.31721 -14.30120 -10.31269
 Alpha  occ. eigenvalues --  -10.31268 -10.27881 -10.26232 -10.25261 -10.23731
 Alpha  occ. eigenvalues --  -10.22944 -10.22914 -10.22781 -10.22357 -10.22343
 Alpha  occ. eigenvalues --  -10.21691 -10.21501 -10.21485 -10.21213 -10.21012
 Alpha  occ. eigenvalues --  -10.20881 -10.20847 -10.20601 -10.20475 -10.20297
 Alpha  occ. eigenvalues --  -10.20184 -10.20171 -10.20139 -10.20113 -10.20051
 Alpha  occ. eigenvalues --  -10.20021 -10.20010 -10.19999 -10.19946 -10.19780
 Alpha  occ. eigenvalues --  -10.19678 -10.19643 -10.19533 -10.19337 -10.19283
 Alpha  occ. eigenvalues --  -10.19126 -10.18754 -10.18685 -10.18608 -10.18583
 Alpha  occ. eigenvalues --  -10.18524 -10.18384 -10.18359 -10.18258 -10.18209
 Alpha  occ. eigenvalues --  -10.18140 -10.18046 -10.18030 -10.17825 -10.17658
 Alpha  occ. eigenvalues --  -10.17279 -10.16702 -10.16428 -10.15305  -1.12048
 Alpha  occ. eigenvalues --   -1.10364  -1.02978  -1.00205  -0.99758  -0.98055
 Alpha  occ. eigenvalues --   -0.96374  -0.94748  -0.91957  -0.83861  -0.83488
 Alpha  occ. eigenvalues --   -0.82965  -0.82749  -0.82010  -0.80994  -0.80792
 Alpha  occ. eigenvalues --   -0.80445  -0.80233  -0.79272  -0.78992  -0.77970
 Alpha  occ. eigenvalues --   -0.77440  -0.76564  -0.76040  -0.75660  -0.74974
 Alpha  occ. eigenvalues --   -0.73779  -0.73393  -0.72692  -0.72384  -0.70561
 Alpha  occ. eigenvalues --   -0.70104  -0.69677  -0.68929  -0.68237  -0.67535
 Alpha  occ. eigenvalues --   -0.67184  -0.66898  -0.66314  -0.66163  -0.65918
 Alpha  occ. eigenvalues --   -0.64724  -0.63068  -0.62779  -0.62087  -0.61519
 Alpha  occ. eigenvalues --   -0.61310  -0.59797  -0.58464  -0.57680  -0.57590
 Alpha  occ. eigenvalues --   -0.56972  -0.56183  -0.55517  -0.54967  -0.54921
 Alpha  occ. eigenvalues --   -0.54894  -0.54265  -0.54106  -0.53642  -0.52997
 Alpha  occ. eigenvalues --   -0.52890  -0.52592  -0.51343  -0.51074  -0.50635
 Alpha  occ. eigenvalues --   -0.50018  -0.49523  -0.49414  -0.49183  -0.48937
 Alpha  occ. eigenvalues --   -0.48137  -0.47846  -0.47731  -0.47590  -0.47455
 Alpha  occ. eigenvalues --   -0.47253  -0.47176  -0.46598  -0.46367  -0.46088
 Alpha  occ. eigenvalues --   -0.46006  -0.45724  -0.45370  -0.45093  -0.44782
 Alpha  occ. eigenvalues --   -0.44633  -0.44492  -0.44185  -0.43931  -0.43623
 Alpha  occ. eigenvalues --   -0.43379  -0.42844  -0.42708  -0.42612  -0.42484
 Alpha  occ. eigenvalues --   -0.42331  -0.42131  -0.42017  -0.41875  -0.41583
 Alpha  occ. eigenvalues --   -0.41297  -0.41255  -0.40931  -0.40840  -0.40557
 Alpha  occ. eigenvalues --   -0.40418  -0.40380  -0.39759  -0.39411  -0.39260
 Alpha  occ. eigenvalues --   -0.39149  -0.39053  -0.38923  -0.38575  -0.38456
 Alpha  occ. eigenvalues --   -0.38192  -0.38052  -0.37811  -0.37733  -0.37522
 Alpha  occ. eigenvalues --   -0.37145  -0.36951  -0.36733  -0.36672  -0.36410
 Alpha  occ. eigenvalues --   -0.36383  -0.36275  -0.36022  -0.35965  -0.35625
 Alpha  occ. eigenvalues --   -0.35441  -0.35216  -0.35043  -0.34887  -0.34610
 Alpha  occ. eigenvalues --   -0.34570  -0.34531  -0.34338  -0.34068  -0.34029
 Alpha  occ. eigenvalues --   -0.33594  -0.33556  -0.33152  -0.32598  -0.32453
 Alpha  occ. eigenvalues --   -0.32279  -0.31970  -0.31595  -0.31446  -0.31361
 Alpha  occ. eigenvalues --   -0.31023  -0.30974  -0.30889  -0.30680  -0.30559
 Alpha  occ. eigenvalues --   -0.30298  -0.29428  -0.29335  -0.28182  -0.28067
 Alpha  occ. eigenvalues --   -0.27400  -0.27356  -0.26856  -0.26070  -0.25267
 Alpha  occ. eigenvalues --   -0.25216  -0.24183  -0.23887  -0.22017  -0.19628
 Alpha  occ. eigenvalues --   -0.19043
 Alpha virt. eigenvalues --   -0.10125  -0.07779  -0.04038  -0.02069  -0.01072
 Alpha virt. eigenvalues --    0.00076   0.00673   0.01707   0.02701   0.03264
 Alpha virt. eigenvalues --    0.03740   0.03894   0.04157   0.04394   0.04544

 Mulliken charges:
               1
     1  C    0.049746
     2  C   -0.043058
     3  C   -0.112630
     4  C   -0.104962
     5  N   -0.160506
     6  C   -0.055679
     7  C   -0.080320
     8  C   -0.022262
     9  C   -0.065655
    10  C    0.091089
    11  C    0.164725
    12  C   -0.012303
    13  C    0.146862
    14  O   -0.175818
    15  O   -0.274884
    16  N   -0.142159
    17  C    0.131304
    18  C   -0.120420
    19  C    0.094315
    20  C    0.190368
    21  C    0.105228
    22  C   -0.124408
    23  C   -0.069208
    24  N   -0.276326
    25  C    0.033330
    26  C   -0.155587
    27  C   -0.087777
    28  C    0.109892
    29  C    0.248981
    30  C    0.073262
    31  C    0.105486
    32  N   -0.053810
    33  C    0.084338
    34  C   -0.163796
    35  C   -0.048287
    36  C    0.088390
    37  C    0.161891
    38  C    0.096176
    39  O   -0.209534
    40  C   -0.051587
    41  C    0.185551
    42  O   -0.252564
    43  O   -0.284140
    44  C    0.187280
    45  C    0.220829
    46  C   -0.005949
    47  C   -0.091581
    48  C   -0.063475
    49  C    0.043500
    50  C    0.071409
    51  C   -0.053566
    52  C   -0.040683
    53  C    0.057258
    54  C   -0.000281
    55  C    0.017521
    56  C    0.032282
    57  C   -0.034957
    58  C    0.045252
    59  C    0.126489
    60  C    0.060044
    61  C   -0.036695
    62  C   -0.039303
    63  C   -0.042169
    64  C   -0.008627
    65  H   -0.031887
    66  H   -0.037910
    67  H   -0.015839
    68  H    0.000046
    69  H   -0.001304
    70  H    0.015681
    71  H    0.024179
    72  H    0.038107
    73  H   -0.000856
    74  H   -0.054458
    75  H    0.026382
    76  H   -0.009461
    77  H    0.046844
    78  H   -0.014741
    79  H    0.037599
    80  H    0.003945
    81  H    0.035585
    82  H    0.069450
    83  H    0.013608
    84  H    0.010626
    85  H   -0.071025
    86  H    0.011503
    87  H   -0.019560
    88  H    0.013547
    89  H   -0.050872
    90  H   -0.024834
    91  H    0.026990
    92  H    0.028141
    93  H   -0.021672
    94  H    0.054468
    95  H    0.018301
    96  H    0.054535
    97  H    0.054712
    98  H    0.029690
    99  H    0.043526
   100  H   -0.063736
   101  H    0.038372
   102  H    0.061589
   103  H    0.030474
   104  H    0.004148
   105  H    0.002396
   106  H   -0.006861
   107  H   -0.015190
   108  H    0.008189
   109  H    0.006529
   110  H   -0.001276
   111  H   -0.013448
   112  H    0.038098
   113  H   -0.010408
   114  H   -0.010912
   115  H   -0.021154
   116  H    0.008355
   117  H   -0.022866
   118  H   -0.013312
   119  H    0.009520
   120  H   -0.039119
   121  H   -0.021878
   122  H    0.000919
   123  H    0.016149
   124  H   -0.055665
   125  H   -0.084432
   126  H    0.017394
   127  H   -0.039414
   128  H   -0.002093
   129  H    0.017888
   130  H    0.001708
   131  H    0.018486
   132  H    0.006885
   133  H    0.033422
   134  H    0.006717
   135  H    0.012723
   136  H    0.004651
   137  H    0.152867
   138  H    0.163403
 Sum of Mulliken charges =  -0.00000

 Dipole moment (field-independent basis, Debye):
    X=              1.6944    Y=              4.4467    Z=              0.5116  Tot=              4.7860
 Quadrupole moment (field-independent basis, Debye-Ang):
   XX=           -357.8276   YY=           -377.4475   ZZ=           -395.8478
   XY=            -28.6466   XZ=              5.2896   YZ=             -1.5965

 Normal termination of Gaussian 16 at Sat Aug 31 08:40:52 2019.
