 Gaussian 16, Revision A.03,
 Gaussian 16:  ES64L-G16RevA.03 25-Dec-2016

 --------------------------
 # td=(NStates=1) B3LYP/SVP
 --------------------------

 --
 TD
 --
 Symbolic Z-matrix:
 Charge =  0 Multiplicity = 1

                         Standard orientation:
 ---------------------------------------------------------------------
 Center     Atomic      Atomic             Coordinates (Angstroms)
 Number     Number       Type             X           Y           Z
 ---------------------------------------------------------------------
      1          6           0       -5.100462   -1.911551    0.383225
      2          6           0       -4.706766    2.634383    1.479975
      3          6           0       -9.326656    3.377985   -0.207211
      4          6           0       -9.757808   -1.432789   -1.001371
      5          7           0       -5.204525    0.470346    0.630024
      6          6           0       -4.520061   -0.693511    0.683204
      7          6           0       -3.014270   -0.645704    1.171361
      8          6           0       -2.998715    0.794551    1.752087
      9          6           0       -4.379821    1.262968    1.362097
     10          6           0       -2.926850    0.964584    3.285657
     11          6           0       -1.974870   -0.794203    0.021196
     12          6           0       -0.546334   -0.705619    0.475435
     13          6           0        0.396468   -1.008719   -0.695266
     14          8           0        0.122292   -1.481572   -1.775952
     15          8           0        1.650432   -0.764877   -0.316138
     16          7           0       -6.961931    2.678491    0.442960
     17          6           0       -5.893316    3.281132    0.969100
     18          6           0       -6.169672    4.746081    1.076792
     19          6           0       -7.523900    4.934206    0.457618
     20          6           0       -8.011273    3.616952    0.198424
     21          6           0       -5.220226    5.765581    1.550374
     22          6           0       -8.272416    6.210479    0.472487
     23          6           0       -9.206056    6.710606   -0.465788
     24          7           0       -9.269533    0.955948   -0.366051
     25          6           0       -9.936671    2.100073   -0.429226
     26          6           0      -11.320792    1.884183   -0.890390
     27          6           0      -11.341915    0.558156   -1.159211
     28          6           0      -10.028957   -0.083442   -0.794365
     29          6           0      -12.286504    3.001588   -0.974843
     30          6           0      -12.683659   -0.124951   -1.671392
     31          6           0      -12.720037   -0.269456   -3.264284
     32          7           0       -7.534370   -1.223796   -0.066028
     33          6           0       -8.608333   -1.991466   -0.491791
     34          6           0       -8.194326   -3.335737   -0.493046
     35          6           0       -6.851840   -3.405378   -0.115504
     36          6           0       -6.508343   -2.011861    0.075747
     37          6           0       -9.013629   -4.572382   -0.890870
     38          6           0       -5.705814   -4.394175   -0.034422
     39          8           0       -5.755233   -5.557873   -0.087916
     40          6           0       -4.529301   -3.380254    0.394594
     41          6           0       -3.716081   -3.765308    1.690443
     42          8           0       -4.023410   -3.421631    2.808875
     43          8           0       -2.911882   -4.799409    1.527278
     44          6           0       -2.356826   -5.489438    2.655922
     45          6           0        2.705026   -1.186176   -1.265534
     46          6           0        3.972480   -0.888512   -0.672541
     47          6           0        5.001557   -0.038378   -1.062374
     48          6           0        4.978065    0.782958   -2.364063
     49          6           0        6.277024    0.154155   -0.261974
     50          6           0        7.442036   -0.583336   -0.887662
     51          6           0        8.805034   -0.310993   -0.180373
     52          6           0       10.107609   -0.888119   -0.776776
     53          6           0        9.944898   -2.502749   -0.763718
     54          6           0       11.317326   -0.333792    0.061158
     55          6           0       12.645407   -0.591671   -0.640792
     56          6           0       13.738089   -0.058241    0.254973
     57          6           0       15.197519   -0.155625   -0.429762
     58          6           0       15.559683   -1.648998   -0.492309
     59          6           0       16.201230    0.611351    0.351928
     60          6           0       17.634770    0.716841   -0.287189
     61          6           0       18.510339    1.680701    0.655213
     62          6           0       19.885912    1.860401    0.091903
     63          6           0       19.956182    2.719151   -1.178586
     64          6           0       20.854731    2.517312    1.208073
     65          1           0       -4.055441    3.233556    2.068787
     66          1           0       -9.756883    4.323828   -0.409403
     67          1           0      -10.535665   -1.956589   -1.364804
     68          1           0       -2.807734   -1.279313    1.860516
     69          1           0       -2.197619    1.580535    1.158546
     70          1           0       -1.954408    0.804740    3.687074
     71          1           0       -3.004269    1.972510    3.432265
     72          1           0       -3.768151    0.380084    3.842939
     73          1           0       -1.969012   -1.916827   -0.635898
     74          1           0       -2.021123   -0.010112   -0.763750
     75          1           0       -0.306401    0.316477    0.849063
     76          1           0       -0.401876   -1.546361    1.291004
     77          1           0       -4.250389    5.600519    1.023370
     78          1           0       -5.638978    6.789905    1.143390
     79          1           0       -4.967475    5.745169    2.743581
     80          1           0       -7.791263    6.951225    1.112265
     81          1           0       -9.602774    5.914341   -1.273653
     82          1           0       -9.504343    7.669009   -0.608361
     83          1           0      -12.578610    3.605893   -0.134097
     84          1           0      -11.955725    3.657855   -1.777514
     85          1           0      -13.176358    2.531782   -1.562834
     86          1           0      -12.628209   -0.947409   -1.260294
     87          1           0      -13.403492    0.484768   -1.408389
     88          1           0      -12.744251    0.825905   -3.676255
     89          1           0      -11.867770   -0.708253   -3.550475
     90          1           0      -13.656904   -0.932271   -3.398566
     91          1           0       -9.786887   -4.755425   -0.186126
     92          1           0       -9.392509   -4.510030   -1.991194
     93          1           0       -8.466733   -5.412300   -0.602584
     94          1           0       -3.773686   -3.558161   -0.542981
     95          1           0       -1.699701   -6.233245    2.280967
     96          1           0       -1.726465   -4.989917    3.203499
     97          1           0       -3.238199   -5.646749    3.386535
     98          1           0        2.753269   -2.229073   -1.569953
     99          1           0        2.654483   -0.563575   -2.101631
    100          1           0        4.262621   -1.350763    0.194374
    101          1           0        5.084059    1.935785   -2.172185
    102          1           0        5.545556    0.516424   -2.961215
    103          1           0        4.013302    0.698492   -2.986882
    104          1           0        6.596245    1.301699   -0.541603
    105          1           0        6.003639    0.041628    0.784032
    106          1           0        7.111006   -1.633336   -0.893522
    107          1           0        7.401142   -0.058929   -1.937590
    108          1           0        8.773480    0.896642   -0.033004
    109          1           0        8.689478   -0.677077    0.912674
    110          1           0       10.205317   -0.537359   -1.723049
    111          1           0        9.163813   -2.645146   -1.262125
    112          1           0       10.925581   -2.876029   -1.167828
    113          1           0        9.920104   -2.887642    0.258748
    114          1           0       11.190378    0.738879    0.322193
    115          1           0       11.419663   -1.008094    1.070873
    116          1           0       12.845893   -1.707724   -0.787071
    117          1           0       12.750204   -0.081589   -1.692145
    118          1           0       13.562012    0.944562    0.628664
    119          1           0       13.538799   -0.690638    1.044659
    120          1           0       15.029245    0.235630   -1.355484
    121          1           0       14.879531   -2.331637   -0.994254
    122          1           0       16.450118   -1.765667   -1.209294
    123          1           0       15.771492   -2.089526    0.476075
    124          1           0       15.644739    1.456023    0.479749
    125          1           0       16.197284    0.327336    1.367509
    126          1           0       18.104016   -0.274835   -0.452757
    127          1           0       17.612674    1.146014   -1.201926
    128          1           0       17.921710    2.719144    0.813413
    129          1           0       18.603120    1.159029    1.533648
    130          1           0       20.354174    0.830525   -0.129360
    131          1           0       19.686835    3.924131   -0.989472
    132          1           0       21.060800    2.660655   -1.655427
    133          1           0       19.559643    2.458800   -2.170722
    134          1           0       20.910411    1.895688    2.150642
    135          1           0       21.848217    2.379319    0.793300
    136          1           0       20.553151    3.579790    1.535219
    137          1           0       -7.092844    1.629847    0.773446
    138          1           0       -7.413457   -0.119619   -0.440967
 ---------------------------------------------------------------------

 SCF Done:  E(RB3LYP) =  -2732.97322009     A.U. after   16 cycles

 Excitation energies and oscillator strengths:

 Excited State   1:      Singlet-A      2.0287 eV  611.14 nm  f=0.1783  <S**2>=0.000
     235 -> 238        0.28274
     236 -> 237        0.64186
 This state for optimization and/or second-order correction.
 Total Energy, E(TD-HF/TD-DFT) =  -2732.89866598
 Copying the excited state density for this state as the 1-particle RhoCI density.

 The electronic state is 1-A.
 Alpha  occ. eigenvalues --  -19.17788 -19.17784 -19.13606 -19.12325 -19.11795
 Alpha  occ. eigenvalues --  -14.37357 -14.36788 -14.32856 -14.29232 -10.31722
 Alpha  occ. eigenvalues --  -10.31329 -10.28974 -10.24215 -10.23921 -10.23859
 Alpha  occ. eigenvalues --  -10.23318 -10.23099 -10.22958 -10.22879 -10.22813
 Alpha  occ. eigenvalues --  -10.22340 -10.21999 -10.21860 -10.21599 -10.21414
 Alpha  occ. eigenvalues --  -10.21267 -10.21120 -10.21065 -10.21024 -10.20941
 Alpha  occ. eigenvalues --  -10.20731 -10.20665 -10.20514 -10.20096 -10.20088
 Alpha  occ. eigenvalues --  -10.20025 -10.19943 -10.19929 -10.19834 -10.19568
 Alpha  occ. eigenvalues --  -10.19528 -10.19493 -10.19490 -10.18894 -10.18859
 Alpha  occ. eigenvalues --  -10.18854 -10.18705 -10.18693 -10.18687 -10.18570
 Alpha  occ. eigenvalues --  -10.18375 -10.18371 -10.18241 -10.18107 -10.18099
 Alpha  occ. eigenvalues --  -10.17699 -10.17637 -10.17580 -10.17352 -10.17309
 Alpha  occ. eigenvalues --  -10.17226 -10.16681 -10.16208 -10.16109  -1.10245
 Alpha  occ. eigenvalues --   -1.09478  -1.06246  -1.00214  -0.99991  -0.99283
 Alpha  occ. eigenvalues --   -0.96826  -0.95118  -0.93338  -0.83145  -0.82898
 Alpha  occ. eigenvalues --   -0.82012  -0.81581  -0.81150  -0.80468  -0.80351
 Alpha  occ. eigenvalues --   -0.79404  -0.79135  -0.78947  -0.78669  -0.78197
 Alpha  occ. eigenvalues --   -0.77052  -0.75866  -0.75406  -0.74991  -0.74261
 Alpha  occ. eigenvalues --   -0.74150  -0.73275  -0.71834  -0.71725  -0.70525
 Alpha  occ. eigenvalues --   -0.69974  -0.69245  -0.68731  -0.68110  -0.67345
 Alpha  occ. eigenvalues --   -0.67277  -0.67164  -0.66286  -0.65212  -0.64805
 Alpha  occ. eigenvalues --   -0.63806  -0.62623  -0.62162  -0.61894  -0.61603
 Alpha  occ. eigenvalues --   -0.61134  -0.59304  -0.58430  -0.58284  -0.57168
 Alpha  occ. eigenvalues --   -0.57151  -0.56498  -0.56217  -0.55924  -0.55660
 Alpha  occ. eigenvalues --   -0.54810  -0.54363  -0.53996  -0.53532  -0.52963
 Alpha  occ. eigenvalues --   -0.52416  -0.52088  -0.51661  -0.50592  -0.50066
 Alpha  occ. eigenvalues --   -0.49803  -0.49160  -0.49018  -0.48820  -0.48347
 Alpha  occ. eigenvalues --   -0.48092  -0.47957  -0.47500  -0.47353  -0.47197
 Alpha  occ. eigenvalues --   -0.46886  -0.46827  -0.46465  -0.46255  -0.45903
 Alpha  occ. eigenvalues --   -0.45691  -0.45373  -0.44992  -0.44772  -0.44696
 Alpha  occ. eigenvalues --   -0.44559  -0.44288  -0.43997  -0.43856  -0.43646
 Alpha  occ. eigenvalues --   -0.43304  -0.43228  -0.42988  -0.42865  -0.42693
 Alpha  occ. eigenvalues --   -0.42531  -0.42302  -0.41856  -0.41616  -0.41459
 Alpha  occ. eigenvalues --   -0.41225  -0.41038  -0.40885  -0.40463  -0.40372
 Alpha  occ. eigenvalues --   -0.40232  -0.40112  -0.39919  -0.39719  -0.39519
 Alpha  occ. eigenvalues --   -0.39189  -0.38967  -0.38608  -0.38536  -0.38361
 Alpha  occ. eigenvalues --   -0.38217  -0.38031  -0.37947  -0.37713  -0.37603
 Alpha  occ. eigenvalues --   -0.37314  -0.37229  -0.36977  -0.36878  -0.36784
 Alpha  occ. eigenvalues --   -0.36659  -0.36113  -0.36048  -0.35734  -0.35644
 Alpha  occ. eigenvalues --   -0.35372  -0.35290  -0.35181  -0.35000  -0.34884
 Alpha  occ. eigenvalues --   -0.34766  -0.34589  -0.34512  -0.34421  -0.34254
 Alpha  occ. eigenvalues --   -0.33372  -0.32882  -0.32705  -0.32614  -0.32514
 Alpha  occ. eigenvalues --   -0.32239  -0.32107  -0.32061  -0.31953  -0.31542
 Alpha  occ. eigenvalues --   -0.31164  -0.30808  -0.30726  -0.30677  -0.30363
 Alpha  occ. eigenvalues --   -0.30292  -0.29789  -0.29068  -0.27973  -0.27732
 Alpha  occ. eigenvalues --   -0.27613  -0.27149  -0.26649  -0.26079  -0.25349
 Alpha  occ. eigenvalues --   -0.24683  -0.24510  -0.23028  -0.22293  -0.19385
 Alpha  occ. eigenvalues --   -0.18665
 Alpha virt. eigenvalues --   -0.10130  -0.07152  -0.04333  -0.02985  -0.01087
 Alpha virt. eigenvalues --   -0.00702   0.00101   0.00271   0.02265   0.03638
 Alpha virt. eigenvalues --    0.04083   0.04369   0.04599   0.04780   0.04824

 Mulliken charges:
               1
     1  C    0.016135
     2  C   -0.066951
     3  C   -0.028072
     4  C   -0.046132
     5  N   -0.172892
     6  C   -0.077896
     7  C    0.183439
     8  C   -0.173196
     9  C    0.015361
    10  C    0.144263
    11  C   -0.049170
    12  C    0.004797
    13  C    0.173033
    14  O   -0.238346
    15  O   -0.316607
    16  N   -0.088253
    17  C    0.076950
    18  C   -0.144223
    19  C    0.015828
    20  C    0.071186
    21  C    0.010775
    22  C   -0.037043
    23  C   -0.034983
    24  N   -0.198029
    25  C    0.053321
    26  C   -0.129290
    27  C   -0.197348
    28  C    0.051429
    29  C    0.140106
    30  C    0.237408
    31  C    0.011004
    32  N   -0.048464
    33  C    0.125499
    34  C   -0.181355
    35  C   -0.093421
    36  C    0.031487
    37  C    0.155271
    38  C    0.130227
    39  O   -0.096823
    40  C   -0.103457
    41  C    0.198568
    42  O   -0.243120
    43  O   -0.283019
    44  C    0.254090
    45  C    0.433436
    46  C   -0.112091
    47  C   -0.183711
    48  C    0.159818
    49  C    0.025436
    50  C    0.010488
    51  C   -0.031864
    52  C    0.013002
    53  C    0.115578
    54  C   -0.019441
    55  C   -0.021188
    56  C    0.041541
    57  C   -0.010756
    58  C    0.022999
    59  C    0.139910
    60  C    0.084314
    61  C    0.061196
    62  C   -0.099779
    63  C   -0.047131
    64  C    0.014587
    65  H   -0.047137
    66  H   -0.075605
    67  H   -0.070812
    68  H   -0.083614
    69  H    0.044532
    70  H   -0.006697
    71  H   -0.033589
    72  H    0.053003
    73  H    0.054492
    74  H    0.011044
    75  H    0.033801
    76  H    0.049185
    77  H    0.036050
    78  H    0.037885
    79  H    0.056368
    80  H    0.002727
    81  H    0.056060
    82  H    0.008390
    83  H    0.034436
    84  H    0.001644
    85  H   -0.004028
    86  H   -0.082992
    87  H   -0.045415
    88  H    0.025208
    89  H   -0.015516
    90  H    0.030147
    91  H   -0.000732
    92  H    0.050688
    93  H   -0.005200
    94  H    0.071716
    95  H    0.022434
    96  H   -0.031044
    97  H    0.048847
    98  H    0.033100
    99  H   -0.028959
   100  H   -0.058504
   101  H    0.033372
   102  H   -0.088304
   103  H    0.000352
   104  H    0.007106
   105  H    0.009372
   106  H    0.008891
   107  H    0.012052
   108  H   -0.000143
   109  H   -0.001727
   110  H   -0.041105
   111  H   -0.042003
   112  H    0.010983
   113  H    0.004905
   114  H    0.007076
   115  H    0.007825
   116  H    0.011914
   117  H   -0.002119
   118  H   -0.020670
   119  H   -0.045479
   120  H   -0.046149
   121  H   -0.007101
   122  H    0.000645
   123  H    0.003738
   124  H   -0.062285
   125  H   -0.043850
   126  H   -0.001056
   127  H   -0.043639
   128  H    0.013941
   129  H   -0.029104
   130  H    0.003434
   131  H    0.030019
   132  H    0.003201
   133  H    0.015387
   134  H    0.004908
   135  H    0.004702
   136  H    0.028345
   137  H    0.200486
   138  H    0.231736
 Sum of Mulliken charges =  -0.00000

 Dipole moment (field-independent basis, Debye):
    X=              4.1670    Y=              3.2513    Z=              0.6641  Tot=              5.3269
 Quadrupole moment (field-independent basis, Debye-Ang):
   XX=           -370.8362   YY=           -380.2044   ZZ=           -393.8564
   XY=            -28.7021   XZ=              4.4112   YZ=             -3.4676

 Normal termination of Gaussian 16 at Fri Aug 23 21:16:41 2019.
