 Gaussian 16, Revision A.03,
 Gaussian 16:  ES64L-G16RevA.03 25-Dec-2016

 --------------------------
 # td=(NStates=1) B3LYP/SVP
 --------------------------

 --
 TD
 --
 Symbolic Z-matrix:
 Charge =  0 Multiplicity = 1

                         Standard orientation:
 ---------------------------------------------------------------------
 Center     Atomic      Atomic             Coordinates (Angstroms)
 Number     Number       Type             X           Y           Z
 ---------------------------------------------------------------------
      1          6           0       -5.129267   -1.967301    0.577784
      2          6           0       -4.610776    2.695237    1.412632
      3          6           0       -9.351824    3.352536   -0.166413
      4          6           0       -9.896030   -1.450607   -1.014009
      5          7           0       -5.129158    0.458282    0.796646
      6          6           0       -4.466486   -0.790933    0.845738
      7          6           0       -3.043836   -0.583827    1.365223
      8          6           0       -3.132508    0.830229    1.894369
      9          6           0       -4.350925    1.389917    1.319718
     10          6           0       -2.954945    0.926693    3.354021
     11          6           0       -2.052273   -0.867875    0.105008
     12          6           0       -0.566768   -0.774772    0.407878
     13          6           0        0.340985   -0.995193   -0.708124
     14          8           0        0.137491   -1.541349   -1.791393
     15          8           0        1.588055   -0.609642   -0.236629
     16          7           0       -6.879410    2.744692    0.360000
     17          6           0       -5.825488    3.404833    0.974353
     18          6           0       -6.166304    4.730269    1.137185
     19          6           0       -7.513449    4.974356    0.736954
     20          6           0       -7.918299    3.636665    0.208104
     21          6           0       -5.263604    5.840981    1.590101
     22          6           0       -8.234080    6.220113    0.585148
     23          6           0       -9.077952    6.647878   -0.385393
     24          7           0       -9.252204    0.921182   -0.450836
     25          6           0       -9.804774    2.091142   -0.420444
     26          6           0      -11.249177    1.896876   -0.942407
     27          6           0      -11.357434    0.516596   -1.271195
     28          6           0      -10.107174   -0.015099   -0.983807
     29          6           0      -12.282766    2.999023   -1.142853
     30          6           0      -12.629393   -0.131335   -1.913519
     31          6           0      -12.463225   -0.262809   -3.415885
     32          7           0       -7.435214   -1.253001   -0.264425
     33          6           0       -8.553638   -2.003706   -0.732678
     34          6           0       -8.153140   -3.426077   -0.776484
     35          6           0       -6.883939   -3.445326   -0.242241
     36          6           0       -6.477968   -2.081167    0.026220
     37          6           0       -8.933858   -4.593095   -1.181688
     38          6           0       -5.773159   -4.410169    0.097356
     39          8           0       -5.734404   -5.565684    0.122918
     40          6           0       -4.598221   -3.425281    0.509388
     41          6           0       -3.985381   -3.864039    1.828606
     42          8           0       -4.314623   -3.422868    2.934351
     43          8           0       -3.129066   -4.923887    1.701351
     44          6           0       -2.503386   -5.433668    2.843289
     45          6           0        2.655839   -0.958358   -1.187374
     46          6           0        3.991530   -0.626367   -0.565103
     47          6           0        5.018634    0.113528   -1.141094
     48          6           0        4.959267    0.649887   -2.552275
     49          6           0        6.275105    0.309713   -0.416316
     50          6           0        7.382877   -0.383511   -1.027953
     51          6           0        8.772971   -0.184386   -0.223551
     52          6           0       10.057593   -0.834294   -0.884368
     53          6           0        9.881615   -2.381852   -0.744531
     54          6           0       11.223710   -0.191600   -0.060580
     55          6           0       12.619386   -0.734858   -0.599754
     56          6           0       13.723663    0.029221    0.159595
     57          6           0       15.246778   -0.158445   -0.401170
     58          6           0       15.620245   -1.680667   -0.393451
     59          6           0       16.276397    0.557098    0.409832
     60          6           0       17.651269    0.642130   -0.206845
     61          6           0       18.663984    1.574059    0.638102
     62          6           0       19.984129    1.736128    0.111868
     63          6           0       20.264353    2.468737   -1.295173
     64          6           0       20.844647    2.414798    1.154699
     65          1           0       -3.953322    3.455634    2.164672
     66          1           0      -10.090506    4.191444   -0.015529
     67          1           0      -10.576897   -1.992110   -1.544177
     68          1           0       -2.874314   -1.176104    2.182766
     69          1           0       -2.122985    1.258341    1.401093
     70          1           0       -1.989868    0.702739    3.878925
     71          1           0       -2.863780    1.974763    3.794081
     72          1           0       -3.726689    0.410016    4.003372
     73          1           0       -2.541365   -1.863257   -0.395746
     74          1           0       -2.202328    0.047065   -0.652649
     75          1           0       -0.145146    0.059474    1.025066
     76          1           0       -0.679787   -1.474590    1.193730
     77          1           0       -4.291572    6.072192    0.918475
     78          1           0       -5.973913    6.787848    1.643674
     79          1           0       -4.955917    5.891313    2.624050
     80          1           0       -7.925078    6.992605    1.256658
     81          1           0       -9.338741    5.895368   -1.209863
     82          1           0       -9.385140    7.629801   -0.362242
     83          1           0      -12.263911    3.722837   -0.226957
     84          1           0      -12.112837    3.657830   -2.073611
     85          1           0      -13.241761    2.562737   -1.058293
     86          1           0      -12.794672   -1.090503   -1.581742
     87          1           0      -13.304474    0.551024   -1.660074
     88          1           0      -12.409582    0.690281   -3.825355
     89          1           0      -11.482002   -0.822950   -3.793380
     90          1           0      -13.145738   -1.047262   -3.998793
     91          1           0       -9.797355   -4.549227   -0.588156
     92          1           0       -9.333916   -4.455333   -2.026465
     93          1           0       -8.451263   -5.643272   -0.858152
     94          1           0       -3.771625   -3.678056   -0.258780
     95          1           0       -1.508015   -5.954894    2.500681
     96          1           0       -2.002492   -4.735739    3.578983
     97          1           0       -3.212276   -6.064781    3.353144
     98          1           0        2.293833   -2.181743   -1.008442
     99          1           0        2.376153   -0.480828   -2.135360
    100          1           0        3.919242   -1.113783    0.589644
    101          1           0        5.163065    1.650055   -2.302268
    102          1           0        5.771095    0.501178   -3.133351
    103          1           0        4.043162    0.378563   -3.359581
    104          1           0        6.374433    1.551224   -0.529381
    105          1           0        6.290670    0.207349    0.565764
    106          1           0        7.085732   -1.508191   -1.296490
    107          1           0        7.594555    0.039040   -2.063477
    108          1           0        8.936527    0.928463   -0.203285
    109          1           0        8.587566   -0.742880    0.771355
    110          1           0       10.028982   -0.454958   -1.866515
    111          1           0        8.923862   -2.677104   -1.275378
    112          1           0       10.731494   -2.980068   -1.072310
    113          1           0        9.700068   -2.739276    0.253947
    114          1           0       11.279426    0.861207   -0.402888
    115          1           0       11.259887   -0.492115    1.008410
    116          1           0       12.662543   -1.911640   -0.292220
    117          1           0       12.687116   -0.421421   -1.794325
    118          1           0       13.380562    1.118877    0.337800
    119          1           0       13.672363   -0.478353    1.215196
    120          1           0       15.114457    0.307581   -1.447242
    121          1           0       15.073658   -2.270688   -1.134914
    122          1           0       16.639881   -1.715263   -0.764974
    123          1           0       15.434305   -2.151414    0.712797
    124          1           0       15.908687    1.523070    0.545552
    125          1           0       16.224649   -0.077322    1.395796
    126          1           0       18.178657   -0.458187   -0.209934
    127          1           0       17.681677    0.977816   -1.120239
    128          1           0       18.008741    2.341407    0.754445
    129          1           0       18.606958    1.012447    1.621448
    130          1           0       20.535049    0.658839    0.057056
    131          1           0       20.038219    3.518714   -1.306264
    132          1           0       21.241547    2.402290   -1.842652
    133          1           0       19.538556    2.003513   -2.115663
    134          1           0       20.947310    1.862836    2.100549
    135          1           0       22.033966    2.478103    0.830738
    136          1           0       20.636227    3.509364    1.481368
    137          1           0       -7.089212    1.798207    0.371207
    138          1           0       -7.415308   -0.322944   -0.038751
 ---------------------------------------------------------------------

 SCF Done:  E(RB3LYP) =  -2732.99414397     A.U. after   16 cycles

 Excitation energies and oscillator strengths:

 Excited State   1:      Singlet-A      1.9385 eV  639.59 nm  f=0.1675  <S**2>=0.000
     235 -> 237       -0.20199
     235 -> 238       -0.25913
     236 -> 237        0.61340
     236 -> 238       -0.10903
 This state for optimization and/or second-order correction.
 Total Energy, E(TD-HF/TD-DFT) =  -2732.92290546
 Copying the excited state density for this state as the 1-particle RhoCI density.

 The electronic state is 1-A.
 Alpha  occ. eigenvalues --  -19.17843 -19.16490 -19.13660 -19.12717 -19.12101
 Alpha  occ. eigenvalues --  -14.37840 -14.37110 -14.31944 -14.29199 -10.31716
 Alpha  occ. eigenvalues --  -10.31207 -10.28799 -10.25294 -10.24960 -10.24884
 Alpha  occ. eigenvalues --  -10.24501 -10.23916 -10.23794 -10.23127 -10.22260
 Alpha  occ. eigenvalues --  -10.21852 -10.21829 -10.21581 -10.21377 -10.21293
 Alpha  occ. eigenvalues --  -10.21133 -10.21057 -10.20990 -10.20975 -10.20910
 Alpha  occ. eigenvalues --  -10.20770 -10.20668 -10.20515 -10.20502 -10.20452
 Alpha  occ. eigenvalues --  -10.20282 -10.20253 -10.19898 -10.19789 -10.19770
 Alpha  occ. eigenvalues --  -10.19761 -10.19751 -10.19694 -10.19671 -10.19659
 Alpha  occ. eigenvalues --  -10.19457 -10.19432 -10.19361 -10.19272 -10.19164
 Alpha  occ. eigenvalues --  -10.19148 -10.19081 -10.19074 -10.19029 -10.18950
 Alpha  occ. eigenvalues --  -10.18948 -10.18751 -10.18525 -10.18206 -10.18178
 Alpha  occ. eigenvalues --  -10.18002 -10.17955 -10.17842 -10.17588  -1.08890
 Alpha  occ. eigenvalues --   -1.07472  -1.07036  -0.99755  -0.99503  -0.99412
 Alpha  occ. eigenvalues --   -0.98136  -0.94412  -0.93856  -0.83955  -0.83619
 Alpha  occ. eigenvalues --   -0.82102  -0.81937  -0.81905  -0.81271  -0.80547
 Alpha  occ. eigenvalues --   -0.80114  -0.79427  -0.79266  -0.78525  -0.77915
 Alpha  occ. eigenvalues --   -0.76825  -0.76090  -0.75329  -0.74459  -0.74084
 Alpha  occ. eigenvalues --   -0.73923  -0.72784  -0.72757  -0.71854  -0.71483
 Alpha  occ. eigenvalues --   -0.69988  -0.69201  -0.69014  -0.67845  -0.67268
 Alpha  occ. eigenvalues --   -0.67161  -0.66682  -0.66446  -0.66276  -0.64812
 Alpha  occ. eigenvalues --   -0.63385  -0.63031  -0.62357  -0.61947  -0.61616
 Alpha  occ. eigenvalues --   -0.60599  -0.59353  -0.58696  -0.57880  -0.56790
 Alpha  occ. eigenvalues --   -0.56558  -0.56450  -0.56186  -0.55868  -0.55717
 Alpha  occ. eigenvalues --   -0.54966  -0.54702  -0.54109  -0.53545  -0.53303
 Alpha  occ. eigenvalues --   -0.52731  -0.52423  -0.51485  -0.50893  -0.50175
 Alpha  occ. eigenvalues --   -0.50056  -0.49718  -0.49379  -0.49061  -0.48598
 Alpha  occ. eigenvalues --   -0.48488  -0.48144  -0.48073  -0.47573  -0.46938
 Alpha  occ. eigenvalues --   -0.46832  -0.46385  -0.46240  -0.46069  -0.45745
 Alpha  occ. eigenvalues --   -0.45644  -0.45555  -0.45320  -0.45016  -0.44792
 Alpha  occ. eigenvalues --   -0.44501  -0.44379  -0.44007  -0.43928  -0.43864
 Alpha  occ. eigenvalues --   -0.43732  -0.43622  -0.43415  -0.42681  -0.42504
 Alpha  occ. eigenvalues --   -0.42350  -0.42256  -0.41941  -0.41815  -0.41685
 Alpha  occ. eigenvalues --   -0.41379  -0.41245  -0.40743  -0.40578  -0.40558
 Alpha  occ. eigenvalues --   -0.40206  -0.39978  -0.39928  -0.39453  -0.39376
 Alpha  occ. eigenvalues --   -0.39283  -0.38955  -0.38853  -0.38461  -0.38234
 Alpha  occ. eigenvalues --   -0.38135  -0.37961  -0.37750  -0.37598  -0.37569
 Alpha  occ. eigenvalues --   -0.37559  -0.37092  -0.36836  -0.36829  -0.36679
 Alpha  occ. eigenvalues --   -0.36430  -0.36238  -0.36113  -0.35873  -0.35486
 Alpha  occ. eigenvalues --   -0.35361  -0.35167  -0.35005  -0.34903  -0.34833
 Alpha  occ. eigenvalues --   -0.34662  -0.34624  -0.34128  -0.33871  -0.33400
 Alpha  occ. eigenvalues --   -0.32910  -0.32625  -0.32540  -0.32218  -0.31987
 Alpha  occ. eigenvalues --   -0.31662  -0.31602  -0.31186  -0.31131  -0.30912
 Alpha  occ. eigenvalues --   -0.30856  -0.30725  -0.30597  -0.30242  -0.30165
 Alpha  occ. eigenvalues --   -0.29164  -0.29062  -0.28167  -0.28012  -0.27670
 Alpha  occ. eigenvalues --   -0.27287  -0.27149  -0.26998  -0.26686  -0.25840
 Alpha  occ. eigenvalues --   -0.25002  -0.24121  -0.23919  -0.22239  -0.19674
 Alpha  occ. eigenvalues --   -0.18940
 Alpha virt. eigenvalues --   -0.10895  -0.07659  -0.03819  -0.02283  -0.01210
 Alpha virt. eigenvalues --   -0.01103  -0.00831   0.00443   0.01815   0.03411
 Alpha virt. eigenvalues --    0.03882   0.04029   0.04089   0.04411   0.04688

 Mulliken charges:
               1
     1  C    0.118003
     2  C   -0.119636
     3  C   -0.103122
     4  C    0.000581
     5  N   -0.201616
     6  C   -0.111288
     7  C    0.055298
     8  C   -0.036865
     9  C    0.075514
    10  C    0.022770
    11  C   -0.056480
    12  C    0.053972
    13  C    0.235347
    14  O   -0.241272
    15  O   -0.362774
    16  N   -0.020313
    17  C    0.054456
    18  C   -0.096635
    19  C    0.026304
    20  C    0.014102
    21  C    0.035046
    22  C   -0.064453
    23  C    0.003453
    24  N   -0.191328
    25  C    0.079177
    26  C   -0.191057
    27  C   -0.139366
    28  C    0.023669
    29  C    0.070362
    30  C    0.267336
    31  C   -0.048507
    32  N    0.068668
    33  C    0.063969
    34  C   -0.188996
    35  C   -0.076403
    36  C   -0.000229
    37  C    0.248215
    38  C    0.107952
    39  O   -0.087503
    40  C   -0.122167
    41  C    0.202356
    42  O   -0.247570
    43  O   -0.291556
    44  C    0.159008
    45  C    0.191050
    46  C   -0.101901
    47  C   -0.112919
    48  C    0.117263
    49  C    0.128138
    50  C   -0.048982
    51  C   -0.019112
    52  C   -0.021729
    53  C    0.037913
    54  C    0.031750
    55  C   -0.072512
    56  C   -0.016644
    57  C   -0.098551
    58  C    0.017485
    59  C    0.078739
    60  C    0.028593
    61  C    0.068422
    62  C   -0.033157
    63  C   -0.005204
    64  C   -0.033694
    65  H    0.033363
    66  H    0.021308
    67  H   -0.045855
    68  H   -0.025033
    69  H    0.010132
    70  H    0.002007
    71  H   -0.002091
    72  H    0.032699
    73  H    0.064850
    74  H    0.023765
    75  H    0.040796
    76  H    0.018496
    77  H    0.055663
    78  H    0.004706
    79  H    0.016822
    80  H   -0.009764
    81  H    0.043994
    82  H    0.005711
    83  H    0.020467
    84  H    0.047458
    85  H    0.003043
    86  H   -0.027659
    87  H   -0.051537
    88  H    0.003652
    89  H    0.012350
    90  H    0.020015
    91  H   -0.008862
    92  H   -0.055375
    93  H    0.068763
    94  H    0.072750
    95  H    0.034981
    96  H    0.027240
    97  H    0.035692
    98  H    0.038711
    99  H    0.026223
   100  H    0.029841
   101  H   -0.013280
   102  H   -0.015624
   103  H    0.057389
   104  H    0.001942
   105  H   -0.049964
   106  H    0.027415
   107  H   -0.000415
   108  H    0.005273
   109  H    0.012626
   110  H   -0.027622
   111  H    0.010662
   112  H    0.013631
   113  H   -0.006825
   114  H    0.004624
   115  H    0.009402
   116  H    0.034562
   117  H    0.012205
   118  H    0.005173
   119  H   -0.010229
   120  H   -0.002733
   121  H    0.008241
   122  H    0.003116
   123  H    0.030529
   124  H   -0.029161
   125  H    0.003263
   126  H    0.008899
   127  H   -0.054969
   128  H   -0.042158
   129  H    0.001781
   130  H    0.013000
   131  H    0.006050
   132  H    0.022239
   133  H    0.009013
   134  H    0.004144
   135  H    0.005947
   136  H    0.015655
   137  H    0.121258
   138  H    0.094252
 Sum of Mulliken charges =  -0.00000

 Dipole moment (field-independent basis, Debye):
    X=              2.3382    Y=              3.7382    Z=              0.3567  Tot=              4.4236
 Quadrupole moment (field-independent basis, Debye-Ang):
   XX=           -353.2263   YY=           -381.7615   ZZ=           -394.3805
   XY=            -12.6912   XZ=              6.8052   YZ=             -0.1656

 Normal termination of Gaussian 16 at Fri Aug  9 14:36:56 2019.
