 Gaussian 16, Revision A.03,
 Gaussian 16:  ES64L-G16RevA.03 25-Dec-2016

 --------------------------
 # td=(NStates=1) B3LYP/SVP
 --------------------------

 --
 TD
 --
 Symbolic Z-matrix:
 Charge =  0 Multiplicity = 1

                         Standard orientation:
 ---------------------------------------------------------------------
 Center     Atomic      Atomic             Coordinates (Angstroms)
 Number     Number       Type             X           Y           Z
 ---------------------------------------------------------------------
      1          6           0       -5.097015   -1.915498    0.413401
      2          6           0       -4.776384    2.725314    1.348211
      3          6           0       -9.464095    3.215090   -0.114536
      4          6           0       -9.889123   -1.551493   -0.872019
      5          7           0       -5.136949    0.388970    0.832139
      6          6           0       -4.486015   -0.696304    0.781482
      7          6           0       -2.971515   -0.546947    1.280615
      8          6           0       -2.982101    0.901851    1.681291
      9          6           0       -4.372432    1.482861    1.229325
     10          6           0       -2.771052    1.092360    3.243418
     11          6           0       -2.061781   -0.850441    0.132871
     12          6           0       -0.559969   -0.632768    0.532832
     13          6           0        0.417367   -0.970949   -0.621179
     14          8           0        0.070169   -1.343513   -1.722752
     15          8           0        1.637571   -0.711249   -0.323394
     16          7           0       -7.118142    2.711615    0.576404
     17          6           0       -5.926563    3.343059    0.938609
     18          6           0       -6.336024    4.737927    0.946955
     19          6           0       -7.595918    4.918173    0.444206
     20          6           0       -8.052664    3.533324    0.198915
     21          6           0       -5.484722    5.860238    1.341064
     22          6           0       -8.366884    6.204094    0.443413
     23          6           0       -9.362828    6.699562   -0.433192
     24          7           0       -9.259856    0.833232   -0.506663
     25          6           0      -10.008437    1.924396   -0.457590
     26          6           0      -11.340390    1.711952   -0.936461
     27          6           0      -11.554879    0.359741   -1.076775
     28          6           0      -10.160357   -0.174990   -0.805673
     29          6           0      -12.396301    2.849163   -0.952684
     30          6           0      -12.779972   -0.224455   -1.593565
     31          6           0      -12.805731   -0.451285   -3.096773
     32          7           0       -7.467962   -1.355035   -0.201390
     33          6           0       -8.581814   -2.100571   -0.623068
     34          6           0       -8.137224   -3.416670   -0.606181
     35          6           0       -6.771229   -3.363997   -0.204579
     36          6           0       -6.400659   -2.052285    0.013055
     37          6           0       -9.008056   -4.645109   -0.806232
     38          6           0       -5.675711   -4.268161    0.096238
     39          8           0       -5.572581   -5.502641   -0.100965
     40          6           0       -4.481269   -3.262516    0.395297
     41          6           0       -3.837104   -3.874415    1.684645
     42          8           0       -4.032129   -3.361881    2.820214
     43          8           0       -2.936609   -4.830564    1.469795
     44          6           0       -2.244577   -5.570263    2.559454
     45          6           0        2.680893   -0.931594   -1.284858
     46          6           0        4.022929   -0.643398   -0.572528
     47          6           0        4.943566    0.150158   -1.133584
     48          6           0        4.886738    0.929475   -2.485757
     49          6           0        6.214547    0.384873   -0.414525
     50          6           0        7.510046   -0.221682   -1.129750
     51          6           0        8.834748   -0.228178   -0.243801
     52          6           0       10.047313   -0.848807   -0.780685
     53          6           0        9.993813   -2.335572   -0.821445
     54          6           0       11.262873   -0.332206   -0.050991
     55          6           0       12.640838   -0.433688   -0.537911
     56          6           0       13.816094   -0.014164    0.328249
     57          6           0       15.200575   -0.259395   -0.333848
     58          6           0       15.761693   -1.704131   -0.348637
     59          6           0       16.221213    0.665154    0.434141
     60          6           0       17.707795    0.623127   -0.051711
     61          6           0       18.683346    1.619908    0.573418
     62          6           0       20.128716    1.614324    0.204069
     63          6           0       20.302708    2.151362   -1.291159
     64          6           0       21.043273    2.436387    1.133412
     65          1           0       -4.118449    3.416728    1.747405
     66          1           0      -10.323903    4.051286   -0.078449
     67          1           0      -10.799142   -2.247778   -0.924365
     68          1           0       -2.740155   -1.050600    2.078711
     69          1           0       -2.159647    1.601563    1.143869
     70          1           0       -1.620617    0.791615    3.409476
     71          1           0       -3.094524    2.127132    3.682029
     72          1           0       -3.509016    0.425694    3.745896
     73          1           0       -2.140984   -1.965917   -0.077749
     74          1           0       -2.088516   -0.201550   -0.755573
     75          1           0       -0.334937    0.435714    0.839523
     76          1           0       -0.325638   -1.216262    1.389356
     77          1           0       -4.552895    6.238759    0.706576
     78          1           0       -6.005804    6.727125    1.544554
     79          1           0       -4.926607    5.374714    2.214326
     80          1           0       -7.952180    6.901898    1.299414
     81          1           0       -9.523758    6.044670   -1.434177
     82          1           0       -9.614093    7.769621   -0.391767
     83          1           0      -12.827214    3.227605    0.101515
     84          1           0      -11.960254    3.756001   -1.595130
     85          1           0      -13.332090    2.336476   -1.314716
     86          1           0      -12.760951   -1.176700   -1.193494
     87          1           0      -13.548916    0.388023   -1.309104
     88          1           0      -12.526020    0.557636   -3.688001
     89          1           0      -12.015967   -1.026360   -3.554447
     90          1           0      -13.852443   -0.910103   -3.279725
     91          1           0       -9.716636   -4.608500    0.077464
     92          1           0       -9.590227   -4.338147   -1.702617
     93          1           0       -8.595191   -5.494068   -0.915714
     94          1           0       -3.652347   -3.368695   -0.412042
     95          1           0       -1.323905   -6.195125    2.110617
     96          1           0       -2.045800   -4.724004    3.535787
     97          1           0       -3.046701   -6.351934    2.998168
     98          1           0        2.699499   -1.880094   -1.969371
     99          1           0        2.616266   -0.274331   -2.147828
    100          1           0        4.153072   -1.089025    0.369084
    101          1           0        5.453611    1.978948   -2.422740
    102          1           0        5.366597    0.334168   -3.416047
    103          1           0        3.769193    1.102416   -2.841314
    104          1           0        6.242057    1.551167   -0.084234
    105          1           0        6.165087    0.160226    0.569491
    106          1           0        7.086728   -1.243928   -1.478475
    107          1           0        7.669183    0.444076   -2.013461
    108          1           0        8.967611    0.879201   -0.319830
    109          1           0        8.750700   -0.626567    0.698582
    110          1           0       10.284888   -0.574310   -1.817837
    111          1           0        9.245341   -2.609950   -1.556200
    112          1           0       10.991959   -2.742647   -1.093686
    113          1           0        9.611387   -2.702369    0.073471
    114          1           0       11.065573    0.671571    0.219899
    115          1           0       11.263577   -0.695079    0.939249
    116          1           0       12.820075   -1.503363   -0.680176
    117          1           0       12.562349    0.116682   -1.541222
    118          1           0       13.853265    1.161619    0.458592
    119          1           0       13.702004   -0.795178    1.268115
    120          1           0       15.073499    0.076177   -1.367945
    121          1           0       15.035191   -2.151888   -0.934930
    122          1           0       16.732575   -1.626551   -0.784219
    123          1           0       15.707673   -2.151187    0.595359
    124          1           0       15.827072    1.705568    0.412368
    125          1           0       16.316734    0.344593    1.697462
    126          1           0       18.389336   -0.324794    0.075180
    127          1           0       17.755600    0.726859   -1.100228
    128          1           0       18.308164    2.710621    0.590504
    129          1           0       18.454842    1.227590    1.546380
    130          1           0       20.581214    0.524799    0.203002
    131          1           0       19.867285    3.240256   -1.469612
    132          1           0       21.390678    2.143563   -1.579775
    133          1           0       19.745304    1.471045   -1.962573
    134          1           0       21.150077    1.932422    2.174975
    135          1           0       21.954413    2.707321    0.664127
    136          1           0       20.693266    3.529847    1.294020
    137          1           0       -7.134608    1.666109    0.693050
    138          1           0       -7.495578   -0.436431   -0.186774
 ---------------------------------------------------------------------

 SCF Done:  E(RB3LYP) =  -2733.08139432     A.U. after   17 cycles

 Excitation energies and oscillator strengths:

 Excited State   1:      Singlet-A      2.0736 eV  597.91 nm  f=0.2238  <S**2>=0.000
     235 -> 237       -0.30272
     235 -> 238        0.24150
     236 -> 237        0.55991
     236 -> 238        0.18459
 This state for optimization and/or second-order correction.
 Total Energy, E(TD-HF/TD-DFT) =  -2733.00519038
 Copying the excited state density for this state as the 1-particle RhoCI density.

 The electronic state is 1-A.
 Alpha  occ. eigenvalues --  -19.18829 -19.18253 -19.11512 -19.11217 -19.11161
 Alpha  occ. eigenvalues --  -14.38129 -14.36105 -14.32043 -14.29927 -10.31839
 Alpha  occ. eigenvalues --  -10.30962 -10.28613 -10.27229 -10.25651 -10.24762
 Alpha  occ. eigenvalues --  -10.23899 -10.23489 -10.22849 -10.22833 -10.22613
 Alpha  occ. eigenvalues --  -10.22201 -10.22159 -10.22148 -10.21763 -10.21556
 Alpha  occ. eigenvalues --  -10.21498 -10.21471 -10.21025 -10.21016 -10.20981
 Alpha  occ. eigenvalues --  -10.20923 -10.20756 -10.20663 -10.20569 -10.20533
 Alpha  occ. eigenvalues --  -10.20480 -10.20344 -10.20282 -10.20150 -10.20036
 Alpha  occ. eigenvalues --  -10.20012 -10.19876 -10.19623 -10.19471 -10.19239
 Alpha  occ. eigenvalues --  -10.19099 -10.19006 -10.18946 -10.18926 -10.18672
 Alpha  occ. eigenvalues --  -10.18637 -10.18631 -10.18481 -10.18418 -10.18273
 Alpha  occ. eigenvalues --  -10.18264 -10.18260 -10.18189 -10.17911 -10.17850
 Alpha  occ. eigenvalues --  -10.17704 -10.16833 -10.16430 -10.16074  -1.11722
 Alpha  occ. eigenvalues --   -1.07883  -1.00779  -1.00082  -0.99875  -0.99456
 Alpha  occ. eigenvalues --   -0.97461  -0.95381  -0.93955  -0.85471  -0.83607
 Alpha  occ. eigenvalues --   -0.82378  -0.82221  -0.81883  -0.81549  -0.81232
 Alpha  occ. eigenvalues --   -0.81075  -0.80897  -0.79831  -0.78555  -0.77438
 Alpha  occ. eigenvalues --   -0.76468  -0.75993  -0.74861  -0.74582  -0.73825
 Alpha  occ. eigenvalues --   -0.73538  -0.73087  -0.72633  -0.71970  -0.71080
 Alpha  occ. eigenvalues --   -0.70386  -0.69015  -0.68732  -0.68459  -0.67820
 Alpha  occ. eigenvalues --   -0.67221  -0.66780  -0.66648  -0.66315  -0.65843
 Alpha  occ. eigenvalues --   -0.64040  -0.62851  -0.62655  -0.62512  -0.62246
 Alpha  occ. eigenvalues --   -0.61044  -0.59584  -0.58722  -0.58367  -0.58045
 Alpha  occ. eigenvalues --   -0.57137  -0.56761  -0.56288  -0.56153  -0.55281
 Alpha  occ. eigenvalues --   -0.54737  -0.54415  -0.53956  -0.53913  -0.53370
 Alpha  occ. eigenvalues --   -0.52795  -0.52417  -0.51634  -0.51140  -0.50203
 Alpha  occ. eigenvalues --   -0.50067  -0.49298  -0.49154  -0.48825  -0.48502
 Alpha  occ. eigenvalues --   -0.47832  -0.47625  -0.47424  -0.47242  -0.47096
 Alpha  occ. eigenvalues --   -0.47045  -0.46578  -0.46337  -0.46072  -0.45781
 Alpha  occ. eigenvalues --   -0.45595  -0.45460  -0.45188  -0.44941  -0.44892
 Alpha  occ. eigenvalues --   -0.44627  -0.44184  -0.44120  -0.43516  -0.43302
 Alpha  occ. eigenvalues --   -0.43221  -0.43152  -0.42944  -0.42727  -0.42312
 Alpha  occ. eigenvalues --   -0.42281  -0.42181  -0.41834  -0.41391  -0.41281
 Alpha  occ. eigenvalues --   -0.40950  -0.40877  -0.40819  -0.40605  -0.40506
 Alpha  occ. eigenvalues --   -0.40287  -0.40079  -0.39952  -0.39767  -0.39592
 Alpha  occ. eigenvalues --   -0.39408  -0.39261  -0.38979  -0.38637  -0.38407
 Alpha  occ. eigenvalues --   -0.38247  -0.38111  -0.37664  -0.37580  -0.37330
 Alpha  occ. eigenvalues --   -0.37119  -0.36938  -0.36823  -0.36744  -0.36643
 Alpha  occ. eigenvalues --   -0.36606  -0.36496  -0.36047  -0.35841  -0.35657
 Alpha  occ. eigenvalues --   -0.35569  -0.35381  -0.35244  -0.34874  -0.34735
 Alpha  occ. eigenvalues --   -0.34550  -0.34491  -0.33851  -0.33748  -0.33719
 Alpha  occ. eigenvalues --   -0.33355  -0.33264  -0.33170  -0.32827  -0.32529
 Alpha  occ. eigenvalues --   -0.32195  -0.31948  -0.31802  -0.31732  -0.31368
 Alpha  occ. eigenvalues --   -0.30887  -0.30501  -0.30434  -0.30376  -0.30172
 Alpha  occ. eigenvalues --   -0.29831  -0.29397  -0.29239  -0.28905  -0.27419
 Alpha  occ. eigenvalues --   -0.27087  -0.26905  -0.26316  -0.26090  -0.25617
 Alpha  occ. eigenvalues --   -0.25177  -0.24080  -0.23820  -0.22904  -0.20045
 Alpha  occ. eigenvalues --   -0.19101
 Alpha virt. eigenvalues --   -0.10822  -0.07563  -0.04295  -0.02847  -0.00447
 Alpha virt. eigenvalues --   -0.00240   0.00236   0.01360   0.02497   0.03751
 Alpha virt. eigenvalues --    0.03896   0.04075   0.04230   0.04275   0.04703

 Mulliken charges:
               1
     1  C    0.053431
     2  C   -0.028642
     3  C   -0.121758
     4  C   -0.110589
     5  N   -0.137955
     6  C   -0.137354
     7  C    0.154444
     8  C   -0.118247
     9  C    0.034018
    10  C   -0.013917
    11  C    0.040948
    12  C   -0.006839
    13  C    0.153105
    14  O   -0.253691
    15  O   -0.243744
    16  N   -0.021986
    17  C    0.088110
    18  C   -0.106349
    19  C    0.015919
    20  C    0.076848
    21  C    0.062630
    22  C   -0.090535
    23  C   -0.066219
    24  N   -0.200789
    25  C    0.025987
    26  C   -0.125811
    27  C   -0.144102
    28  C    0.050843
    29  C    0.002840
    30  C    0.203173
    31  C   -0.031690
    32  N    0.109627
    33  C    0.074895
    34  C   -0.182506
    35  C   -0.002260
    36  C    0.054634
    37  C    0.211115
    38  C    0.069119
    39  O   -0.216911
    40  C   -0.102135
    41  C    0.218110
    42  O   -0.283094
    43  O   -0.294494
    44  C    0.062250
    45  C    0.257229
    46  C   -0.061037
    47  C   -0.105421
    48  C   -0.043623
    49  C    0.073440
    50  C   -0.005164
    51  C    0.065799
    52  C   -0.043218
    53  C    0.101927
    54  C    0.083820
    55  C    0.035976
    56  C   -0.001768
    57  C   -0.108753
    58  C    0.137973
    59  C   -0.016499
    60  C    0.014374
    61  C    0.039381
    62  C   -0.113293
    63  C   -0.025191
    64  C    0.040260
    65  H   -0.064227
    66  H    0.040238
    67  H    0.017851
    68  H   -0.066665
    69  H    0.019017
    70  H    0.042522
    71  H    0.028523
    72  H    0.036109
    73  H    0.029500
    74  H    0.019292
    75  H    0.033113
    76  H    0.007003
    77  H    0.042482
    78  H   -0.014449
    79  H    0.022147
    80  H    0.039470
    81  H    0.062744
    82  H    0.041218
    83  H    0.045509
    84  H    0.053117
    85  H    0.007516
    86  H   -0.031575
    87  H   -0.019633
    88  H    0.017980
    89  H    0.007006
    90  H    0.033355
    91  H    0.036575
    92  H    0.018047
    93  H   -0.030591
    94  H    0.089145
    95  H    0.083760
    96  H    0.083517
    97  H    0.069619
    98  H    0.045435
    99  H   -0.018637
   100  H   -0.023105
   101  H    0.047640
   102  H    0.053526
   103  H    0.041564
   104  H   -0.002581
   105  H   -0.057542
   106  H    0.020066
   107  H    0.012918
   108  H    0.005019
   109  H   -0.023677
   110  H   -0.038960
   111  H   -0.007895
   112  H    0.012492
   113  H   -0.027722
   114  H   -0.055418
   115  H   -0.065293
   116  H   -0.018412
   117  H   -0.007182
   118  H    0.010968
   119  H    0.017429
   120  H   -0.011093
   121  H   -0.021514
   122  H    0.012786
   123  H   -0.010079
   124  H    0.007005
   125  H    0.012519
   126  H    0.005720
   127  H   -0.028879
   128  H   -0.004627
   129  H   -0.022703
   130  H    0.005764
   131  H    0.022430
   132  H    0.018952
   133  H    0.013781
   134  H    0.028043
   135  H   -0.010978
   136  H   -0.001343
   137  H    0.167080
   138  H    0.050632
 Sum of Mulliken charges =  -0.00000

 Dipole moment (field-independent basis, Debye):
    X=              2.1338    Y=              3.9680    Z=              0.7913  Tot=              4.5743
 Quadrupole moment (field-independent basis, Debye-Ang):
   XX=           -350.3430   YY=           -384.0846   ZZ=           -399.3954
   XY=            -21.8946   XZ=             -2.2145   YZ=             -3.3291

 Normal termination of Gaussian 16 at Sat Aug 10 07:13:03 2019.
