 Gaussian 16, Revision A.03,
 Gaussian 16:  ES64L-G16RevA.03 25-Dec-2016

 --------------------------
 # td=(NStates=1) B3LYP/SVP
 --------------------------

 --
 TD
 --
 Symbolic Z-matrix:
 Charge =  0 Multiplicity = 1

                         Standard orientation:
 ---------------------------------------------------------------------
 Center     Atomic      Atomic             Coordinates (Angstroms)
 Number     Number       Type             X           Y           Z
 ---------------------------------------------------------------------
      1          6           0       -5.132958   -1.975908    0.397277
      2          6           0       -4.556033    2.705926    1.366889
      3          6           0       -9.197033    3.499508   -0.081349
      4          6           0       -9.835271   -1.283344   -0.951147
      5          7           0       -5.191369    0.417360    0.840127
      6          6           0       -4.469782   -0.785203    0.763681
      7          6           0       -3.029660   -0.694377    1.285675
      8          6           0       -2.947507    0.783210    1.760076
      9          6           0       -4.347351    1.376879    1.246971
     10          6           0       -2.715468    0.954125    3.246041
     11          6           0       -2.060914   -0.988738    0.084412
     12          6           0       -0.668510   -1.020640    0.543726
     13          6           0        0.355144   -1.207292   -0.500332
     14          8           0        0.055937   -1.518484   -1.631221
     15          8           0        1.600922   -0.944747   -0.231984
     16          7           0       -6.950688    2.706537    0.412365
     17          6           0       -5.739918    3.400416    0.967036
     18          6           0       -6.108227    4.751392    1.204493
     19          6           0       -7.335595    5.050742    0.597733
     20          6           0       -7.880079    3.752586    0.370901
     21          6           0       -5.047193    5.733305    1.616063
     22          6           0       -7.890571    6.377662    0.346419
     23          6           0       -8.709270    6.766284   -0.656899
     24          7           0       -9.141730    1.065831   -0.490633
     25          6           0       -9.816794    2.256276   -0.451084
     26          6           0      -11.173971    2.063230   -0.991249
     27          6           0      -11.270062    0.711660   -1.198252
     28          6           0      -10.005058    0.179242   -0.861317
     29          6           0      -12.067033    3.212676   -1.161989
     30          6           0      -12.544993   -0.037627   -1.535512
     31          6           0      -12.487612   -0.399827   -3.074214
     32          7           0       -7.578247   -1.291087   -0.230127
     33          6           0       -8.674236   -1.996625   -0.641023
     34          6           0       -8.328095   -3.423448   -0.597142
     35          6           0       -6.952790   -3.447002   -0.244504
     36          6           0       -6.497856   -2.071220   -0.057100
     37          6           0       -9.249560   -4.435042   -1.005524
     38          6           0       -5.777174   -4.269772    0.061988
     39          8           0       -5.809352   -5.507112    0.044808
     40          6           0       -4.616565   -3.431611    0.363124
     41          6           0       -4.039601   -3.878407    1.789169
     42          8           0       -4.289938   -3.452263    2.799012
     43          8           0       -3.084647   -4.766393    1.527786
     44          6           0       -2.573088   -5.417744    2.708668
     45          6           0        2.652826   -1.312251   -1.183385
     46          6           0        3.943175   -0.901880   -0.562709
     47          6           0        4.919333   -0.136915   -1.139151
     48          6           0        4.833292    0.489208   -2.477817
     49          6           0        6.219230    0.174987   -0.384616
     50          6           0        7.468673   -0.443699   -1.070695
     51          6           0        8.745741   -0.257668   -0.256418
     52          6           0        9.989704   -0.817053   -0.809193
     53          6           0        9.924423   -2.325035   -1.127344
     54          6           0       11.211482   -0.474406    0.032081
     55          6           0       12.545271   -0.628461   -0.606058
     56          6           0       13.701797   -0.040580    0.238794
     57          6           0       15.146667   -0.247355   -0.389466
     58          6           0       15.562523   -1.738719   -0.191205
     59          6           0       16.005388    0.740551    0.306556
     60          6           0       17.480416    0.869237   -0.174068
     61          6           0       18.435969    1.756763    0.588969
     62          6           0       19.933386    1.794534    0.185129
     63          6           0       20.199508    2.360134   -1.229936
     64          6           0       20.753909    2.578748    1.186917
     65          1           0       -3.837771    3.234093    1.955816
     66          1           0       -9.969248    4.409890   -0.123819
     67          1           0      -10.898560   -1.912044   -1.441359
     68          1           0       -2.884253   -1.612931    2.145198
     69          1           0       -2.018335    1.314810    1.124502
     70          1           0       -1.749344    0.655606    3.593935
     71          1           0       -2.908857    2.108967    3.531000
     72          1           0       -3.334008    0.429166    3.976253
     73          1           0       -2.421186   -1.851491   -0.445809
     74          1           0       -2.068748   -0.202908   -0.641652
     75          1           0       -0.329825   -0.083127    1.238315
     76          1           0       -0.592145   -1.907805    1.254256
     77          1           0       -4.083013    5.772157    1.068013
     78          1           0       -5.540249    6.738807    1.604076
     79          1           0       -4.894546    5.531507    2.721319
     80          1           0       -7.389082    7.166322    0.893877
     81          1           0       -9.251529    6.117358   -1.368101
     82          1           0       -8.796696    7.869952   -0.767268
     83          1           0      -12.022606    4.027913   -0.473091
     84          1           0      -12.048209    3.761612   -2.244717
     85          1           0      -13.103805    3.066018   -1.215960
     86          1           0      -12.723182   -1.015759   -0.919164
     87          1           0      -13.366758    0.525374   -1.190756
     88          1           0      -12.431738    0.344236   -3.864387
     89          1           0      -11.534642   -1.048047   -3.254569
     90          1           0      -13.322354   -0.904029   -3.535443
     91          1           0      -10.103391   -4.465572   -0.510473
     92          1           0       -9.520772   -4.581625   -2.036925
     93          1           0       -8.728089   -5.363439   -0.662609
     94          1           0       -3.852663   -3.637301   -0.455451
     95          1           0       -1.659367   -5.984041    2.222549
     96          1           0       -2.382229   -4.560060    3.394095
     97          1           0       -3.406721   -6.308121    3.110889
     98          1           0        2.671236   -2.479637   -1.307274
     99          1           0        2.439846   -0.907457   -2.200723
    100          1           0        4.272029   -1.205923    0.417803
    101          1           0        5.221904    1.532510   -2.297097
    102          1           0        5.638067   -0.012939   -2.994669
    103          1           0        3.945368    0.548112   -3.161854
    104          1           0        6.203754    1.205969   -0.282613
    105          1           0        6.053654   -0.383426    0.648339
    106          1           0        6.950704   -1.526046   -1.301631
    107          1           0        7.732100   -0.082829   -2.092646
    108          1           0        8.835993    0.820598    0.120082
    109          1           0        8.673538   -0.880765    0.799060
    110          1           0       10.119261   -0.308527   -1.821374
    111          1           0        9.022879   -2.576457   -1.874457
    112          1           0       11.009173   -2.627700   -1.443091
    113          1           0        9.852171   -2.876241   -0.110594
    114          1           0       11.250896    0.579709    0.440725
    115          1           0       11.218745   -1.134385    0.959614
    116          1           0       12.841657   -1.677203   -0.868179
    117          1           0       12.475499   -0.312228   -1.541990
    118          1           0       13.610454    1.193710    0.154202
    119          1           0       13.629275   -0.279178    1.171297
    120          1           0       15.250576   -0.038504   -1.577356
    121          1           0       15.020594   -2.554081   -0.778545
    122          1           0       16.643881   -1.714979   -0.676238
    123          1           0       15.613535   -2.046016    1.066821
    124          1           0       15.605845    1.784463    0.242381
    125          1           0       15.956486    0.390233    1.508405
    126          1           0       18.063340   -0.194240   -0.447493
    127          1           0       17.562227    1.248735   -1.258100
    128          1           0       18.015623    2.709033    0.404200
    129          1           0       18.526258    1.464374    1.652942
    130          1           0       20.409997    0.565536    0.216175
    131          1           0       20.143350    3.605295   -1.224792
    132          1           0       21.247075    2.477788   -1.514911
    133          1           0       19.548384    1.902878   -1.992693
    134          1           0       20.557409    2.272252    2.183675
    135          1           0       21.833089    2.525712    1.107696
    136          1           0       20.381387    3.562646    1.202526
    137          1           0       -6.891029    1.696917    0.152751
    138          1           0       -7.423629   -0.190263   -0.040780
 ---------------------------------------------------------------------

 SCF Done:  E(RB3LYP) =  -2733.08925542     A.U. after   17 cycles

 Excitation energies and oscillator strengths:

 Excited State   1:      Singlet-A      1.9913 eV  622.64 nm  f=0.1446  <S**2>=0.000
     235 -> 237       -0.15676
     235 -> 238       -0.28796
     236 -> 237        0.60636
     236 -> 238       -0.14229
 This state for optimization and/or second-order correction.
 Total Energy, E(TD-HF/TD-DFT) =  -2733.01607724
 Copying the excited state density for this state as the 1-particle RhoCI density.

 The electronic state is 1-A.
 Alpha  occ. eigenvalues --  -19.17639 -19.17192 -19.14004 -19.11070 -19.10319
 Alpha  occ. eigenvalues --  -14.37394 -14.36494 -14.32843 -14.29114 -10.31706
 Alpha  occ. eigenvalues --  -10.30241 -10.26949 -10.26847 -10.25974 -10.23863
 Alpha  occ. eigenvalues --  -10.23769 -10.23660 -10.23531 -10.23454 -10.22539
 Alpha  occ. eigenvalues --  -10.22216 -10.21914 -10.21910 -10.21856 -10.21632
 Alpha  occ. eigenvalues --  -10.21084 -10.21041 -10.21009 -10.20930 -10.20844
 Alpha  occ. eigenvalues --  -10.20836 -10.20812 -10.20750 -10.20730 -10.20670
 Alpha  occ. eigenvalues --  -10.20637 -10.20348 -10.20286 -10.20218 -10.20155
 Alpha  occ. eigenvalues --  -10.20093 -10.20031 -10.19939 -10.19884 -10.19871
 Alpha  occ. eigenvalues --  -10.19830 -10.19418 -10.19291 -10.19189 -10.19147
 Alpha  occ. eigenvalues --  -10.19089 -10.18904 -10.18767 -10.18713 -10.18573
 Alpha  occ. eigenvalues --  -10.18473 -10.18446 -10.18368 -10.18252 -10.18122
 Alpha  occ. eigenvalues --  -10.17707 -10.17562 -10.16926 -10.16788  -1.13146
 Alpha  occ. eigenvalues --   -1.10122  -1.04258  -1.00937  -0.99125  -0.98205
 Alpha  occ. eigenvalues --   -0.95151  -0.94441  -0.93246  -0.84610  -0.83142
 Alpha  occ. eigenvalues --   -0.82251  -0.81839  -0.81584  -0.81263  -0.80650
 Alpha  occ. eigenvalues --   -0.79927  -0.79779  -0.79014  -0.78064  -0.77541
 Alpha  occ. eigenvalues --   -0.76918  -0.76386  -0.75355  -0.75107  -0.74026
 Alpha  occ. eigenvalues --   -0.73470  -0.72860  -0.72364  -0.72044  -0.71005
 Alpha  occ. eigenvalues --   -0.70302  -0.68961  -0.68666  -0.68010  -0.67674
 Alpha  occ. eigenvalues --   -0.67532  -0.66581  -0.66123  -0.65834  -0.65240
 Alpha  occ. eigenvalues --   -0.63727  -0.62910  -0.62382  -0.61831  -0.61226
 Alpha  occ. eigenvalues --   -0.60723  -0.59152  -0.58144  -0.57657  -0.56735
 Alpha  occ. eigenvalues --   -0.56262  -0.55697  -0.55521  -0.55068  -0.54908
 Alpha  occ. eigenvalues --   -0.54308  -0.54005  -0.53899  -0.53623  -0.53042
 Alpha  occ. eigenvalues --   -0.52721  -0.52427  -0.51389  -0.51203  -0.50185
 Alpha  occ. eigenvalues --   -0.49738  -0.49370  -0.48720  -0.48374  -0.48267
 Alpha  occ. eigenvalues --   -0.48197  -0.47668  -0.47370  -0.47181  -0.47077
 Alpha  occ. eigenvalues --   -0.46880  -0.46291  -0.46098  -0.45915  -0.45898
 Alpha  occ. eigenvalues --   -0.45601  -0.45473  -0.45140  -0.44892  -0.44880
 Alpha  occ. eigenvalues --   -0.44397  -0.44269  -0.44212  -0.44088  -0.43922
 Alpha  occ. eigenvalues --   -0.43572  -0.43424  -0.43196  -0.42579  -0.42477
 Alpha  occ. eigenvalues --   -0.42116  -0.42081  -0.41542  -0.41465  -0.41238
 Alpha  occ. eigenvalues --   -0.41212  -0.41032  -0.40674  -0.40600  -0.40374
 Alpha  occ. eigenvalues --   -0.39994  -0.39723  -0.39397  -0.39373  -0.39217
 Alpha  occ. eigenvalues --   -0.38917  -0.38680  -0.38551  -0.38416  -0.38254
 Alpha  occ. eigenvalues --   -0.37871  -0.37663  -0.37492  -0.37262  -0.37097
 Alpha  occ. eigenvalues --   -0.36868  -0.36818  -0.36719  -0.36491  -0.36437
 Alpha  occ. eigenvalues --   -0.36264  -0.35966  -0.35925  -0.35901  -0.35721
 Alpha  occ. eigenvalues --   -0.35610  -0.35358  -0.35286  -0.35016  -0.34988
 Alpha  occ. eigenvalues --   -0.34872  -0.34662  -0.34466  -0.34107  -0.34020
 Alpha  occ. eigenvalues --   -0.33924  -0.33172  -0.32844  -0.32683  -0.32410
 Alpha  occ. eigenvalues --   -0.32138  -0.32035  -0.31911  -0.31728  -0.31514
 Alpha  occ. eigenvalues --   -0.31166  -0.30849  -0.30564  -0.30023  -0.29871
 Alpha  occ. eigenvalues --   -0.29748  -0.29383  -0.29273  -0.28764  -0.27990
 Alpha  occ. eigenvalues --   -0.27392  -0.26502  -0.26101  -0.26013  -0.25727
 Alpha  occ. eigenvalues --   -0.24519  -0.24442  -0.23910  -0.22351  -0.19710
 Alpha  occ. eigenvalues --   -0.18686
 Alpha virt. eigenvalues --   -0.10298  -0.08100  -0.04296  -0.01881   0.00126
 Alpha virt. eigenvalues --    0.00338   0.00506   0.01338   0.02058   0.03674
 Alpha virt. eigenvalues --    0.03821   0.03832   0.04349   0.04657   0.04755

 Mulliken charges:
               1
     1  C   -0.005011
     2  C   -0.055340
     3  C   -0.121644
     4  C   -0.178250
     5  N   -0.211733
     6  C   -0.026217
     7  C   -0.118953
     8  C   -0.065744
     9  C    0.047263
    10  C    0.050582
    11  C    0.095762
    12  C    0.007979
    13  C    0.146228
    14  O   -0.259207
    15  O   -0.282405
    16  N   -0.162495
    17  C    0.116657
    18  C   -0.156009
    19  C    0.047727
    20  C    0.150327
    21  C    0.084844
    22  C   -0.021764
    23  C   -0.038446
    24  N   -0.168512
    25  C    0.001334
    26  C   -0.052551
    27  C   -0.114659
    28  C    0.035968
    29  C    0.074033
    30  C    0.079842
    31  C   -0.006221
    32  N   -0.082583
    33  C    0.103942
    34  C   -0.136844
    35  C    0.015228
    36  C    0.038698
    37  C    0.161174
    38  C    0.014456
    39  O   -0.205138
    40  C   -0.006718
    41  C    0.159405
    42  O   -0.122012
    43  O   -0.293625
    44  C    0.084417
    45  C    0.271998
    46  C   -0.049386
    47  C   -0.227625
    48  C    0.096366
    49  C    0.095242
    50  C   -0.055001
    51  C    0.016665
    52  C   -0.051805
    53  C   -0.021397
    54  C    0.008797
    55  C    0.115782
    56  C    0.064935
    57  C   -0.102393
    58  C   -0.053300
    59  C    0.035630
    60  C   -0.051893
    61  C    0.088812
    62  C   -0.167460
    63  C    0.006270
    64  C    0.106457
    65  H   -0.032494
    66  H    0.017897
    67  H    0.059952
    68  H    0.063943
    69  H    0.032998
    70  H    0.003374
    71  H    0.015909
    72  H    0.019074
    73  H    0.006219
    74  H   -0.006040
    75  H    0.050422
    76  H    0.024669
    77  H    0.048555
    78  H    0.000167
    79  H    0.026271
    80  H   -0.008204
    81  H    0.040866
    82  H    0.031263
    83  H    0.008315
    84  H    0.017561
    85  H   -0.029190
    86  H    0.018614
    87  H   -0.013478
    88  H    0.003643
    89  H    0.018249
    90  H   -0.005770
    91  H   -0.027673
    92  H    0.030088
    93  H    0.026092
    94  H    0.080652
    95  H    0.061111
    96  H    0.057132
    97  H    0.072219
    98  H    0.036533
    99  H    0.031996
   100  H   -0.030258
   101  H    0.008831
   102  H    0.008899
   103  H    0.034306
   104  H   -0.004709
   105  H    0.016906
   106  H    0.032163
   107  H    0.011503
   108  H    0.010308
   109  H   -0.006689
   110  H   -0.014765
   111  H    0.047849
   112  H    0.021421
   113  H    0.009207
   114  H   -0.005086
   115  H   -0.008297
   116  H   -0.024374
   117  H   -0.067160
   118  H    0.000344
   119  H   -0.052908
   120  H    0.011259
   121  H    0.039481
   122  H    0.023790
   123  H    0.030272
   124  H    0.010834
   125  H    0.010508
   126  H    0.001610
   127  H   -0.007013
   128  H   -0.016149
   129  H    0.001680
   130  H    0.006320
   131  H   -0.003946
   132  H    0.003466
   133  H    0.028747
   134  H   -0.022697
   135  H    0.010285
   136  H   -0.017822
   137  H    0.159835
   138  H    0.210641
 Sum of Mulliken charges =  -0.00000

 Dipole moment (field-independent basis, Debye):
    X=              3.3927    Y=              4.3070    Z=              0.6216  Tot=              5.5178
 Quadrupole moment (field-independent basis, Debye-Ang):
   XX=           -352.0511   YY=           -382.6932   ZZ=           -393.3331
   XY=            -15.7387   XZ=              7.3976   YZ=             -3.1137

 Normal termination of Gaussian 16 at Thu Aug 29 01:54:55 2019.
