 Gaussian 16, Revision A.03,
 Gaussian 16:  ES64L-G16RevA.03 25-Dec-2016

 --------------------------
 # td=(NStates=1) B3LYP/SVP
 --------------------------

 --
 TD
 --
 Symbolic Z-matrix:
 Charge =  0 Multiplicity = 1

                         Standard orientation:
 ---------------------------------------------------------------------
 Center     Atomic      Atomic             Coordinates (Angstroms)
 Number     Number       Type             X           Y           Z
 ---------------------------------------------------------------------
      1          6           0       -5.017932   -1.892156    0.534954
      2          6           0       -4.852795    2.810098    1.483337
      3          6           0       -9.388360    3.302316   -0.271088
      4          6           0       -9.804162   -1.449859   -1.000394
      5          7           0       -5.151903    0.484656    0.940461
      6          6           0       -4.457960   -0.706762    1.010224
      7          6           0       -3.024596   -0.519979    1.383626
      8          6           0       -3.041482    1.013396    1.902029
      9          6           0       -4.311471    1.478113    1.379092
     10          6           0       -2.911166    1.024685    3.512308
     11          6           0       -1.960020   -0.726256    0.196238
     12          6           0       -0.560524   -0.772435    0.676116
     13          6           0        0.340740   -1.157934   -0.502025
     14          8           0       -0.017387   -1.737442   -1.498918
     15          8           0        1.529548   -0.653611   -0.229679
     16          7           0       -7.093384    2.666899    0.536027
     17          6           0       -5.953122    3.366358    1.021072
     18          6           0       -6.307515    4.787994    1.035305
     19          6           0       -7.530759    4.964193    0.505729
     20          6           0       -8.114579    3.594065    0.181228
     21          6           0       -5.295753    5.761767    1.600059
     22          6           0       -8.214234    6.228673    0.320695
     23          6           0       -9.200073    6.664332   -0.418958
     24          7           0       -9.184621    0.746576   -0.353961
     25          6           0       -9.770650    1.989387   -0.593033
     26          6           0      -11.177451    1.801519   -1.178652
     27          6           0      -11.317471    0.469180   -1.413240
     28          6           0      -10.083115   -0.132093   -0.914109
     29          6           0      -12.206945    2.933921   -1.336016
     30          6           0      -12.525236   -0.219888   -1.931365
     31          6           0      -12.442217   -0.615825   -3.469546
     32          7           0       -7.512491   -1.298000   -0.162033
     33          6           0       -8.526911   -2.084055   -0.634896
     34          6           0       -8.103603   -3.474734   -0.470249
     35          6           0       -6.743022   -3.383852   -0.091089
     36          6           0       -6.385862   -2.012455    0.144977
     37          6           0       -8.860056   -4.694529   -1.018526
     38          6           0       -5.683137   -4.353449    0.171611
     39          8           0       -5.527341   -5.567406    0.036952
     40          6           0       -4.375392   -3.258914    0.523728
     41          6           0       -3.901352   -3.759268    1.837790
     42          8           0       -4.198641   -3.368854    2.954025
     43          8           0       -2.951780   -4.750643    1.598120
     44          6           0       -2.427300   -5.343260    2.804334
     45          6           0        2.574982   -1.005574   -1.124296
     46          6           0        3.927788   -0.600506   -0.618031
     47          6           0        4.931259    0.061417   -1.202362
     48          6           0        4.842447    0.763373   -2.594442
     49          6           0        6.205225    0.370485   -0.446987
     50          6           0        7.371187   -0.409771   -1.196567
     51          6           0        8.723931   -0.118411   -0.369969
     52          6           0       10.018126   -0.720197   -0.939599
     53          6           0        9.985485   -2.192638   -1.224053
     54          6           0       11.225050   -0.449639   -0.022492
     55          6           0       12.690321   -0.531991   -0.662743
     56          6           0       13.779886   -0.173606    0.319348
     57          6           0       15.172863   -0.183339   -0.348230
     58          6           0       15.510546   -1.675435   -0.620617
     59          6           0       16.183694    0.606978    0.456117
     60          6           0       17.581299    0.773243   -0.191917
     61          6           0       18.475846    1.568853    0.771701
     62          6           0       19.975715    1.626017    0.129034
     63          6           0       19.982252    2.439394   -1.227958
     64          6           0       20.925260    2.238068    1.228894
     65          1           0       -4.149156    3.488191    1.698061
     66          1           0      -10.046036    4.128431   -0.376994
     67          1           0      -10.611535   -2.165322   -1.584147
     68          1           0       -2.819768   -1.175866    2.186881
     69          1           0       -2.082589    1.502157    1.402717
     70          1           0       -2.065465    0.482504    3.980363
     71          1           0       -2.855986    2.142009    3.790948
     72          1           0       -3.875144    0.775792    3.983539
     73          1           0       -2.273373   -1.544418   -0.357533
     74          1           0       -2.251740   -0.026801   -0.446009
     75          1           0       -0.049299    0.054675    1.332607
     76          1           0       -0.385576   -1.686238    1.371537
     77          1           0       -4.183614    5.551414    1.247980
     78          1           0       -5.598679    6.870356    1.226423
     79          1           0       -5.190729    5.825767    2.780266
     80          1           0       -7.832792    7.046109    0.938492
     81          1           0       -9.836718    6.164659   -1.015570
     82          1           0       -9.246557    7.696358   -0.441080
     83          1           0      -12.247402    3.648887   -0.428495
     84          1           0      -11.659160    3.766219   -1.986777
     85          1           0      -13.185750    2.821775   -1.703559
     86          1           0      -12.776731   -1.108895   -1.326721
     87          1           0      -13.401606    0.472974   -1.799532
     88          1           0      -12.131029    0.348169   -4.014408
     89          1           0      -11.525422   -1.224246   -3.735377
     90          1           0      -13.313964   -1.254344   -3.711425
     91          1           0       -9.989560   -4.813810   -0.358659
     92          1           0       -9.165891   -4.402709   -2.067243
     93          1           0       -8.322335   -5.587721   -0.938849
     94          1           0       -3.821356   -3.631245   -0.380588
     95          1           0       -1.757249   -6.034588    2.443752
     96          1           0       -1.999526   -4.581190    3.349048
     97          1           0       -3.243412   -5.751214    3.460796
     98          1           0        2.377373   -2.047552   -1.535182
     99          1           0        2.660542   -0.424728   -2.215936
    100          1           0        4.151857   -0.802285    0.364789
    101          1           0        4.937118    1.911166   -2.635310
    102          1           0        5.623686    0.188199   -3.131542
    103          1           0        4.084735    0.545909   -3.477553
    104          1           0        6.345651    1.334900   -0.605506
    105          1           0        6.207313    0.000035    0.649350
    106          1           0        6.969669   -1.389660   -1.325448
    107          1           0        7.635922   -0.052909   -2.353097
    108          1           0        8.734691    0.822826   -0.088719
    109          1           0        8.528454   -0.457789    0.588581
    110          1           0       10.284778   -0.286986   -1.961861
    111          1           0        9.131329   -2.348592   -1.942283
    112          1           0       10.912431   -2.540646   -1.782234
    113          1           0       10.077487   -3.002063   -0.194786
    114          1           0       11.382716    0.671014    0.546932
    115          1           0       11.201726   -1.028911    0.897780
    116          1           0       12.848511   -1.586136   -1.038726
    117          1           0       12.662083    0.461262   -1.534370
    118          1           0       13.691892    0.865142    0.577536
    119          1           0       13.916929   -0.663681    1.375201
    120          1           0       15.017957    0.561279   -1.319855
    121          1           0       14.856394   -2.205926   -1.268814
    122          1           0       16.561646   -1.895738   -0.995767
    123          1           0       15.753082   -2.148153    0.272569
    124          1           0       15.519623    1.584982    0.644064
    125          1           0       16.163235    0.204948    1.443360
    126          1           0       18.044535   -0.185251   -0.262369
    127          1           0       17.551238    1.357918   -1.136869
    128          1           0       18.187310    2.706036    1.093990
    129          1           0       18.742049    0.876124    1.733238
    130          1           0       20.201363    0.551184   -0.250366
    131          1           0       19.567703    3.550962   -0.967369
    132          1           0       21.173596    2.510260   -1.636978
    133          1           0       19.501653    1.926675   -1.918318
    134          1           0       21.044664    1.759256    2.248389
    135          1           0       21.923988    2.461045    0.717603
    136          1           0       20.559211    3.259276    1.254006
    137          1           0       -7.264942    1.624896    0.820291
    138          1           0       -7.340542   -0.157493   -0.352950
 ---------------------------------------------------------------------

 SCF Done:  E(RB3LYP) =  -2733.03521037     A.U. after   17 cycles

 Excitation energies and oscillator strengths:

 Excited State   1:      Singlet-A      2.0545 eV  603.46 nm  f=0.1935  <S**2>=0.000
     235 -> 238       -0.28416
     236 -> 237        0.64667
 This state for optimization and/or second-order correction.
 Total Energy, E(TD-HF/TD-DFT) =  -2732.95970740
 Copying the excited state density for this state as the 1-particle RhoCI density.

 The electronic state is 1-A.
 Alpha  occ. eigenvalues --  -19.18959 -19.15864 -19.13119 -19.12632 -19.11686
 Alpha  occ. eigenvalues --  -14.37555 -14.37052 -14.32855 -14.30719 -10.31481
 Alpha  occ. eigenvalues --  -10.30569 -10.28507 -10.25765 -10.24677 -10.23658
 Alpha  occ. eigenvalues --  -10.23624 -10.23589 -10.23121 -10.22840 -10.22511
 Alpha  occ. eigenvalues --  -10.22302 -10.22084 -10.21712 -10.21357 -10.21301
 Alpha  occ. eigenvalues --  -10.21293 -10.21212 -10.21155 -10.21012 -10.21000
 Alpha  occ. eigenvalues --  -10.20954 -10.20911 -10.20882 -10.20765 -10.20723
 Alpha  occ. eigenvalues --  -10.20551 -10.20405 -10.20326 -10.20308 -10.20233
 Alpha  occ. eigenvalues --  -10.20226 -10.20212 -10.20042 -10.19716 -10.19586
 Alpha  occ. eigenvalues --  -10.19568 -10.19543 -10.19523 -10.19521 -10.19509
 Alpha  occ. eigenvalues --  -10.19475 -10.19427 -10.18889 -10.18805 -10.18579
 Alpha  occ. eigenvalues --  -10.18433 -10.18362 -10.18316 -10.18270 -10.18257
 Alpha  occ. eigenvalues --  -10.18111 -10.18005 -10.17524 -10.17294  -1.11060
 Alpha  occ. eigenvalues --   -1.06789  -1.01816  -1.01649  -0.98882  -0.97440
 Alpha  occ. eigenvalues --   -0.95763  -0.93936  -0.92639  -0.83713  -0.82828
 Alpha  occ. eigenvalues --   -0.82273  -0.81809  -0.81453  -0.80903  -0.80520
 Alpha  occ. eigenvalues --   -0.79308  -0.78960  -0.78825  -0.78530  -0.77268
 Alpha  occ. eigenvalues --   -0.77132  -0.75944  -0.75266  -0.74799  -0.73968
 Alpha  occ. eigenvalues --   -0.73345  -0.72841  -0.72307  -0.71336  -0.69806
 Alpha  occ. eigenvalues --   -0.69465  -0.68996  -0.68326  -0.67883  -0.67709
 Alpha  occ. eigenvalues --   -0.67531  -0.67092  -0.66511  -0.65362  -0.65242
 Alpha  occ. eigenvalues --   -0.64026  -0.63356  -0.62598  -0.61667  -0.61271
 Alpha  occ. eigenvalues --   -0.60921  -0.59475  -0.58238  -0.57899  -0.57195
 Alpha  occ. eigenvalues --   -0.57043  -0.56876  -0.55160  -0.55032  -0.54559
 Alpha  occ. eigenvalues --   -0.54294  -0.53955  -0.53658  -0.53193  -0.53068
 Alpha  occ. eigenvalues --   -0.52570  -0.51843  -0.51342  -0.50757  -0.50317
 Alpha  occ. eigenvalues --   -0.49729  -0.48881  -0.48612  -0.48517  -0.48084
 Alpha  occ. eigenvalues --   -0.47925  -0.47805  -0.47134  -0.46744  -0.46724
 Alpha  occ. eigenvalues --   -0.46500  -0.46372  -0.46234  -0.45776  -0.45705
 Alpha  occ. eigenvalues --   -0.45291  -0.45052  -0.44747  -0.44457  -0.44297
 Alpha  occ. eigenvalues --   -0.44103  -0.43986  -0.43640  -0.43549  -0.43080
 Alpha  occ. eigenvalues --   -0.43027  -0.42789  -0.42673  -0.42455  -0.42289
 Alpha  occ. eigenvalues --   -0.41845  -0.41789  -0.41758  -0.41597  -0.41136
 Alpha  occ. eigenvalues --   -0.41005  -0.40805  -0.40765  -0.40543  -0.40281
 Alpha  occ. eigenvalues --   -0.40019  -0.39814  -0.39685  -0.39365  -0.39200
 Alpha  occ. eigenvalues --   -0.39090  -0.38951  -0.38475  -0.38351  -0.38161
 Alpha  occ. eigenvalues --   -0.38049  -0.37863  -0.37705  -0.37422  -0.37231
 Alpha  occ. eigenvalues --   -0.37154  -0.37063  -0.36944  -0.36759  -0.36681
 Alpha  occ. eigenvalues --   -0.36210  -0.36162  -0.36020  -0.35884  -0.35773
 Alpha  occ. eigenvalues --   -0.35711  -0.35410  -0.35187  -0.34940  -0.34779
 Alpha  occ. eigenvalues --   -0.34699  -0.34552  -0.34434  -0.34325  -0.34244
 Alpha  occ. eigenvalues --   -0.33608  -0.33199  -0.33004  -0.32903  -0.32169
 Alpha  occ. eigenvalues --   -0.32136  -0.31899  -0.31773  -0.31345  -0.31071
 Alpha  occ. eigenvalues --   -0.30941  -0.30874  -0.30506  -0.30302  -0.29903
 Alpha  occ. eigenvalues --   -0.29488  -0.29080  -0.28669  -0.28087  -0.27956
 Alpha  occ. eigenvalues --   -0.27803  -0.27238  -0.27155  -0.26495  -0.25406
 Alpha  occ. eigenvalues --   -0.24854  -0.24796  -0.24091  -0.23041  -0.20224
 Alpha  occ. eigenvalues --   -0.18728
 Alpha virt. eigenvalues --   -0.10134  -0.07743  -0.04794  -0.02149  -0.00210
 Alpha virt. eigenvalues --   -0.00054   0.00639   0.00735   0.02137   0.02868
 Alpha virt. eigenvalues --    0.03861   0.03928   0.04018   0.04388   0.04735

 Mulliken charges:
               1
     1  C   -0.019714
     2  C    0.005065
     3  C   -0.116736
     4  C   -0.120398
     5  N   -0.201710
     6  C   -0.056845
     7  C   -0.004280
     8  C   -0.064037
     9  C   -0.008796
    10  C    0.040626
    11  C    0.188328
    12  C    0.015596
    13  C    0.150706
    14  O   -0.223801
    15  O   -0.263061
    16  N   -0.182416
    17  C    0.134106
    18  C   -0.058902
    19  C    0.080057
    20  C    0.127356
    21  C   -0.031144
    22  C   -0.066025
    23  C    0.026770
    24  N   -0.260982
    25  C    0.148645
    26  C   -0.130306
    27  C   -0.086494
    28  C    0.096933
    29  C    0.080314
    30  C    0.047999
    31  C   -0.016621
    32  N   -0.094898
    33  C    0.034520
    34  C   -0.103436
    35  C   -0.056492
    36  C    0.137551
    37  C    0.042378
    38  C    0.074239
    39  O   -0.175885
    40  C   -0.133752
    41  C    0.244569
    42  O   -0.239351
    43  O   -0.348774
    44  C    0.257844
    45  C    0.212472
    46  C   -0.036979
    47  C   -0.157313
    48  C   -0.026630
    49  C    0.160021
    50  C   -0.112519
    51  C    0.196832
    52  C    0.011682
    53  C   -0.042224
    54  C   -0.042480
    55  C   -0.020741
    56  C    0.026342
    57  C   -0.129791
    58  C    0.090831
    59  C    0.014443
    60  C    0.119564
    61  C   -0.077480
    62  C   -0.154647
    63  C   -0.008641
    64  C    0.058604
    65  H   -0.089181
    66  H   -0.057267
    67  H    0.029884
    68  H   -0.016144
    69  H    0.025211
    70  H    0.039135
    71  H    0.010299
    72  H    0.028579
    73  H   -0.013550
    74  H   -0.046698
    75  H    0.047553
    76  H    0.036333
    77  H    0.054996
    78  H    0.039822
    79  H    0.056229
    80  H   -0.007229
    81  H   -0.029152
    82  H    0.004783
    83  H    0.024659
    84  H    0.015497
    85  H    0.011014
    86  H    0.006512
    87  H    0.004419
    88  H    0.026097
    89  H    0.010716
    90  H    0.029875
    91  H    0.039964
    92  H    0.047905
    93  H    0.033058
    94  H    0.080831
    95  H    0.010527
    96  H   -0.009354
    97  H    0.029729
    98  H    0.044205
    99  H    0.020091
   100  H   -0.058142
   101  H    0.053420
   102  H    0.018673
   103  H    0.032791
   104  H   -0.035103
   105  H    0.028889
   106  H    0.011246
   107  H    0.028101
   108  H   -0.065555
   109  H   -0.049843
   110  H   -0.002321
   111  H    0.022436
   112  H    0.017771
   113  H    0.023920
   114  H   -0.007991
   115  H   -0.010729
   116  H    0.021778
   117  H    0.029248
   118  H   -0.029398
   119  H    0.005103
   120  H   -0.003935
   121  H    0.012628
   122  H   -0.015109
   123  H   -0.026802
   124  H   -0.005109
   125  H   -0.030609
   126  H   -0.006571
   127  H    0.012360
   128  H    0.028024
   129  H    0.015221
   130  H    0.001591
   131  H    0.030747
   132  H    0.024269
   133  H   -0.007022
   134  H    0.037787
   135  H   -0.000010
   136  H   -0.009294
   137  H    0.195335
   138  H    0.222757
 Sum of Mulliken charges =  -0.00000

 Dipole moment (field-independent basis, Debye):
    X=              2.9664    Y=              5.9367    Z=              0.0158  Tot=              6.6366
 Quadrupole moment (field-independent basis, Debye-Ang):
   XX=           -351.3840   YY=           -387.8530   ZZ=           -394.1694
   XY=            -37.6552   XZ=             15.8232   YZ=              2.4456

 Normal termination of Gaussian 16 at Tue Aug 27 15:20:31 2019.
