 Gaussian 16, Revision A.03,
 Gaussian 16:  ES64L-G16RevA.03 25-Dec-2016

 --------------------------
 # td=(NStates=1) B3LYP/SVP
 --------------------------

 --
 TD
 --
 Symbolic Z-matrix:
 Charge =  0 Multiplicity = 1

                         Standard orientation:
 ---------------------------------------------------------------------
 Center     Atomic      Atomic             Coordinates (Angstroms)
 Number     Number       Type             X           Y           Z
 ---------------------------------------------------------------------
      1          6           0       -5.076308   -1.992668    0.453767
      2          6           0       -4.797144    2.686004    1.441152
      3          6           0       -9.201449    3.337319   -0.197520
      4          6           0       -9.842301   -1.437179   -1.031457
      5          7           0       -5.269192    0.423939    0.864158
      6          6           0       -4.568789   -0.766411    0.913435
      7          6           0       -3.029678   -0.457341    1.368814
      8          6           0       -3.163787    0.891470    1.777427
      9          6           0       -4.407487    1.404830    1.347459
     10          6           0       -2.977580    1.024337    3.405174
     11          6           0       -2.078511   -0.789771    0.167508
     12          6           0       -0.672095   -0.742818    0.581545
     13          6           0        0.344527   -0.916720   -0.559958
     14          8           0        0.115693   -1.322874   -1.678734
     15          8           0        1.594416   -0.697610   -0.195396
     16          7           0       -7.068393    2.786606    0.544297
     17          6           0       -5.948438    3.408584    1.099419
     18          6           0       -6.311872    4.776213    1.155421
     19          6           0       -7.596709    5.019799    0.720359
     20          6           0       -8.024350    3.605381    0.324604
     21          6           0       -5.229280    5.783009    1.722652
     22          6           0       -8.211317    6.259977    0.441110
     23          6           0       -9.024128    6.565044   -0.630993
     24          7           0       -9.101071    0.867227   -0.562056
     25          6           0       -9.778338    2.097416   -0.649000
     26          6           0      -11.124529    1.930538   -1.145380
     27          6           0      -11.364012    0.571786   -1.294222
     28          6           0      -10.055188   -0.044401   -0.982737
     29          6           0      -12.120395    3.039275   -1.331270
     30          6           0      -12.613601   -0.254194   -1.806732
     31          6           0      -12.596134   -0.659383   -3.337653
     32          7           0       -7.434197   -1.286017   -0.254710
     33          6           0       -8.643985   -2.036530   -0.600199
     34          6           0       -8.136865   -3.427569   -0.613323
     35          6           0       -6.824506   -3.441233   -0.241708
     36          6           0       -6.395257   -2.125201   -0.012516
     37          6           0       -9.054965   -4.629964   -1.096187
     38          6           0       -5.682493   -4.372238    0.154781
     39          8           0       -5.619037   -5.547234    0.256194
     40          6           0       -4.512056   -3.378962    0.403169
     41          6           0       -4.004205   -3.930013    1.802351
     42          8           0       -4.404609   -3.484012    2.863525
     43          8           0       -3.027485   -4.865731    1.676937
     44          6           0       -2.517185   -5.450233    2.825958
     45          6           0        2.568029   -0.856009   -1.130973
     46          6           0        3.952349   -0.808315   -0.586041
     47          6           0        5.011953    0.089571   -1.071801
     48          6           0        4.759479    0.870656   -2.296445
     49          6           0        6.285925    0.245691   -0.273291
     50          6           0        7.496108   -0.270922   -1.018247
     51          6           0        8.745272   -0.260993   -0.162343
     52          6           0       10.065535   -0.582421   -0.948052
     53          6           0       10.027023   -1.995449   -1.518733
     54          6           0       11.237299   -0.343325    0.009111
     55          6           0       12.679247   -0.510918   -0.691289
     56          6           0       13.848424   -0.018423    0.185215
     57          6           0       15.250820   -0.225572   -0.362708
     58          6           0       15.664719   -1.646993   -0.639435
     59          6           0       16.203353    0.506971    0.553055
     60          6           0       17.524453    0.661188   -0.097116
     61          6           0       18.598667    1.508348    0.639576
     62          6           0       20.020954    1.583860    0.123372
     63          6           0       20.213552    2.367452   -1.196158
     64          6           0       21.072300    2.098078    1.185075
     65          1           0       -3.832873    3.204958    1.897805
     66          1           0       -9.856276    4.077152   -0.265986
     67          1           0      -10.703557   -2.172277   -1.319685
     68          1           0       -2.545658   -1.059764    2.237638
     69          1           0       -2.210912    1.374935    1.232804
     70          1           0       -2.135723    0.730492    3.785882
     71          1           0       -3.130295    1.923769    3.818213
     72          1           0       -3.764340    0.449228    3.821204
     73          1           0       -2.246566   -1.848536   -0.238616
     74          1           0       -2.367285    0.121189   -0.484966
     75          1           0       -0.272678    0.055058    1.044321
     76          1           0       -0.333050   -1.505653    1.230469
     77          1           0       -3.939251    5.425522    1.454730
     78          1           0       -5.303466    6.616232    1.187502
     79          1           0       -5.325126    5.783562    2.893045
     80          1           0       -8.112084    7.083910    1.330863
     81          1           0       -9.116122    5.849622   -1.411259
     82          1           0       -9.619801    7.510895   -0.693421
     83          1           0      -12.447763    3.757123   -0.625792
     84          1           0      -11.644323    3.825473   -1.972608
     85          1           0      -12.973269    2.576744   -1.843641
     86          1           0      -12.877920   -0.970585   -1.004022
     87          1           0      -13.441095    0.482454   -1.799883
     88          1           0      -12.178770    0.308313   -3.824018
     89          1           0      -11.779434   -1.614179   -3.455752
     90          1           0      -13.407454   -1.135561   -3.726714
     91          1           0       -9.940011   -4.769579   -0.598024
     92          1           0       -9.336614   -4.433976   -2.157901
     93          1           0       -8.438544   -5.613992   -1.138980
     94          1           0       -3.757392   -3.433826   -0.357219
     95          1           0       -1.612544   -5.997127    2.461480
     96          1           0       -2.090350   -4.736347    3.455807
     97          1           0       -3.479917   -5.949152    3.213544
     98          1           0        2.441770   -1.894447   -1.451661
     99          1           0        2.238423   -0.198508   -2.026941
    100          1           0        4.262416   -1.345965    0.314523
    101          1           0        5.170459    1.900719   -2.034244
    102          1           0        5.389829    0.683722   -3.085944
    103          1           0        3.754198    0.873669   -2.786200
    104          1           0        6.341388    1.365777    0.052400
    105          1           0        6.193498   -0.348635    0.656779
    106          1           0        7.347088   -1.240831   -1.292566
    107          1           0        7.666089    0.380319   -1.915173
    108          1           0        8.831792    0.848892    0.209234
    109          1           0        8.606486   -0.881463    0.698480
    110          1           0       10.109474    0.201811   -1.800308
    111          1           0        9.138136   -2.234337   -2.125639
    112          1           0       10.803277   -2.367516   -2.369973
    113          1           0       10.205159   -2.742891   -0.622637
    114          1           0       11.092448    0.710129    0.302281
    115          1           0       11.423160   -0.706437    0.879339
    116          1           0       12.850297   -1.649501   -0.952883
    117          1           0       12.513726   -0.017698   -1.770522
    118          1           0       13.680966    0.906448    0.439928
    119          1           0       13.849975   -0.558461    1.077762
    120          1           0       15.255235    0.545917   -1.317171
    121          1           0       14.938658   -2.249130   -1.293449
    122          1           0       16.586475   -1.843613   -1.161167
    123          1           0       15.563689   -2.099400    0.387771
    124          1           0       16.084480    1.353359    1.076210
    125          1           0       16.473487   -0.086574    1.574332
    126          1           0       18.155552   -0.264144   -0.351556
    127          1           0       17.497974    1.017662   -1.099198
    128          1           0       18.203206    2.648469    0.657787
    129          1           0       18.687045    1.284357    1.758434
    130          1           0       20.174360    0.520958   -0.108932
    131          1           0       20.027063    3.423041   -1.112313
    132          1           0       21.294534    1.990210   -1.702050
    133          1           0       19.437428    1.970897   -1.940465
    134          1           0       20.765645    1.467629    2.183609
    135          1           0       22.078460    2.038357    0.964088
    136          1           0       20.791710    3.217000    1.353879
    137          1           0       -7.198087    1.726774    0.736533
    138          1           0       -7.578658   -0.228999   -0.339361
 ---------------------------------------------------------------------

 SCF Done:  E(RB3LYP) =  -2733.04245724     A.U. after   17 cycles

 Excitation energies and oscillator strengths:

 Excited State   1:      Singlet-A      2.0653 eV  600.31 nm  f=0.1300  <S**2>=0.000
     235 -> 237       -0.13046
     235 -> 238       -0.33027
     236 -> 237        0.60088
 This state for optimization and/or second-order correction.
 Total Energy, E(TD-HF/TD-DFT) =  -2732.96655729
 Copying the excited state density for this state as the 1-particle RhoCI density.

 The electronic state is 1-A.
 Alpha  occ. eigenvalues --  -19.17512 -19.17346 -19.13128 -19.12388 -19.11553
 Alpha  occ. eigenvalues --  -14.37196 -14.35889 -14.32497 -14.30358 -10.31768
 Alpha  occ. eigenvalues --  -10.30961 -10.28421 -10.24417 -10.24276 -10.24011
 Alpha  occ. eigenvalues --  -10.23532 -10.23373 -10.22985 -10.22930 -10.22184
 Alpha  occ. eigenvalues --  -10.22029 -10.21821 -10.21693 -10.21462 -10.21282
 Alpha  occ. eigenvalues --  -10.21231 -10.21190 -10.21158 -10.21046 -10.20980
 Alpha  occ. eigenvalues --  -10.20739 -10.20596 -10.20521 -10.20445 -10.20401
 Alpha  occ. eigenvalues --  -10.20372 -10.20288 -10.20101 -10.20047 -10.20000
 Alpha  occ. eigenvalues --  -10.19622 -10.19610 -10.19574 -10.19468 -10.19410
 Alpha  occ. eigenvalues --  -10.19332 -10.19185 -10.19106 -10.19063 -10.19014
 Alpha  occ. eigenvalues --  -10.18981 -10.18930 -10.18744 -10.18737 -10.18726
 Alpha  occ. eigenvalues --  -10.18721 -10.18485 -10.18217 -10.17995 -10.17909
 Alpha  occ. eigenvalues --  -10.17784 -10.17132 -10.17062 -10.16528  -1.11906
 Alpha  occ. eigenvalues --   -1.09427  -1.05206  -1.00585  -1.00450  -1.00130
 Alpha  occ. eigenvalues --   -0.96007  -0.93944  -0.91942  -0.84655  -0.82871
 Alpha  occ. eigenvalues --   -0.82751  -0.82361  -0.82052  -0.81522  -0.80498
 Alpha  occ. eigenvalues --   -0.79716  -0.79491  -0.78624  -0.78504  -0.78163
 Alpha  occ. eigenvalues --   -0.76945  -0.76368  -0.75360  -0.75258  -0.74432
 Alpha  occ. eigenvalues --   -0.73954  -0.73535  -0.72011  -0.71771  -0.70841
 Alpha  occ. eigenvalues --   -0.69663  -0.69543  -0.68712  -0.68447  -0.67982
 Alpha  occ. eigenvalues --   -0.67830  -0.66864  -0.66340  -0.66288  -0.65908
 Alpha  occ. eigenvalues --   -0.64518  -0.63619  -0.62612  -0.61625  -0.61269
 Alpha  occ. eigenvalues --   -0.60812  -0.59547  -0.58778  -0.57914  -0.57719
 Alpha  occ. eigenvalues --   -0.56507  -0.56396  -0.55984  -0.55917  -0.55796
 Alpha  occ. eigenvalues --   -0.55058  -0.54163  -0.54033  -0.53881  -0.53263
 Alpha  occ. eigenvalues --   -0.52663  -0.52267  -0.51619  -0.51249  -0.50762
 Alpha  occ. eigenvalues --   -0.50669  -0.49882  -0.49573  -0.49205  -0.48876
 Alpha  occ. eigenvalues --   -0.48738  -0.48437  -0.47941  -0.47415  -0.47194
 Alpha  occ. eigenvalues --   -0.46944  -0.46694  -0.46464  -0.46248  -0.46086
 Alpha  occ. eigenvalues --   -0.45636  -0.45248  -0.45184  -0.44943  -0.44856
 Alpha  occ. eigenvalues --   -0.44316  -0.44294  -0.44017  -0.43901  -0.43577
 Alpha  occ. eigenvalues --   -0.43401  -0.43160  -0.42847  -0.42630  -0.42505
 Alpha  occ. eigenvalues --   -0.42427  -0.42264  -0.41988  -0.41892  -0.41613
 Alpha  occ. eigenvalues --   -0.41306  -0.40972  -0.40753  -0.40719  -0.40575
 Alpha  occ. eigenvalues --   -0.40395  -0.40195  -0.39902  -0.39761  -0.39600
 Alpha  occ. eigenvalues --   -0.39210  -0.38721  -0.38650  -0.38486  -0.38241
 Alpha  occ. eigenvalues --   -0.38202  -0.38105  -0.38079  -0.37799  -0.37586
 Alpha  occ. eigenvalues --   -0.37326  -0.37210  -0.36848  -0.36723  -0.36487
 Alpha  occ. eigenvalues --   -0.36107  -0.35953  -0.35810  -0.35610  -0.35555
 Alpha  occ. eigenvalues --   -0.35479  -0.35220  -0.35134  -0.35021  -0.34709
 Alpha  occ. eigenvalues --   -0.34568  -0.34481  -0.34453  -0.34148  -0.33842
 Alpha  occ. eigenvalues --   -0.33485  -0.33404  -0.33335  -0.32843  -0.32798
 Alpha  occ. eigenvalues --   -0.32650  -0.31837  -0.31825  -0.31484  -0.31194
 Alpha  occ. eigenvalues --   -0.30993  -0.30948  -0.30513  -0.30049  -0.29980
 Alpha  occ. eigenvalues --   -0.29879  -0.29029  -0.28436  -0.28349  -0.28004
 Alpha  occ. eigenvalues --   -0.27668  -0.27222  -0.27062  -0.26330  -0.25900
 Alpha  occ. eigenvalues --   -0.25418  -0.24433  -0.22692  -0.22515  -0.19812
 Alpha  occ. eigenvalues --   -0.18906
 Alpha virt. eigenvalues --   -0.09984  -0.08160  -0.03893  -0.02353  -0.01430
 Alpha virt. eigenvalues --    0.00421   0.00727   0.00998   0.01660   0.03123
 Alpha virt. eigenvalues --    0.03819   0.03926   0.04173   0.04404   0.04745

 Mulliken charges:
               1
     1  C    0.000703
     2  C   -0.043981
     3  C   -0.052193
     4  C   -0.091530
     5  N   -0.208847
     6  C   -0.015452
     7  C   -0.073026
     8  C   -0.013227
     9  C   -0.062188
    10  C    0.182962
    11  C    0.059084
    12  C    0.126853
    13  C    0.109316
    14  O   -0.245213
    15  O   -0.258793
    16  N   -0.008686
    17  C    0.111933
    18  C   -0.093309
    19  C    0.028457
    20  C    0.088972
    21  C    0.034864
    22  C   -0.107431
    23  C   -0.034142
    24  N   -0.288455
    25  C    0.061554
    26  C   -0.116304
    27  C   -0.131331
    28  C    0.079101
    29  C    0.121738
    30  C    0.065317
    31  C   -0.009270
    32  N   -0.125358
    33  C    0.070213
    34  C   -0.175382
    35  C   -0.005761
    36  C    0.095140
    37  C    0.094588
    38  C    0.082741
    39  O   -0.124140
    40  C   -0.021336
    41  C    0.185309
    42  O   -0.226408
    43  O   -0.295509
    44  C    0.194744
    45  C    0.260417
    46  C   -0.082692
    47  C   -0.183830
    48  C    0.119665
    49  C    0.060309
    50  C    0.071615
    51  C   -0.001092
    52  C   -0.030996
    53  C   -0.030089
    54  C    0.107915
    55  C   -0.044332
    56  C    0.162432
    57  C   -0.083217
    58  C    0.049706
    59  C    0.103530
    60  C    0.029470
    61  C   -0.040916
    62  C   -0.085989
    63  C   -0.011957
    64  C    0.018849
    65  H   -0.002759
    66  H   -0.112685
    67  H    0.024575
    68  H    0.006912
    69  H    0.014166
    70  H   -0.033928
    71  H   -0.033418
    72  H    0.006950
    73  H    0.039303
    74  H    0.026531
    75  H   -0.030387
    76  H    0.001213
    77  H    0.035727
    78  H    0.003622
    79  H    0.065345
    80  H    0.041399
    81  H    0.027507
    82  H    0.039528
    83  H    0.008479
    84  H   -0.002806
    85  H    0.008003
    86  H    0.020289
    87  H   -0.006900
    88  H    0.050404
    89  H    0.010672
    90  H    0.007763
    91  H    0.008350
    92  H    0.023841
    93  H    0.045140
    94  H    0.050688
    95  H    0.031559
    96  H    0.001799
    97  H    0.056458
    98  H   -0.000213
    99  H    0.025639
   100  H   -0.014189
   101  H   -0.001870
   102  H   -0.007013
   103  H    0.021226
   104  H    0.024875
   105  H   -0.011432
   106  H   -0.022395
   107  H   -0.004677
   108  H   -0.002417
   109  H   -0.012844
   110  H    0.003833
   111  H    0.012047
   112  H    0.021994
   113  H    0.024653
   114  H   -0.025868
   115  H   -0.072102
   116  H    0.011343
   117  H    0.001296
   118  H   -0.062313
   119  H   -0.041874
   120  H    0.003002
   121  H    0.015839
   122  H    0.018097
   123  H    0.010463
   124  H   -0.051461
   125  H   -0.023055
   126  H   -0.015859
   127  H   -0.029262
   128  H   -0.015865
   129  H   -0.006563
   130  H   -0.014233
   131  H    0.012927
   132  H    0.028728
   133  H    0.008410
   134  H    0.021963
   135  H    0.004086
   136  H    0.016148
   137  H    0.193179
   138  H    0.167304
 Sum of Mulliken charges =  -0.00000

 Dipole moment (field-independent basis, Debye):
    X=              1.8547    Y=              4.0357    Z=              0.9446  Tot=              4.5409
 Quadrupole moment (field-independent basis, Debye-Ang):
   XX=           -358.6526   YY=           -383.6266   ZZ=           -394.6957
   XY=            -29.7412   XZ=             11.8462   YZ=              2.4709

 Normal termination of Gaussian 16 at Fri Aug 23 06:55:52 2019.
