 Gaussian 16, Revision A.03,
 Gaussian 16:  ES64L-G16RevA.03 25-Dec-2016

 --------------------------
 # td=(NStates=1) B3LYP/SVP
 --------------------------

 --
 TD
 --
 Symbolic Z-matrix:
 Charge =  0 Multiplicity = 1

                         Standard orientation:
 ---------------------------------------------------------------------
 Center     Atomic      Atomic             Coordinates (Angstroms)
 Number     Number       Type             X           Y           Z
 ---------------------------------------------------------------------
      1          6           0       -5.151142   -1.834731    0.462665
      2          6           0       -4.566720    2.871186    1.348014
      3          6           0       -9.204832    3.338233   -0.297763
      4          6           0       -9.853784   -1.466152   -0.794733
      5          7           0       -5.108694    0.474901    0.855425
      6          6           0       -4.491671   -0.756976    0.835743
      7          6           0       -3.015017   -0.626356    1.239989
      8          6           0       -3.052068    0.864864    1.906733
      9          6           0       -4.332831    1.445124    1.295329
     10          6           0       -2.951165    0.909050    3.434379
     11          6           0       -1.947041   -0.749976    0.020372
     12          6           0       -0.521084   -0.726924    0.459118
     13          6           0        0.409147   -1.002868   -0.639097
     14          8           0        0.089774   -1.714791   -1.580988
     15          8           0        1.627147   -0.580504   -0.359641
     16          7           0       -6.928360    2.790307    0.423498
     17          6           0       -5.776799    3.386307    0.911286
     18          6           0       -6.150173    4.779526    1.046879
     19          6           0       -7.383943    5.057290    0.575464
     20          6           0       -7.903261    3.711809    0.168710
     21          6           0       -5.140197    5.777449    1.435574
     22          6           0       -8.180451    6.353520    0.554978
     23          6           0       -9.110405    6.707225   -0.259960
     24          7           0       -9.085406    0.905434   -0.486714
     25          6           0       -9.750252    2.000951   -0.553234
     26          6           0      -11.127352    1.858296   -0.982344
     27          6           0      -11.265034    0.525520   -1.146709
     28          6           0      -10.056362   -0.070137   -0.882465
     29          6           0      -11.957587    3.033955   -1.228338
     30          6           0      -12.487818   -0.225163   -1.722647
     31          6           0      -12.384445   -0.698856   -3.166384
     32          7           0       -7.463720   -1.250800   -0.231917
     33          6           0       -8.552934   -2.062281   -0.651349
     34          6           0       -8.118724   -3.518796   -0.749914
     35          6           0       -6.770778   -3.467045   -0.436787
     36          6           0       -6.403760   -2.120027   -0.058833
     37          6           0       -8.972306   -4.641880   -1.313557
     38          6           0       -5.675260   -4.276811    0.026680
     39          8           0       -5.637988   -5.510396   -0.116393
     40          6           0       -4.580926   -3.365259    0.566631
     41          6           0       -4.103438   -3.776443    1.888018
     42          8           0       -4.225564   -3.224885    2.945665
     43          8           0       -3.294932   -4.906919    1.801031
     44          6           0       -2.598366   -5.394758    2.938785
     45          6           0        2.710219   -1.002665   -1.260269
     46          6           0        4.035474   -0.565929   -0.612207
     47          6           0        4.911579    0.181999   -1.239843
     48          6           0        4.785463    0.838233   -2.563587
     49          6           0        6.199390    0.353530   -0.447396
     50          6           0        7.348688   -0.451703   -1.009759
     51          6           0        8.658754   -0.246781   -0.086294
     52          6           0        9.996226   -0.863806   -0.619982
     53          6           0        9.903109   -2.395574   -0.797713
     54          6           0       11.222996   -0.363087    0.192959
     55          6           0       12.540760   -0.683370   -0.405743
     56          6           0       13.627568   -0.062913    0.319003
     57          6           0       15.069235   -0.314234   -0.278004
     58          6           0       15.444875   -1.773931   -0.505814
     59          6           0       16.117954    0.436978    0.540963
     60          6           0       17.517506    0.783406   -0.207390
     61          6           0       18.482282    1.602594    0.683343
     62          6           0       19.894250    1.717719   -0.051987
     63          6           0       19.924823    2.430953   -1.387825
     64          6           0       20.818111    2.375683    0.924333
     65          1           0       -3.708558    3.498730    1.809554
     66          1           0       -9.706010    4.110680   -0.494375
     67          1           0      -10.691490   -2.137477   -1.185592
     68          1           0       -2.910135   -1.485129    2.020707
     69          1           0       -2.006446    1.455539    1.621527
     70          1           0       -2.050091    0.339934    3.521738
     71          1           0       -2.845412    1.918382    3.615128
     72          1           0       -3.925872    0.327144    3.806349
     73          1           0       -1.992565   -1.637335   -0.643667
     74          1           0       -2.137803    0.154864   -0.748656
     75          1           0       -0.191094    0.287524    1.059375
     76          1           0       -0.754470   -1.473848    1.251189
     77          1           0       -4.509994    5.962980    0.570885
     78          1           0       -5.584750    6.883895    1.536222
     79          1           0       -4.721955    5.694872    2.338166
     80          1           0       -7.725538    7.158242    1.365694
     81          1           0       -9.277990    5.902305   -0.953523
     82          1           0       -9.573652    7.646847   -0.246485
     83          1           0      -11.959823    3.658103   -0.436394
     84          1           0      -11.424459    3.582034   -2.105474
     85          1           0      -13.107387    2.901100   -1.679907
     86          1           0      -12.684478   -0.951844   -0.720337
     87          1           0      -13.257677    0.547642   -1.704424
     88          1           0      -12.777854    0.222372   -3.728548
     89          1           0      -11.324333   -1.019529   -3.304159
     90          1           0      -13.172914   -1.566929   -3.425300
     91          1           0       -9.843902   -4.861976   -0.643455
     92          1           0       -9.109487   -4.106802   -2.377601
     93          1           0       -8.321735   -5.625519   -1.320983
     94          1           0       -3.812852   -3.687749   -0.253338
     95          1           0       -1.971885   -6.145658    2.436050
     96          1           0       -1.822664   -4.393987    3.112033
     97          1           0       -3.308711   -5.508266    4.029865
     98          1           0        2.510797   -2.276102   -1.373446
     99          1           0        2.609706   -0.401595   -2.073929
    100          1           0        4.365412   -1.014863    0.465738
    101          1           0        4.798768    1.926943   -2.407465
    102          1           0        5.656010    0.535747   -3.369333
    103          1           0        3.747212    0.473451   -3.117658
    104          1           0        6.717095    1.421666   -0.293701
    105          1           0        6.041035   -0.031399    0.654429
    106          1           0        7.160194   -1.419820   -1.146215
    107          1           0        7.736993   -0.099759   -2.084389
    108          1           0        8.774835    0.936694    0.023382
    109          1           0        8.488877   -0.417799    0.971863
    110          1           0       10.027848   -0.468342   -1.779701
    111          1           0        8.833934   -2.769420   -1.134587
    112          1           0       10.857060   -2.780611   -1.348669
    113          1           0        9.778306   -2.756344    0.298661
    114          1           0       11.152278    0.775843    0.524622
    115          1           0       11.259102   -0.951565    1.233871
    116          1           0       12.706918   -1.812827   -0.440292
    117          1           0       12.602811   -0.383810   -1.447851
    118          1           0       13.257465    1.081069    0.531556
    119          1           0       13.911153   -0.431572    1.326063
    120          1           0       14.893726    0.018485   -1.402666
    121          1           0       14.686433   -2.206110   -1.109555
    122          1           0       16.365567   -1.917004   -1.279334
    123          1           0       15.648521   -2.287290    0.448004
    124          1           0       15.595354    1.513531    0.964952
    125          1           0       16.574458   -0.214604    1.536778
    126          1           0       17.967388   -0.252895   -0.488693
    127          1           0       17.295218    1.359791   -1.179334
    128          1           0       18.065416    2.397086    0.721204
    129          1           0       18.699479    1.030922    1.709224
    130          1           0       20.380810    0.789627   -0.467109
    131          1           0       19.498195    3.454577   -1.383406
    132          1           0       21.033621    2.444831   -1.715751
    133          1           0       19.368730    2.025048   -2.279364
    134          1           0       20.987976    1.698763    1.769388
    135          1           0       21.711958    2.491762    0.454573
    136          1           0       20.549820    3.548085    1.344956
    137          1           0       -7.251593    1.789596   -0.001112
    138          1           0       -7.698038   -0.425685    0.274482
 ---------------------------------------------------------------------

 SCF Done:  E(RB3LYP) =  -2732.93493558     A.U. after   17 cycles

 Excitation energies and oscillator strengths:

 Excited State   1:      Singlet-A      2.0943 eV  592.00 nm  f=0.1339  <S**2>=0.000
     235 -> 238        0.31700
     236 -> 237        0.62349
 This state for optimization and/or second-order correction.
 Total Energy, E(TD-HF/TD-DFT) =  -2732.85797025
 Copying the excited state density for this state as the 1-particle RhoCI density.

 The electronic state is 1-A.
 Alpha  occ. eigenvalues --  -19.18033 -19.16330 -19.12796 -19.11850 -19.11208
 Alpha  occ. eigenvalues --  -14.37117 -14.36804 -14.31596 -14.30049 -10.31621
 Alpha  occ. eigenvalues --  -10.31114 -10.27402 -10.26913 -10.26204 -10.24557
 Alpha  occ. eigenvalues --  -10.23894 -10.23872 -10.23677 -10.23110 -10.22563
 Alpha  occ. eigenvalues --  -10.22517 -10.22349 -10.22248 -10.21773 -10.21569
 Alpha  occ. eigenvalues --  -10.21352 -10.21272 -10.21215 -10.21203 -10.21077
 Alpha  occ. eigenvalues --  -10.20976 -10.20770 -10.20768 -10.20750 -10.20750
 Alpha  occ. eigenvalues --  -10.20736 -10.20314 -10.20290 -10.20285 -10.20256
 Alpha  occ. eigenvalues --  -10.20208 -10.20195 -10.20162 -10.20106 -10.19984
 Alpha  occ. eigenvalues --  -10.19893 -10.19869 -10.19570 -10.19345 -10.19303
 Alpha  occ. eigenvalues --  -10.19160 -10.19143 -10.19061 -10.18791 -10.18743
 Alpha  occ. eigenvalues --  -10.18737 -10.18699 -10.18558 -10.18330 -10.17959
 Alpha  occ. eigenvalues --  -10.17920 -10.17813 -10.17537 -10.17512  -1.09694
 Alpha  occ. eigenvalues --   -1.08594  -1.00752  -1.00317  -1.00189  -0.97660
 Alpha  occ. eigenvalues --   -0.97007  -0.94899  -0.93896  -0.84865  -0.83542
 Alpha  occ. eigenvalues --   -0.82219  -0.82049  -0.81114  -0.80782  -0.80314
 Alpha  occ. eigenvalues --   -0.80124  -0.79883  -0.79422  -0.78698  -0.77795
 Alpha  occ. eigenvalues --   -0.77236  -0.76582  -0.75918  -0.75083  -0.74661
 Alpha  occ. eigenvalues --   -0.73527  -0.73321  -0.73183  -0.72348  -0.71005
 Alpha  occ. eigenvalues --   -0.70016  -0.69583  -0.68491  -0.67934  -0.67309
 Alpha  occ. eigenvalues --   -0.66864  -0.66738  -0.65961  -0.65638  -0.65085
 Alpha  occ. eigenvalues --   -0.63723  -0.62462  -0.61737  -0.60900  -0.60556
 Alpha  occ. eigenvalues --   -0.60008  -0.58794  -0.58256  -0.57816  -0.56116
 Alpha  occ. eigenvalues --   -0.56098  -0.55619  -0.55543  -0.55388  -0.55233
 Alpha  occ. eigenvalues --   -0.54793  -0.53580  -0.53050  -0.52973  -0.52568
 Alpha  occ. eigenvalues --   -0.52303  -0.51656  -0.51300  -0.51046  -0.50328
 Alpha  occ. eigenvalues --   -0.49848  -0.49292  -0.48947  -0.48261  -0.48019
 Alpha  occ. eigenvalues --   -0.47885  -0.47120  -0.47063  -0.46987  -0.46685
 Alpha  occ. eigenvalues --   -0.46526  -0.46366  -0.45959  -0.45701  -0.45637
 Alpha  occ. eigenvalues --   -0.45442  -0.45080  -0.44716  -0.44696  -0.44661
 Alpha  occ. eigenvalues --   -0.44498  -0.44221  -0.43924  -0.43853  -0.43633
 Alpha  occ. eigenvalues --   -0.43595  -0.43356  -0.43119  -0.42930  -0.42876
 Alpha  occ. eigenvalues --   -0.42519  -0.42260  -0.42136  -0.41749  -0.41537
 Alpha  occ. eigenvalues --   -0.41427  -0.41218  -0.40880  -0.40621  -0.40420
 Alpha  occ. eigenvalues --   -0.40333  -0.40208  -0.39760  -0.39289  -0.39001
 Alpha  occ. eigenvalues --   -0.38966  -0.38712  -0.38517  -0.38084  -0.37954
 Alpha  occ. eigenvalues --   -0.37717  -0.37453  -0.37403  -0.37244  -0.37115
 Alpha  occ. eigenvalues --   -0.37065  -0.36639  -0.36578  -0.36364  -0.36238
 Alpha  occ. eigenvalues --   -0.36111  -0.36064  -0.35709  -0.35551  -0.35146
 Alpha  occ. eigenvalues --   -0.35066  -0.34885  -0.34650  -0.34568  -0.34401
 Alpha  occ. eigenvalues --   -0.34164  -0.33960  -0.33899  -0.33712  -0.33232
 Alpha  occ. eigenvalues --   -0.33171  -0.32746  -0.32460  -0.32262  -0.32081
 Alpha  occ. eigenvalues --   -0.31985  -0.31891  -0.31613  -0.31332  -0.31111
 Alpha  occ. eigenvalues --   -0.31079  -0.30797  -0.30687  -0.30560  -0.30190
 Alpha  occ. eigenvalues --   -0.29838  -0.28527  -0.28100  -0.28013  -0.27887
 Alpha  occ. eigenvalues --   -0.27526  -0.27147  -0.26836  -0.26430  -0.26050
 Alpha  occ. eigenvalues --   -0.25341  -0.25012  -0.24538  -0.23018  -0.20080
 Alpha  occ. eigenvalues --   -0.18773
 Alpha virt. eigenvalues --   -0.09759  -0.08258  -0.04561  -0.01317  -0.00926
 Alpha virt. eigenvalues --   -0.00666  -0.00563   0.00985   0.01811   0.03184
 Alpha virt. eigenvalues --    0.03369   0.03667   0.04049   0.04091   0.04255

 Mulliken charges:
               1
     1  C    0.208489
     2  C   -0.138523
     3  C    0.062152
     4  C   -0.091721
     5  N   -0.158563
     6  C   -0.186044
     7  C   -0.039620
     8  C   -0.182202
     9  C    0.026795
    10  C    0.126768
    11  C   -0.008032
    12  C   -0.007192
    13  C    0.206142
    14  O   -0.258358
    15  O   -0.301133
    16  N   -0.124338
    17  C    0.203558
    18  C   -0.171904
    19  C    0.053410
    20  C   -0.023012
    21  C    0.126331
    22  C   -0.064081
    23  C    0.030549
    24  N   -0.233951
    25  C    0.068432
    26  C   -0.131038
    27  C   -0.133019
    28  C    0.060393
    29  C    0.109910
    30  C    0.020885
    31  C   -0.008819
    32  N   -0.047235
    33  C    0.025082
    34  C   -0.139398
    35  C    0.062317
    36  C    0.009974
    37  C    0.020402
    38  C    0.023823
    39  O   -0.203942
    40  C   -0.065346
    41  C    0.222618
    42  O   -0.205439
    43  O   -0.328058
    44  C    0.096947
    45  C    0.306316
    46  C   -0.141506
    47  C   -0.081845
    48  C   -0.000390
    49  C    0.000027
    50  C    0.050260
    51  C   -0.024311
    52  C   -0.071103
    53  C   -0.026047
    54  C   -0.009607
    55  C    0.066409
    56  C   -0.030520
    57  C   -0.071897
    58  C    0.020617
    59  C   -0.055556
    60  C   -0.047891
    61  C    0.184460
    62  C   -0.116969
    63  C   -0.029748
    64  C    0.069171
    65  H    0.026733
    66  H   -0.200205
    67  H    0.015670
    68  H    0.040370
    69  H    0.007124
    70  H    0.012908
    71  H   -0.005770
    72  H    0.050336
    73  H    0.038149
    74  H    0.011991
    75  H    0.039397
    76  H    0.037571
    77  H    0.034066
    78  H    0.002107
    79  H   -0.003993
    80  H    0.022261
    81  H    0.029154
    82  H    0.012388
    83  H    0.004124
    84  H    0.030683
    85  H    0.032074
    86  H    0.035076
    87  H   -0.014178
    88  H    0.031315
    89  H    0.040346
    90  H    0.036127
    91  H    0.050219
    92  H    0.078551
    93  H    0.067036
    94  H    0.092653
    95  H    0.052931
    96  H    0.024481
    97  H    0.085265
    98  H    0.074097
    99  H   -0.036334
   100  H    0.029624
   101  H    0.043547
   102  H    0.056087
   103  H    0.041226
   104  H    0.014964
   105  H    0.015179
   106  H   -0.038731
   107  H    0.010924
   108  H   -0.005723
   109  H   -0.015082
   110  H    0.002884
   111  H    0.029408
   112  H    0.051098
   113  H    0.003236
   114  H    0.014368
   115  H    0.005321
   116  H    0.009948
   117  H   -0.018757
   118  H    0.010501
   119  H   -0.005747
   120  H   -0.006783
   121  H   -0.003808
   122  H    0.024795
   123  H    0.013674
   124  H    0.018600
   125  H    0.020998
   126  H    0.009296
   127  H    0.013085
   128  H   -0.096292
   129  H    0.016886
   130  H    0.002560
   131  H   -0.002020
   132  H    0.014248
   133  H    0.015146
   134  H    0.005554
   135  H   -0.034787
   136  H    0.020492
   137  H    0.210116
   138  H    0.145364
 Sum of Mulliken charges =  -0.00000

 Dipole moment (field-independent basis, Debye):
    X=              2.7952    Y=              4.8921    Z=             -0.4580  Tot=              5.6530
 Quadrupole moment (field-independent basis, Debye-Ang):
   XX=           -349.1301   YY=           -387.4045   ZZ=           -397.1201
   XY=            -32.5913   XZ=              5.2270   YZ=             -2.0200

 Normal termination of Gaussian 16 at Thu Aug 15 02:50:38 2019.
