 Gaussian 16, Revision A.03,
 Gaussian 16:  ES64L-G16RevA.03 25-Dec-2016

 --------------------------
 # td=(NStates=1) B3LYP/SVP
 --------------------------

 --
 TD
 --
 Symbolic Z-matrix:
 Charge =  0 Multiplicity = 1

                         Standard orientation:
 ---------------------------------------------------------------------
 Center     Atomic      Atomic             Coordinates (Angstroms)
 Number     Number       Type             X           Y           Z
 ---------------------------------------------------------------------
      1          6           0       -5.144339   -1.863299    0.512567
      2          6           0       -4.910469    2.866824    1.270188
      3          6           0       -9.611450    3.201555   -0.221447
      4          6           0       -9.875382   -1.710555   -0.776952
      5          7           0       -5.215430    0.463424    0.880159
      6          6           0       -4.456145   -0.628605    0.791986
      7          6           0       -3.020821   -0.368523    1.246244
      8          6           0       -3.106492    1.075629    1.705496
      9          6           0       -4.506571    1.469670    1.344731
     10          6           0       -2.742402    1.225746    3.188357
     11          6           0       -1.999768   -0.627560    0.103711
     12          6           0       -0.535969   -0.470123    0.484367
     13          6           0        0.493900   -0.939267   -0.572210
     14          8           0        0.199941   -1.187607   -1.706600
     15          8           0        1.709080   -0.846240   -0.123290
     16          7           0       -7.247970    2.727736    0.495136
     17          6           0       -6.170028    3.417100    0.988390
     18          6           0       -6.513168    4.797792    0.979401
     19          6           0       -7.784310    5.000926    0.414874
     20          6           0       -8.331655    3.671312    0.057762
     21          6           0       -5.634511    5.888542    1.422021
     22          6           0       -8.471808    6.225991    0.138212
     23          6           0       -9.315894    6.496636   -0.834432
     24          7           0       -9.311506    0.670714   -0.482384
     25          6           0       -9.993665    1.864621   -0.529262
     26          6           0      -11.444161    1.675495   -1.050699
     27          6           0      -11.552974    0.306022   -1.161262
     28          6           0      -10.219936   -0.216434   -0.762353
     29          6           0      -12.440895    2.849400   -1.142153
     30          6           0      -12.735420   -0.482717   -1.743821
     31          6           0      -12.437765   -0.922165   -3.138381
     32          7           0       -7.552165   -1.384058   -0.250105
     33          6           0       -8.647168   -2.134984   -0.515775
     34          6           0       -8.143479   -3.477500   -0.508732
     35          6           0       -6.801467   -3.426841   -0.141932
     36          6           0       -6.448027   -2.051182   -0.016897
     37          6           0       -9.096057   -4.588154   -0.895510
     38          6           0       -5.686937   -4.302792    0.128017
     39          8           0       -5.485827   -5.556445    0.231960
     40          6           0       -4.443252   -3.226454    0.518010
     41          6           0       -3.797806   -3.720461    1.768307
     42          8           0       -3.986783   -3.157770    2.929077
     43          8           0       -2.816428   -4.575004    1.668067
     44          6           0       -2.362017   -5.273511    2.794578
     45          6           0        2.787129   -1.245403   -1.048195
     46          6           0        4.083287   -0.824659   -0.417070
     47          6           0        4.932942    0.060651   -0.932713
     48          6           0        4.888086    0.869001   -2.208580
     49          6           0        6.332352    0.070536   -0.185692
     50          6           0        7.551215   -0.465214   -0.958304
     51          6           0        8.855485   -0.444712   -0.023141
     52          6           0       10.152172   -0.732546   -1.013124
     53          6           0       10.269993   -2.241474   -1.418663
     54          6           0       11.458083   -0.189499   -0.133230
     55          6           0       12.840769   -0.315317   -0.931137
     56          6           0       13.979372   -0.019358    0.104815
     57          6           0       15.327980   -0.196943   -0.557037
     58          6           0       15.618640   -1.642176   -1.087257
     59          6           0       16.340101    0.401715    0.478105
     60          6           0       17.837385    0.683791   -0.131757
     61          6           0       18.604314    1.553663    0.836958
     62          6           0       20.134945    1.709732    0.368676
     63          6           0       20.194115    2.304071   -0.974909
     64          6           0       20.936564    2.460636    1.338610
     65          1           0       -4.057726    3.451871    1.589948
     66          1           0      -10.413967    4.041621   -0.120007
     67          1           0      -10.726713   -2.397785   -0.772939
     68          1           0       -2.644806   -0.853697    2.016164
     69          1           0       -2.415328    1.566176    1.173363
     70          1           0       -1.528733    0.948692    3.156723
     71          1           0       -2.967066    2.244674    3.631960
     72          1           0       -3.225077    0.493909    3.961898
     73          1           0       -2.017038   -1.453104   -0.453723
     74          1           0       -2.211465    0.046194   -0.632690
     75          1           0       -0.181801    0.521535    0.917875
     76          1           0       -0.347272   -1.134574    1.398372
     77          1           0       -4.784197    5.962355    0.778082
     78          1           0       -6.324275    6.951543    1.213005
     79          1           0       -5.400449    5.704358    2.452709
     80          1           0       -8.249352    7.056947    0.716120
     81          1           0       -9.671497    5.941605   -1.755744
     82          1           0       -9.848852    7.587392   -0.838402
     83          1           0      -12.822663    3.261165   -0.196925
     84          1           0      -11.904085    3.765228   -1.525530
     85          1           0      -13.359177    2.454142   -1.688106
     86          1           0      -13.091425   -1.269252   -0.935207
     87          1           0      -13.560791    0.279428   -1.777171
     88          1           0      -12.306200   -0.061003   -3.721511
     89          1           0      -11.307310   -1.259757   -3.160744
     90          1           0      -13.124827   -1.767809   -3.506243
     91          1           0      -10.060549   -4.693808   -0.160032
     92          1           0       -9.457712   -4.657621   -2.003761
     93          1           0       -8.520533   -5.611224   -0.593203
     94          1           0       -3.680721   -3.371279   -0.227652
     95          1           0       -1.400096   -5.862737    2.385877
     96          1           0       -2.310573   -4.343762    3.680318
     97          1           0       -3.278619   -5.830709    3.227205
     98          1           0        2.758258   -2.239107   -1.189588
     99          1           0        2.536538   -0.823968   -2.061440
    100          1           0        4.091096   -1.091009    0.590806
    101          1           0        5.117877    1.838084   -1.963923
    102          1           0        5.569037    0.848911   -3.169390
    103          1           0        3.879300    0.796116   -2.584101
    104          1           0        6.468038    1.073518    0.153839
    105          1           0        6.260712   -0.489007    0.639903
    106          1           0        7.494054   -1.557356   -1.195842
    107          1           0        7.817315    0.254544   -1.736088
    108          1           0        8.980826    0.608589    0.230877
    109          1           0        8.898246   -1.146786    0.785232
    110          1           0       10.010130   -0.003769   -1.621213
    111          1           0        9.394124   -2.641106   -2.041382
    112          1           0       11.105473   -2.400404   -2.326682
    113          1           0       10.450605   -3.120301   -0.552959
    114          1           0       11.136498    1.212780   -0.200604
    115          1           0       11.494566   -0.608058    0.914683
    116          1           0       12.785936   -1.448298   -1.070553
    117          1           0       12.817765    0.383086   -1.829041
    118          1           0       13.769581    1.028679    0.571998
    119          1           0       13.848462   -0.689781    0.926219
    120          1           0       15.314001    0.573936   -1.491188
    121          1           0       14.918742   -2.159848   -1.738784
    122          1           0       16.622972   -1.534844   -1.519953
    123          1           0       15.726471   -2.427730   -0.212326
    124          1           0       16.014020    1.478936    0.944244
    125          1           0       16.512268   -0.198701    1.187623
    126          1           0       18.325686   -0.356947   -0.377380
    127          1           0       17.633298    1.355783   -0.994308
    128          1           0       17.982155    2.591180    0.897456
    129          1           0       18.534857    0.889339    1.754948
    130          1           0       20.491903    0.600838    0.533539
    131          1           0       19.681454    3.306655   -1.129227
    132          1           0       21.337055    2.370732   -1.193210
    133          1           0       19.962832    1.565529   -1.726472
    134          1           0       20.858342    1.947490    2.289176
    135          1           0       22.051913    2.725422    1.059293
    136          1           0       20.442760    3.384812    1.672015
    137          1           0       -7.273528    1.684186    0.440299
    138          1           0       -7.710837   -0.444800   -0.100402
 ---------------------------------------------------------------------

 SCF Done:  E(RB3LYP) =  -2733.00662704     A.U. after   17 cycles

 Excitation energies and oscillator strengths:

 Excited State   1:      Singlet-A      1.9719 eV  628.75 nm  f=0.1426  <S**2>=0.000
     235 -> 237       -0.19735
     235 -> 238       -0.28527
     236 -> 237        0.58288
     236 -> 238       -0.19618
 This state for optimization and/or second-order correction.
 Total Energy, E(TD-HF/TD-DFT) =  -2732.93416103
 Copying the excited state density for this state as the 1-particle RhoCI density.

 The electronic state is 1-A.
 Alpha  occ. eigenvalues --  -19.17918 -19.17864 -19.12993 -19.11626 -19.10265
 Alpha  occ. eigenvalues --  -14.36847 -14.36617 -14.32111 -14.31133 -10.31205
 Alpha  occ. eigenvalues --  -10.30968 -10.29136 -10.26354 -10.24337 -10.24270
 Alpha  occ. eigenvalues --  -10.24173 -10.23830 -10.23632 -10.22830 -10.22731
 Alpha  occ. eigenvalues --  -10.22492 -10.22239 -10.22183 -10.22020 -10.21764
 Alpha  occ. eigenvalues --  -10.21621 -10.21399 -10.21330 -10.21210 -10.21034
 Alpha  occ. eigenvalues --  -10.20892 -10.20877 -10.20804 -10.20642 -10.20531
 Alpha  occ. eigenvalues --  -10.20392 -10.20319 -10.20241 -10.20221 -10.20102
 Alpha  occ. eigenvalues --  -10.20093 -10.20018 -10.19729 -10.19568 -10.19412
 Alpha  occ. eigenvalues --  -10.19379 -10.19281 -10.19177 -10.19170 -10.19073
 Alpha  occ. eigenvalues --  -10.19046 -10.19024 -10.18944 -10.18884 -10.18753
 Alpha  occ. eigenvalues --  -10.18570 -10.18513 -10.18382 -10.18058 -10.17982
 Alpha  occ. eigenvalues --  -10.17873 -10.17605 -10.17580 -10.17327  -1.10597
 Alpha  occ. eigenvalues --   -1.10198  -1.01370  -1.00782  -0.99663  -0.96335
 Alpha  occ. eigenvalues --   -0.95350  -0.95210  -0.94494  -0.84726  -0.82457
 Alpha  occ. eigenvalues --   -0.82244  -0.82005  -0.81390  -0.81272  -0.80165
 Alpha  occ. eigenvalues --   -0.80066  -0.79593  -0.79097  -0.78939  -0.77650
 Alpha  occ. eigenvalues --   -0.76757  -0.76402  -0.75607  -0.74848  -0.74299
 Alpha  occ. eigenvalues --   -0.73629  -0.73205  -0.72192  -0.71242  -0.70242
 Alpha  occ. eigenvalues --   -0.69917  -0.69077  -0.68616  -0.68210  -0.67765
 Alpha  occ. eigenvalues --   -0.67414  -0.66839  -0.65897  -0.65634  -0.64679
 Alpha  occ. eigenvalues --   -0.64488  -0.63587  -0.63020  -0.61676  -0.60827
 Alpha  occ. eigenvalues --   -0.60508  -0.59349  -0.58159  -0.57623  -0.57528
 Alpha  occ. eigenvalues --   -0.57092  -0.56750  -0.56035  -0.55058  -0.54810
 Alpha  occ. eigenvalues --   -0.54511  -0.54422  -0.54247  -0.53947  -0.53413
 Alpha  occ. eigenvalues --   -0.52951  -0.52776  -0.52107  -0.51176  -0.50273
 Alpha  occ. eigenvalues --   -0.50096  -0.49282  -0.49031  -0.48809  -0.48252
 Alpha  occ. eigenvalues --   -0.48035  -0.47751  -0.47456  -0.47160  -0.46930
 Alpha  occ. eigenvalues --   -0.46716  -0.46557  -0.46384  -0.46154  -0.45526
 Alpha  occ. eigenvalues --   -0.45416  -0.45373  -0.45239  -0.44874  -0.44458
 Alpha  occ. eigenvalues --   -0.44266  -0.44059  -0.43730  -0.43591  -0.43504
 Alpha  occ. eigenvalues --   -0.43366  -0.43205  -0.42878  -0.42285  -0.42236
 Alpha  occ. eigenvalues --   -0.41982  -0.41814  -0.41548  -0.41242  -0.41109
 Alpha  occ. eigenvalues --   -0.40870  -0.40699  -0.40605  -0.40570  -0.40213
 Alpha  occ. eigenvalues --   -0.40133  -0.39873  -0.39654  -0.39406  -0.39305
 Alpha  occ. eigenvalues --   -0.39104  -0.38927  -0.38767  -0.38639  -0.38538
 Alpha  occ. eigenvalues --   -0.38450  -0.38254  -0.38018  -0.37872  -0.37549
 Alpha  occ. eigenvalues --   -0.36979  -0.36904  -0.36750  -0.36474  -0.36428
 Alpha  occ. eigenvalues --   -0.36206  -0.36177  -0.35977  -0.35816  -0.35802
 Alpha  occ. eigenvalues --   -0.35424  -0.35038  -0.34941  -0.34821  -0.34644
 Alpha  occ. eigenvalues --   -0.34302  -0.34228  -0.34032  -0.33940  -0.33851
 Alpha  occ. eigenvalues --   -0.33424  -0.33003  -0.32915  -0.32720  -0.32434
 Alpha  occ. eigenvalues --   -0.32229  -0.32155  -0.31991  -0.31324  -0.31148
 Alpha  occ. eigenvalues --   -0.30951  -0.30824  -0.30635  -0.30469  -0.28816
 Alpha  occ. eigenvalues --   -0.28722  -0.28448  -0.27954  -0.27725  -0.27590
 Alpha  occ. eigenvalues --   -0.27275  -0.27090  -0.26582  -0.25750  -0.25605
 Alpha  occ. eigenvalues --   -0.25397  -0.24669  -0.23868  -0.23584  -0.20110
 Alpha  occ. eigenvalues --   -0.18775
 Alpha virt. eigenvalues --   -0.10511  -0.08432  -0.05448  -0.02017  -0.01430
 Alpha virt. eigenvalues --   -0.00679  -0.00278   0.01323   0.02056   0.02409
 Alpha virt. eigenvalues --    0.04059   0.04169   0.04272   0.04593   0.04662

 Mulliken charges:
               1
     1  C    0.034864
     2  C   -0.065446
     3  C   -0.137523
     4  C   -0.094135
     5  N   -0.132585
     6  C   -0.033067
     7  C    0.069290
     8  C    0.042411
     9  C   -0.053644
    10  C   -0.034624
    11  C    0.176796
    12  C   -0.046481
    13  C    0.152273
    14  O   -0.238554
    15  O   -0.293109
    16  N   -0.171285
    17  C    0.174053
    18  C   -0.157607
    19  C    0.075888
    20  C    0.103008
    21  C    0.087686
    22  C   -0.002272
    23  C   -0.114968
    24  N   -0.186138
    25  C    0.082945
    26  C   -0.135708
    27  C   -0.159863
    28  C   -0.002488
    29  C    0.077079
    30  C    0.050839
    31  C    0.037180
    32  N    0.084165
    33  C    0.104260
    34  C   -0.089665
    35  C   -0.012446
    36  C    0.074721
    37  C   -0.040535
    38  C    0.102389
    39  O   -0.220374
    40  C   -0.075044
    41  C    0.203899
    42  O   -0.329970
    43  O   -0.239927
    44  C    0.077301
    45  C    0.304146
    46  C   -0.076594
    47  C   -0.111119
    48  C    0.090011
    49  C    0.140319
    50  C    0.026269
    51  C   -0.016140
    52  C    0.056928
    53  C   -0.067386
    54  C   -0.127775
    55  C    0.038239
    56  C    0.015882
    57  C   -0.063294
    58  C    0.016974
    59  C    0.054315
    60  C   -0.029675
    61  C   -0.039893
    62  C   -0.121563
    63  C    0.054029
    64  C    0.074225
    65  H   -0.032700
    66  H    0.030475
    67  H   -0.000525
    68  H   -0.053698
    69  H   -0.044163
    70  H    0.028691
    71  H    0.025623
    72  H    0.052772
    73  H   -0.036295
    74  H   -0.036232
    75  H    0.037129
    76  H    0.023393
    77  H    0.029624
    78  H    0.031357
    79  H    0.031713
    80  H   -0.021089
    81  H    0.044022
    82  H    0.033786
    83  H    0.024838
    84  H    0.024475
    85  H    0.026917
    86  H    0.023459
    87  H   -0.005632
    88  H   -0.007005
    89  H    0.014577
    90  H    0.036113
    91  H    0.052412
    92  H    0.067490
    93  H    0.054452
    94  H    0.044178
    95  H    0.073905
    96  H    0.068281
    97  H    0.050179
    98  H   -0.014582
    99  H    0.026934
   100  H   -0.012744
   101  H   -0.009345
   102  H    0.040924
   103  H    0.000777
   104  H   -0.017938
   105  H   -0.054888
   106  H    0.013618
   107  H   -0.003630
   108  H   -0.008819
   109  H    0.001220
   110  H   -0.069334
   111  H    0.024637
   112  H    0.031565
   113  H    0.047100
   114  H   -0.015920
   115  H    0.026081
   116  H    0.020631
   117  H    0.023148
   118  H    0.005819
   119  H   -0.026251
   120  H    0.000949
   121  H    0.025746
   122  H    0.016168
   123  H    0.007005
   124  H    0.013171
   125  H   -0.066304
   126  H    0.022707
   127  H    0.001738
   128  H    0.019313
   129  H    0.000490
   130  H    0.003790
   131  H    0.031151
   132  H   -0.000603
   133  H    0.003463
   134  H   -0.020836
   135  H    0.024791
   136  H   -0.018555
   137  H    0.162847
   138  H    0.089953
 Sum of Mulliken charges =  -0.00000

 Dipole moment (field-independent basis, Debye):
    X=              2.0427    Y=              3.8282    Z=             -0.5411  Tot=              4.3727
 Quadrupole moment (field-independent basis, Debye-Ang):
   XX=           -346.1390   YY=           -383.5409   ZZ=           -401.3399
   XY=            -33.6987   XZ=              7.6368   YZ=              0.9443

 Normal termination of Gaussian 16 at Wed Aug 21 15:24:19 2019.
