 Gaussian 16, Revision A.03,
 Gaussian 16:  ES64L-G16RevA.03 25-Dec-2016

 --------------------------
 # td=(NStates=1) B3LYP/SVP
 --------------------------

 --
 TD
 --
 Symbolic Z-matrix:
 Charge =  0 Multiplicity = 1

                         Standard orientation:
 ---------------------------------------------------------------------
 Center     Atomic      Atomic             Coordinates (Angstroms)
 Number     Number       Type             X           Y           Z
 ---------------------------------------------------------------------
      1          6           0       -5.134989   -1.859835    0.471304
      2          6           0       -4.801940    2.711554    1.402465
      3          6           0       -9.371080    3.321509   -0.237996
      4          6           0       -9.763981   -1.408769   -1.018218
      5          7           0       -5.219997    0.348465    0.882325
      6          6           0       -4.480581   -0.705087    0.824144
      7          6           0       -3.109388   -0.526474    1.345083
      8          6           0       -3.067635    0.955517    1.841909
      9          6           0       -4.400697    1.393193    1.351287
     10          6           0       -2.903804    1.045588    3.371393
     11          6           0       -2.054720   -0.826484    0.210773
     12          6           0       -0.587145   -0.974838    0.689078
     13          6           0        0.354063   -1.143976   -0.519317
     14          8           0        0.081961   -1.485739   -1.592239
     15          8           0        1.541366   -1.091081   -0.039463
     16          7           0       -7.176345    2.753194    0.489385
     17          6           0       -6.022564    3.423445    1.129602
     18          6           0       -6.254712    4.747895    1.202378
     19          6           0       -7.568166    4.893797    0.595982
     20          6           0       -8.114101    3.651599    0.228624
     21          6           0       -5.307207    5.775954    1.668846
     22          6           0       -8.179005    6.205742    0.268232
     23          6           0       -9.137687    6.454723   -0.711723
     24          7           0       -9.260312    0.945563   -0.461367
     25          6           0       -9.851900    2.067771   -0.542519
     26          6           0      -11.263567    1.920575   -0.968012
     27          6           0      -11.439064    0.532264   -1.214418
     28          6           0      -10.172353    0.010073   -0.875264
     29          6           0      -12.336898    2.983808   -1.213667
     30          6           0      -12.604771   -0.213416   -1.781208
     31          6           0      -12.604112   -0.577361   -3.292881
     32          7           0       -7.360477   -1.246775   -0.301744
     33          6           0       -8.549389   -1.995741   -0.686962
     34          6           0       -8.083180   -3.359007   -0.726436
     35          6           0       -6.865856   -3.430555   -0.230948
     36          6           0       -6.413120   -2.060380   -0.085458
     37          6           0       -8.981989   -4.415121   -1.389199
     38          6           0       -5.658798   -4.272877   -0.021417
     39          8           0       -5.482008   -5.426575   -0.127583
     40          6           0       -4.548558   -3.343149    0.505062
     41          6           0       -3.925146   -3.795385    1.741042
     42          8           0       -4.069418   -3.267278    2.786128
     43          8           0       -3.087984   -4.817584    1.544493
     44          6           0       -2.644348   -5.367563    2.718995
     45          6           0        2.659799   -1.343544   -0.923702
     46          6           0        3.921537   -0.840105   -0.368034
     47          6           0        4.897200   -0.046251   -0.894048
     48          6           0        4.848522    0.639346   -2.345555
     49          6           0        6.131432    0.273480   -0.140723
     50          6           0        7.493332   -0.181964   -0.927328
     51          6           0        8.762286   -0.054289   -0.061265
     52          6           0       10.064896   -0.504479   -0.749898
     53          6           0        9.984211   -2.054130   -0.930598
     54          6           0       11.271162   -0.145398   -0.053260
     55          6           0       12.620165   -0.704952   -0.435096
     56          6           0       13.895586    0.062133    0.314922
     57          6           0       15.266842   -0.233596   -0.252542
     58          6           0       15.681449   -1.781186   -0.168242
     59          6           0       16.361438    0.586731    0.464567
     60          6           0       17.703685    0.610421   -0.307872
     61          6           0       18.728474    1.671731    0.337504
     62          6           0       20.149264    1.649943   -0.161160
     63          6           0       20.232089    2.167118   -1.611081
     64          6           0       21.008479    2.595658    0.766738
     65          1           0       -4.015632    3.300270    1.939829
     66          1           0      -10.144791    4.020340   -0.316150
     67          1           0      -10.332995   -2.294658   -1.434552
     68          1           0       -2.819287   -1.368170    2.138299
     69          1           0       -2.205470    1.556804    1.520441
     70          1           0       -1.737668    0.929286    3.556935
     71          1           0       -3.314092    2.008231    3.734100
     72          1           0       -3.433440    0.070063    3.925427
     73          1           0       -2.324743   -1.560507   -0.453915
     74          1           0       -2.238320    0.104781   -0.644923
     75          1           0       -0.228640    0.093463    1.243834
     76          1           0       -0.470784   -1.863671    1.368553
     77          1           0       -4.566316    6.088768    0.744207
     78          1           0       -5.990567    6.551406    2.175681
     79          1           0       -4.760519    5.242385    2.452515
     80          1           0       -7.784664    6.966197    0.939255
     81          1           0       -9.278536    5.650317   -1.439762
     82          1           0       -9.511009    7.419807   -0.986306
     83          1           0      -12.438283    3.756161   -0.345299
     84          1           0      -11.942545    3.699929   -2.051358
     85          1           0      -13.292413    2.504595   -1.599866
     86          1           0      -12.677671   -1.213247   -1.286303
     87          1           0      -13.465163    0.465489   -1.556917
     88          1           0      -12.482048    0.341183   -3.855957
     89          1           0      -11.965792   -1.160144   -3.431634
     90          1           0      -13.671887   -1.090768   -3.425749
     91          1           0       -9.900192   -4.872070   -0.890847
     92          1           0       -9.063205   -4.008283   -2.442378
     93          1           0       -8.515098   -5.399884   -1.274169
     94          1           0       -3.902233   -3.427428   -0.450314
     95          1           0       -2.064229   -6.255530    2.594881
     96          1           0       -1.827661   -4.782830    3.252589
     97          1           0       -3.221867   -5.639527    3.699568
     98          1           0        2.660459   -2.289144   -1.169424
     99          1           0        2.374417   -0.765584   -1.950946
    100          1           0        4.010694   -1.116201    0.525254
    101          1           0        5.047874    1.630511   -2.314553
    102          1           0        5.435753    0.157181   -3.121507
    103          1           0        3.795430    0.706250   -2.733339
    104          1           0        6.301973    1.254556    0.044054
    105          1           0        6.102213    0.016973    0.921340
    106          1           0        7.346557   -1.274828   -1.181916
    107          1           0        7.619337    0.444587   -1.872296
    108          1           0        9.023885    0.950008    0.331631
    109          1           0        8.657048   -0.685017    0.854737
    110          1           0       10.018351   -0.174365   -1.837460
    111          1           0        8.896344   -2.470985   -1.344440
    112          1           0       10.644807   -2.485191   -1.678732
    113          1           0       10.219795   -2.655258    0.197476
    114          1           0       11.301569    0.989419    0.135514
    115          1           0       11.095411   -0.747108    0.940538
    116          1           0       12.975375   -1.825463   -0.352617
    117          1           0       12.851409   -0.376833   -1.518646
    118          1           0       13.455919    1.161480    0.160526
    119          1           0       13.845875   -0.121130    1.425617
    120          1           0       15.299250    0.054691   -1.406373
    121          1           0       14.862107   -2.619068   -0.388152
    122          1           0       16.692735   -1.944075   -0.764874
    123          1           0       15.915452   -2.108178    0.827243
    124          1           0       16.049958    1.643078    0.539916
    125          1           0       16.553760    0.329669    1.663285
    126          1           0       18.168894   -0.436177   -0.356122
    127          1           0       17.476726    1.002036   -1.177828
    128          1           0       18.019800    2.658854    0.301092
    129          1           0       18.983644    1.243550    1.576520
    130          1           0       20.392535    0.870963   -0.218639
    131          1           0       19.763129    3.081106   -1.674112
    132          1           0       21.122699    2.151159   -1.896935
    133          1           0       19.653324    1.486188   -2.316613
    134          1           0       21.130630    2.480505    1.937064
    135          1           0       22.159218    2.699862    0.526618
    136          1           0       20.590571    3.619798    0.402464
    137          1           0       -7.252691    1.862359    0.488765
    138          1           0       -7.426646   -0.243948   -0.378041
 ---------------------------------------------------------------------

 SCF Done:  E(RB3LYP) =  -2732.88171818     A.U. after   17 cycles

 Excitation energies and oscillator strengths:

 Excited State   1:      Singlet-A      2.0125 eV  616.08 nm  f=0.1087  <S**2>=0.000
     235 -> 237        0.30876
     235 -> 238       -0.28177
     236 -> 237        0.53394
     236 -> 238        0.18849
 This state for optimization and/or second-order correction.
 Total Energy, E(TD-HF/TD-DFT) =  -2732.80776081
 Copying the excited state density for this state as the 1-particle RhoCI density.

 The electronic state is 1-A.
 Alpha  occ. eigenvalues --  -19.18913 -19.17432 -19.12781 -19.12633 -19.11853
 Alpha  occ. eigenvalues --  -14.36417 -14.34977 -14.31443 -14.29063 -10.31407
 Alpha  occ. eigenvalues --  -10.30467 -10.28299 -10.24465 -10.24333 -10.23241
 Alpha  occ. eigenvalues --  -10.23239 -10.23083 -10.22442 -10.22108 -10.21917
 Alpha  occ. eigenvalues --  -10.21789 -10.21787 -10.21648 -10.21489 -10.21484
 Alpha  occ. eigenvalues --  -10.21031 -10.20984 -10.20961 -10.20914 -10.20770
 Alpha  occ. eigenvalues --  -10.20681 -10.20674 -10.20579 -10.20544 -10.20384
 Alpha  occ. eigenvalues --  -10.20349 -10.20145 -10.20086 -10.20030 -10.19982
 Alpha  occ. eigenvalues --  -10.19927 -10.19852 -10.19754 -10.19692 -10.19610
 Alpha  occ. eigenvalues --  -10.19525 -10.19516 -10.19446 -10.19440 -10.19362
 Alpha  occ. eigenvalues --  -10.19244 -10.19243 -10.19194 -10.18978 -10.18890
 Alpha  occ. eigenvalues --  -10.18816 -10.18713 -10.18672 -10.18016 -10.17860
 Alpha  occ. eigenvalues --  -10.17853 -10.17164 -10.17077 -10.15929  -1.12340
 Alpha  occ. eigenvalues --   -1.12209  -1.05815  -1.02871  -1.02641  -0.99617
 Alpha  occ. eigenvalues --   -0.97933  -0.95326  -0.95033  -0.84100  -0.82807
 Alpha  occ. eigenvalues --   -0.82571  -0.82046  -0.82006  -0.81811  -0.80377
 Alpha  occ. eigenvalues --   -0.80212  -0.79824  -0.79534  -0.78767  -0.77977
 Alpha  occ. eigenvalues --   -0.77104  -0.75869  -0.75419  -0.74402  -0.74327
 Alpha  occ. eigenvalues --   -0.73664  -0.73156  -0.72391  -0.71304  -0.70837
 Alpha  occ. eigenvalues --   -0.70367  -0.69600  -0.69182  -0.68327  -0.67769
 Alpha  occ. eigenvalues --   -0.67191  -0.66349  -0.66109  -0.65855  -0.65174
 Alpha  occ. eigenvalues --   -0.64173  -0.63126  -0.62680  -0.62614  -0.62197
 Alpha  occ. eigenvalues --   -0.61333  -0.60070  -0.59144  -0.58478  -0.57677
 Alpha  occ. eigenvalues --   -0.57409  -0.56834  -0.56341  -0.56144  -0.55631
 Alpha  occ. eigenvalues --   -0.55277  -0.55086  -0.54401  -0.54370  -0.54079
 Alpha  occ. eigenvalues --   -0.53738  -0.52307  -0.52057  -0.51471  -0.51206
 Alpha  occ. eigenvalues --   -0.50914  -0.49833  -0.49169  -0.48842  -0.48443
 Alpha  occ. eigenvalues --   -0.48366  -0.47770  -0.47496  -0.47446  -0.47154
 Alpha  occ. eigenvalues --   -0.47032  -0.46759  -0.46727  -0.46376  -0.45942
 Alpha  occ. eigenvalues --   -0.45721  -0.45381  -0.45263  -0.45059  -0.44872
 Alpha  occ. eigenvalues --   -0.44312  -0.44231  -0.44185  -0.43833  -0.43493
 Alpha  occ. eigenvalues --   -0.43396  -0.43091  -0.42958  -0.42881  -0.42804
 Alpha  occ. eigenvalues --   -0.42515  -0.42375  -0.42163  -0.41741  -0.41500
 Alpha  occ. eigenvalues --   -0.41326  -0.41143  -0.40931  -0.40597  -0.40503
 Alpha  occ. eigenvalues --   -0.40337  -0.40068  -0.39731  -0.39517  -0.39240
 Alpha  occ. eigenvalues --   -0.38988  -0.38635  -0.38301  -0.38196  -0.37979
 Alpha  occ. eigenvalues --   -0.37867  -0.37768  -0.37488  -0.37461  -0.37275
 Alpha  occ. eigenvalues --   -0.36999  -0.36913  -0.36648  -0.36490  -0.36078
 Alpha  occ. eigenvalues --   -0.35966  -0.35946  -0.35896  -0.35714  -0.35604
 Alpha  occ. eigenvalues --   -0.35396  -0.35333  -0.35206  -0.35097  -0.35007
 Alpha  occ. eigenvalues --   -0.34844  -0.34317  -0.34260  -0.33819  -0.33747
 Alpha  occ. eigenvalues --   -0.33642  -0.33383  -0.33178  -0.33034  -0.32953
 Alpha  occ. eigenvalues --   -0.32346  -0.32014  -0.31677  -0.31589  -0.31457
 Alpha  occ. eigenvalues --   -0.31254  -0.31177  -0.30757  -0.30101  -0.29965
 Alpha  occ. eigenvalues --   -0.29693  -0.29530  -0.28829  -0.28619  -0.28436
 Alpha  occ. eigenvalues --   -0.28124  -0.27927  -0.27214  -0.26588  -0.25977
 Alpha  occ. eigenvalues --   -0.25495  -0.25291  -0.23146  -0.22074  -0.19136
 Alpha  occ. eigenvalues --   -0.18935
 Alpha virt. eigenvalues --   -0.10267  -0.07896  -0.03495  -0.01495  -0.00618
 Alpha virt. eigenvalues --   -0.00348   0.00721   0.01566   0.02552   0.03353
 Alpha virt. eigenvalues --    0.03540   0.04089   0.04147   0.04517   0.04791

 Mulliken charges:
               1
     1  C    0.094865
     2  C   -0.067124
     3  C   -0.078732
     4  C   -0.056525
     5  N   -0.166857
     6  C   -0.075070
     7  C   -0.049841
     8  C    0.014350
     9  C   -0.016662
    10  C   -0.024021
    11  C   -0.010151
    12  C   -0.018403
    13  C    0.134937
    14  O   -0.188732
    15  O   -0.278727
    16  N    0.000747
    17  C    0.117273
    18  C   -0.129453
    19  C   -0.024334
    20  C    0.126205
    21  C    0.072076
    22  C   -0.028645
    23  C   -0.018662
    24  N   -0.148492
    25  C    0.015381
    26  C   -0.164602
    27  C   -0.086478
    28  C    0.074022
    29  C    0.042714
    30  C    0.029481
    31  C    0.151034
    32  N    0.031473
    33  C   -0.017158
    34  C   -0.128028
    35  C    0.002870
    36  C   -0.042752
    37  C    0.055026
    38  C    0.039156
    39  O   -0.108825
    40  C   -0.080227
    41  C    0.212126
    42  O   -0.190680
    43  O   -0.234355
    44  C    0.166558
    45  C    0.316350
    46  C   -0.025307
    47  C   -0.100648
    48  C    0.086266
    49  C    0.136678
    50  C   -0.035521
    51  C    0.040099
    52  C   -0.051167
    53  C   -0.081976
    54  C    0.049264
    55  C   -0.032072
    56  C   -0.034358
    57  C   -0.044335
    58  C   -0.033227
    59  C   -0.017531
    60  C    0.086782
    61  C   -0.116988
    62  C    0.188191
    63  C    0.116857
    64  C   -0.058034
    65  H   -0.032157
    66  H   -0.064601
    67  H   -0.010585
    68  H    0.050670
    69  H    0.005803
    70  H    0.027843
    71  H    0.021121
    72  H    0.055951
    73  H   -0.012605
    74  H    0.007427
    75  H    0.048856
    76  H    0.052715
    77  H    0.071650
    78  H    0.042324
    79  H    0.023545
    80  H   -0.018641
    81  H    0.031798
    82  H    0.020812
    83  H    0.042474
    84  H    0.026195
    85  H    0.029251
    86  H    0.000631
    87  H    0.004702
    88  H    0.011609
    89  H   -0.095943
    90  H    0.023358
    91  H    0.042204
    92  H    0.058967
    93  H    0.017033
    94  H    0.078083
    95  H    0.001578
    96  H   -0.004725
    97  H    0.035201
    98  H   -0.021303
    99  H    0.031184
   100  H   -0.096854
   101  H   -0.012178
   102  H    0.034358
   103  H    0.000665
   104  H   -0.034008
   105  H   -0.019710
   106  H    0.023570
   107  H    0.022026
   108  H   -0.012912
   109  H   -0.007184
   110  H   -0.010048
   111  H    0.023492
   112  H    0.019319
   113  H    0.018675
   114  H    0.013608
   115  H    0.000680
   116  H    0.032571
   117  H   -0.006035
   118  H    0.005367
   119  H    0.007844
   120  H    0.012391
   121  H    0.027668
   122  H    0.032207
   123  H   -0.001469
   124  H   -0.014750
   125  H    0.014461
   126  H    0.015863
   127  H   -0.043199
   128  H    0.023464
   129  H    0.005996
   130  H   -0.184733
   131  H   -0.016441
   132  H   -0.053646
   133  H    0.002363
   134  H    0.036682
   135  H    0.008454
   136  H    0.018481
   137  H    0.041901
   138  H    0.132548
 Sum of Mulliken charges =  -0.00000

 Dipole moment (field-independent basis, Debye):
    X=              3.5884    Y=              2.6770    Z=             -0.5727  Tot=              4.5135
 Quadrupole moment (field-independent basis, Debye-Ang):
   XX=           -354.7462   YY=           -383.4153   ZZ=           -395.0731
   XY=             -9.3915   XZ=              6.2232   YZ=             -2.3689

 Normal termination of Gaussian 16 at Sat Aug 17 14:51:19 2019.
