 Gaussian 16, Revision A.03,
 Gaussian 16:  ES64L-G16RevA.03 25-Dec-2016

 --------------------------
 # td=(NStates=1) B3LYP/SVP
 --------------------------

 --
 TD
 --
 Symbolic Z-matrix:
 Charge =  0 Multiplicity = 1

                         Standard orientation:
 ---------------------------------------------------------------------
 Center     Atomic      Atomic             Coordinates (Angstroms)
 Number     Number       Type             X           Y           Z
 ---------------------------------------------------------------------
      1          6           0       -5.247357   -1.957014    0.596486
      2          6           0       -4.526171    2.769475    1.474901
      3          6           0       -9.099364    3.395835   -0.215307
      4          6           0       -9.771469   -1.276648   -0.968550
      5          7           0       -5.087591    0.439745    0.938142
      6          6           0       -4.620661   -0.800610    1.003396
      7          6           0       -3.218909   -0.736650    1.399707
      8          6           0       -2.984201    0.810459    1.972714
      9          6           0       -4.362946    1.399127    1.444804
     10          6           0       -3.043294    0.839797    3.582125
     11          6           0       -2.174922   -1.066907    0.261665
     12          6           0       -0.641418   -0.975527    0.667346
     13          6           0        0.269698   -1.311812   -0.393983
     14          8           0        0.074978   -1.880254   -1.546811
     15          8           0        1.570894   -0.893610   -0.087236
     16          7           0       -6.871515    2.839805    0.488649
     17          6           0       -5.702313    3.441443    1.087059
     18          6           0       -5.976099    4.819807    1.023092
     19          6           0       -7.237477    5.121405    0.464694
     20          6           0       -7.829182    3.825395    0.188380
     21          6           0       -5.000881    5.865710    1.445203
     22          6           0       -7.763481    6.404010    0.367735
     23          6           0       -8.795102    6.689741   -0.439740
     24          7           0       -9.132095    1.038059   -0.503314
     25          6           0       -9.725458    2.235149   -0.522575
     26          6           0      -11.121612    2.136046   -0.981682
     27          6           0      -11.372117    0.807609   -1.235397
     28          6           0      -10.063141    0.092963   -0.888855
     29          6           0      -11.943770    3.311094   -1.307081
     30          6           0      -12.583142    0.005930   -1.822536
     31          6           0      -12.475660   -0.253246   -3.360010
     32          7           0       -7.515444   -1.218253   -0.320006
     33          6           0       -8.639532   -1.940798   -0.733516
     34          6           0       -8.211525   -3.332272   -0.856771
     35          6           0       -6.940178   -3.301340   -0.365332
     36          6           0       -6.496344   -1.933438    0.086176
     37          6           0       -9.184263   -4.514915   -1.175134
     38          6           0       -5.852690   -4.348792   -0.030252
     39          8           0       -5.769266   -5.488093   -0.044156
     40          6           0       -4.668673   -3.374052    0.532751
     41          6           0       -4.119239   -3.979540    1.806804
     42          8           0       -4.282571   -3.492591    2.888382
     43          8           0       -3.319960   -4.985233    1.525540
     44          6           0       -2.751778   -5.592704    2.682519
     45          6           0        2.558201   -1.164350   -0.973220
     46          6           0        3.834464   -0.663503   -0.458782
     47          6           0        4.875316   -0.094445   -1.087094
     48          6           0        4.927708    0.182781   -2.600239
     49          6           0        6.148400    0.188992   -0.375059
     50          6           0        7.390828   -0.516621   -0.974249
     51          6           0        8.801008   -0.224008   -0.234864
     52          6           0       10.101323   -0.836424   -0.775289
     53          6           0       10.018908   -2.361481   -0.914456
     54          6           0       11.311732   -0.497198    0.047514
     55          6           0       12.635631   -0.780353   -0.714568
     56          6           0       13.776996   -0.083915    0.067387
     57          6           0       15.215006   -0.241607   -0.532869
     58          6           0       15.621571   -1.724501   -0.676194
     59          6           0       16.269505    0.482978    0.409742
     60          6           0       17.647833    0.766551   -0.202559
     61          6           0       18.497504    1.748323    0.732135
     62          6           0       19.911962    1.863200    0.125485
     63          6           0       19.966166    2.493345   -1.302407
     64          6           0       20.736457    2.808249    1.174111
     65          1           0       -3.801587    3.400802    1.797427
     66          1           0       -9.543064    4.359627   -0.525534
     67          1           0      -10.517853   -2.013127   -1.040903
     68          1           0       -3.027749   -1.353960    2.144499
     69          1           0       -2.164642    1.274051    1.566552
     70          1           0       -2.015364    0.436037    3.956917
     71          1           0       -3.124941    1.865543    4.062879
     72          1           0       -3.830275    0.155237    3.995481
     73          1           0       -2.484273   -2.121523   -0.123718
     74          1           0       -2.199441   -0.287543   -0.536437
     75          1           0       -0.438377   -0.050976    1.090342
     76          1           0       -0.710007   -1.656080    1.355482
     77          1           0       -4.014020    5.788283    0.970336
     78          1           0       -5.273237    6.765076    1.256054
     79          1           0       -4.770954    5.707180    2.598928
     80          1           0       -7.109413    7.081726    0.915033
     81          1           0       -9.335227    5.793013   -1.038246
     82          1           0       -9.142413    7.732492   -0.506526
     83          1           0      -12.023911    4.032120   -0.442734
     84          1           0      -11.660957    3.760860   -2.394356
     85          1           0      -13.072488    2.922223   -1.429130
     86          1           0      -12.605079   -0.984234   -1.409889
     87          1           0      -13.552749    0.345171   -1.470868
     88          1           0      -12.540058    0.800997   -3.775672
     89          1           0      -11.554481   -0.774054   -3.784999
     90          1           0      -13.275996   -0.669896   -3.810243
     91          1           0       -9.880445   -4.815790   -0.418014
     92          1           0       -9.945212   -4.389993   -2.111303
     93          1           0       -8.534945   -5.328579   -1.487618
     94          1           0       -3.940054   -3.161559   -0.373908
     95          1           0       -2.180802   -6.441900    2.387135
     96          1           0       -1.982965   -4.830241    3.039880
     97          1           0       -3.621032   -5.628697    3.255528
     98          1           0        2.513855   -2.276027   -0.936370
     99          1           0        2.218843   -0.661434   -1.923318
    100          1           0        3.929305   -1.005987    0.690580
    101          1           0        5.170383    1.280118   -2.704531
    102          1           0        5.578013   -0.503255   -3.130077
    103          1           0        4.061623    0.073739   -3.140345
    104          1           0        6.388678    1.336051   -0.444755
    105          1           0        6.108137    0.115722    0.740106
    106          1           0        7.022041   -1.640792   -0.709852
    107          1           0        7.590778   -0.577563   -2.163779
    108          1           0        9.014248    0.838387   -0.157062
    109          1           0        8.626188   -0.487228    0.927409
    110          1           0        9.951263   -0.435553   -1.837351
    111          1           0        9.052291   -2.509549   -1.548924
    112          1           0       10.891572   -2.661901   -1.587031
    113          1           0       10.176318   -2.750333    0.093338
    114          1           0       11.460987    0.604925    0.264947
    115          1           0       11.144643   -0.880250    0.960597
    116          1           0       12.969874   -1.907375   -0.808239
    117          1           0       12.576886   -0.190924   -1.743911
    118          1           0       13.667983    1.165781    0.107600
    119          1           0       13.897953   -0.372798    1.291541
    120          1           0       15.200273    0.187601   -1.566185
    121          1           0       14.974613   -2.269843   -1.429081
    122          1           0       16.612614   -1.871014   -1.124300
    123          1           0       15.525231   -2.283521    0.196440
    124          1           0       16.017258    1.361022    0.693320
    125          1           0       16.316131   -0.314769    1.282454
    126          1           0       18.068523   -0.252975   -0.331757
    127          1           0       17.370836    1.555935   -1.002112
    128          1           0       18.186581    2.635516    0.847001
    129          1           0       18.598429    1.150632    1.627479
    130          1           0       20.489223    0.944017   -0.071782
    131          1           0       19.310654    3.443389   -1.142422
    132          1           0       20.996862    2.867863   -1.416219
    133          1           0       19.639432    1.986329   -2.279022
    134          1           0       20.618063    2.634838    2.203038
    135          1           0       21.830661    2.765524    0.691083
    136          1           0       20.637058    3.913544    1.226463
    137          1           0       -7.156934    1.876032    0.476509
    138          1           0       -7.550544   -0.097864   -0.096098
 ---------------------------------------------------------------------

 SCF Done:  E(RB3LYP) =  -2733.03021265     A.U. after   17 cycles

 Excitation energies and oscillator strengths:

 Excited State   1:      Singlet-A      2.0830 eV  595.23 nm  f=0.1546  <S**2>=0.000
     235 -> 238       -0.31516
     236 -> 237        0.62960
 This state for optimization and/or second-order correction.
 Total Energy, E(TD-HF/TD-DFT) =  -2732.95366538
 Copying the excited state density for this state as the 1-particle RhoCI density.

 The electronic state is 1-A.
 Alpha  occ. eigenvalues --  -19.18017 -19.16946 -19.14159 -19.12572 -19.12562
 Alpha  occ. eigenvalues --  -14.36964 -14.35714 -14.31220 -14.30263 -10.32374
 Alpha  occ. eigenvalues --  -10.31541 -10.28858 -10.24322 -10.23757 -10.23470
 Alpha  occ. eigenvalues --  -10.23399 -10.23234 -10.23054 -10.22516 -10.22503
 Alpha  occ. eigenvalues --  -10.22253 -10.21942 -10.21609 -10.21255 -10.21218
 Alpha  occ. eigenvalues --  -10.20876 -10.20856 -10.20704 -10.20689 -10.20402
 Alpha  occ. eigenvalues --  -10.20376 -10.20184 -10.20107 -10.20038 -10.20029
 Alpha  occ. eigenvalues --  -10.19991 -10.19900 -10.19884 -10.19873 -10.19846
 Alpha  occ. eigenvalues --  -10.19802 -10.19698 -10.19568 -10.19487 -10.19228
 Alpha  occ. eigenvalues --  -10.19211 -10.19191 -10.19141 -10.19080 -10.19035
 Alpha  occ. eigenvalues --  -10.18768 -10.18740 -10.18700 -10.18678 -10.18662
 Alpha  occ. eigenvalues --  -10.18619 -10.18490 -10.18428 -10.18198 -10.18148
 Alpha  occ. eigenvalues --  -10.17742 -10.17289 -10.17002 -10.16852  -1.11482
 Alpha  occ. eigenvalues --   -1.08718  -1.08123  -1.01878  -0.98629  -0.97331
 Alpha  occ. eigenvalues --   -0.95767  -0.94969  -0.93179  -0.84728  -0.82610
 Alpha  occ. eigenvalues --   -0.82341  -0.81823  -0.81217  -0.81034  -0.80697
 Alpha  occ. eigenvalues --   -0.80339  -0.79525  -0.78772  -0.78501  -0.77196
 Alpha  occ. eigenvalues --   -0.77048  -0.76025  -0.75431  -0.74755  -0.74482
 Alpha  occ. eigenvalues --   -0.74177  -0.72945  -0.72485  -0.71285  -0.71075
 Alpha  occ. eigenvalues --   -0.70261  -0.69188  -0.68831  -0.67804  -0.67252
 Alpha  occ. eigenvalues --   -0.66973  -0.66574  -0.66253  -0.66146  -0.65551
 Alpha  occ. eigenvalues --   -0.64667  -0.62614  -0.62262  -0.62123  -0.61177
 Alpha  occ. eigenvalues --   -0.60984  -0.59087  -0.58843  -0.58197  -0.57999
 Alpha  occ. eigenvalues --   -0.56231  -0.56092  -0.55872  -0.55634  -0.55507
 Alpha  occ. eigenvalues --   -0.55334  -0.54453  -0.53611  -0.53386  -0.53283
 Alpha  occ. eigenvalues --   -0.52968  -0.52457  -0.52115  -0.51705  -0.51472
 Alpha  occ. eigenvalues --   -0.50997  -0.50712  -0.49772  -0.49181  -0.48931
 Alpha  occ. eigenvalues --   -0.48887  -0.48520  -0.47841  -0.47735  -0.47296
 Alpha  occ. eigenvalues --   -0.46731  -0.46473  -0.46471  -0.45848  -0.45793
 Alpha  occ. eigenvalues --   -0.45032  -0.44826  -0.44748  -0.44662  -0.44412
 Alpha  occ. eigenvalues --   -0.44380  -0.44270  -0.44053  -0.43866  -0.43844
 Alpha  occ. eigenvalues --   -0.43663  -0.43529  -0.43210  -0.42853  -0.42530
 Alpha  occ. eigenvalues --   -0.42320  -0.42221  -0.42118  -0.41926  -0.41788
 Alpha  occ. eigenvalues --   -0.41559  -0.41462  -0.41232  -0.40626  -0.40391
 Alpha  occ. eigenvalues --   -0.40152  -0.39970  -0.39933  -0.39485  -0.39367
 Alpha  occ. eigenvalues --   -0.39186  -0.39086  -0.38894  -0.38693  -0.38559
 Alpha  occ. eigenvalues --   -0.38351  -0.38195  -0.37788  -0.37551  -0.37452
 Alpha  occ. eigenvalues --   -0.37325  -0.37270  -0.37153  -0.37018  -0.36922
 Alpha  occ. eigenvalues --   -0.36665  -0.36608  -0.36297  -0.35981  -0.35790
 Alpha  occ. eigenvalues --   -0.35367  -0.35290  -0.35096  -0.34961  -0.34697
 Alpha  occ. eigenvalues --   -0.34573  -0.34266  -0.34211  -0.34092  -0.33386
 Alpha  occ. eigenvalues --   -0.32999  -0.32880  -0.32683  -0.32538  -0.32370
 Alpha  occ. eigenvalues --   -0.32087  -0.31769  -0.31096  -0.31031  -0.30998
 Alpha  occ. eigenvalues --   -0.30821  -0.30698  -0.30658  -0.30385  -0.29682
 Alpha  occ. eigenvalues --   -0.29317  -0.29089  -0.28838  -0.28146  -0.27518
 Alpha  occ. eigenvalues --   -0.27303  -0.27289  -0.26643  -0.26303  -0.25159
 Alpha  occ. eigenvalues --   -0.24604  -0.24452  -0.23110  -0.22958  -0.20070
 Alpha  occ. eigenvalues --   -0.18837
 Alpha virt. eigenvalues --   -0.09994  -0.07952  -0.04111  -0.02311  -0.01370
 Alpha virt. eigenvalues --   -0.00169   0.00433   0.01208   0.02600   0.03879
 Alpha virt. eigenvalues --    0.04114   0.04247   0.04590   0.04924   0.05213

 Mulliken charges:
               1
     1  C   -0.089884
     2  C   -0.006964
     3  C   -0.023202
     4  C   -0.036941
     5  N   -0.100765
     6  C   -0.064031
     7  C    0.073510
     8  C   -0.067297
     9  C    0.018053
    10  C    0.003068
    11  C   -0.062478
    12  C    0.186371
    13  C    0.209428
    14  O   -0.301088
    15  O   -0.321580
    16  N   -0.133426
    17  C    0.135016
    18  C   -0.160102
    19  C    0.091243
    20  C   -0.035696
    21  C    0.162058
    22  C   -0.029278
    23  C   -0.056693
    24  N   -0.238491
    25  C    0.108088
    26  C   -0.144927
    27  C   -0.054853
    28  C    0.076012
    29  C    0.023982
    30  C    0.098707
    31  C    0.015017
    32  N   -0.090081
    33  C    0.035946
    34  C   -0.084859
    35  C   -0.139854
    36  C    0.153990
    37  C    0.051625
    38  C    0.119043
    39  O   -0.067458
    40  C   -0.116414
    41  C    0.205952
    42  O   -0.224060
    43  O   -0.280335
    44  C    0.217802
    45  C    0.287540
    46  C   -0.135388
    47  C   -0.119229
    48  C    0.117928
    49  C    0.077383
    50  C   -0.095754
    51  C    0.016201
    52  C   -0.095968
    53  C    0.028027
    54  C    0.089819
    55  C    0.024374
    56  C   -0.106836
    57  C   -0.057556
    58  C    0.033041
    59  C    0.080188
    60  C    0.005591
    61  C    0.129668
    62  C   -0.100327
    63  C   -0.023371
    64  C   -0.009328
    65  H   -0.074915
    66  H   -0.065216
    67  H   -0.044776
    68  H   -0.064032
    69  H   -0.025152
    70  H    0.015393
    71  H    0.025717
    72  H    0.043890
    73  H    0.041041
    74  H    0.016704
    75  H    0.014516
    76  H   -0.019880
    77  H    0.018646
    78  H   -0.057926
    79  H    0.034419
    80  H   -0.016607
    81  H    0.075667
    82  H    0.025921
    83  H    0.037236
    84  H    0.057148
    85  H    0.018572
    86  H   -0.020150
    87  H   -0.001862
    88  H    0.005469
    89  H    0.033619
    90  H   -0.018514
    91  H    0.040653
    92  H    0.030994
    93  H    0.037300
    94  H    0.104628
    95  H    0.030561
    96  H    0.024372
    97  H    0.029616
    98  H    0.008760
    99  H    0.017810
   100  H    0.009098
   101  H    0.021326
   102  H    0.026806
   103  H   -0.030175
   104  H    0.000365
   105  H    0.005380
   106  H    0.023694
   107  H    0.036590
   108  H   -0.010197
   109  H   -0.013648
   110  H   -0.012224
   111  H    0.023998
   112  H    0.014963
   113  H    0.008328
   114  H   -0.009571
   115  H   -0.037730
   116  H    0.037646
   117  H    0.022766
   118  H    0.014459
   119  H    0.013575
   120  H   -0.014703
   121  H    0.005072
   122  H    0.003845
   123  H   -0.009364
   124  H   -0.073223
   125  H   -0.000962
   126  H    0.013612
   127  H    0.010185
   128  H   -0.055959
   129  H   -0.007619
   130  H    0.004353
   131  H   -0.000033
   132  H    0.004088
   133  H    0.042465
   134  H    0.001089
   135  H    0.015418
   136  H    0.001771
   137  H    0.123470
   138  H    0.211266
 Sum of Mulliken charges =  -0.00000

 Dipole moment (field-independent basis, Debye):
    X=              1.1232    Y=              2.5827    Z=              0.9319  Tot=              2.9666
 Quadrupole moment (field-independent basis, Debye-Ang):
   XX=           -354.1002   YY=           -375.8209   ZZ=           -395.6622
   XY=             -6.1153   XZ=              9.7519   YZ=             -2.2149

 Normal termination of Gaussian 16 at Sun Aug 11 18:16:52 2019.
