 Gaussian 16, Revision A.03,
 Gaussian 16:  ES64L-G16RevA.03 25-Dec-2016

 --------------------------
 # td=(NStates=1) B3LYP/SVP
 --------------------------

 --
 TD
 --
 Symbolic Z-matrix:
 Charge =  0 Multiplicity = 1

                         Standard orientation:
 ---------------------------------------------------------------------
 Center     Atomic      Atomic             Coordinates (Angstroms)
 Number     Number       Type             X           Y           Z
 ---------------------------------------------------------------------
      1          6           0       -5.094169   -2.025928    0.486442
      2          6           0       -4.778565    2.658792    1.468346
      3          6           0       -9.202771    3.456093   -0.167979
      4          6           0       -9.813995   -1.341166   -0.919923
      5          7           0       -5.210630    0.391466    0.932534
      6          6           0       -4.558970   -0.758552    0.897438
      7          6           0       -2.974011   -0.602063    1.245263
      8          6           0       -2.946598    0.853947    1.840437
      9          6           0       -4.370091    1.366627    1.323000
     10          6           0       -2.769264    0.733864    3.433896
     11          6           0       -2.064024   -0.891476    0.155490
     12          6           0       -0.668775   -0.852533    0.605803
     13          6           0        0.337013   -1.169158   -0.465509
     14          8           0        0.033560   -1.589286   -1.601601
     15          8           0        1.600421   -0.903941   -0.187280
     16          7           0       -6.966411    2.800705    0.407304
     17          6           0       -5.888017    3.396261    1.068321
     18          6           0       -6.197609    4.760868    1.303113
     19          6           0       -7.419024    5.008173    0.640430
     20          6           0       -7.904130    3.707136    0.157849
     21          6           0       -5.184894    5.857556    1.739631
     22          6           0       -8.172633    6.266930    0.488934
     23          6           0       -8.850730    6.726366   -0.571166
     24          7           0       -9.167815    1.007656   -0.507903
     25          6           0       -9.728358    2.232514   -0.628395
     26          6           0      -11.179112    1.968634   -0.988537
     27          6           0      -11.363344    0.623405   -1.257410
     28          6           0      -10.079160    0.031536   -0.866610
     29          6           0      -12.106355    3.219271   -1.270542
     30          6           0      -12.589056   -0.075790   -1.814583
     31          6           0      -12.488824   -0.487919   -3.369405
     32          7           0       -7.449245   -1.243684   -0.239442
     33          6           0       -8.575368   -1.996474   -0.559283
     34          6           0       -8.242132   -3.393710   -0.690829
     35          6           0       -6.865450   -3.385597   -0.243000
     36          6           0       -6.471756   -2.112594    0.125843
     37          6           0       -9.033355   -4.500317   -1.072267
     38          6           0       -5.854498   -4.292991    0.125453
     39          8           0       -5.901440   -5.514921    0.031403
     40          6           0       -4.551826   -3.433137    0.392846
     41          6           0       -3.849253   -3.829368    1.707998
     42          8           0       -4.034203   -3.431220    2.796114
     43          8           0       -3.045956   -4.942520    1.408476
     44          6           0       -2.442751   -5.488216    2.600338
     45          6           0        2.608306   -1.143879   -1.108585
     46          6           0        3.975322   -0.840042   -0.501654
     47          6           0        4.858004    0.009845   -1.062648
     48          6           0        4.599377    0.862422   -2.276455
     49          6           0        6.286756    0.132700   -0.372064
     50          6           0        7.476669   -0.538823   -1.063356
     51          6           0        8.673252   -0.156977   -0.276120
     52          6           0       10.008456   -0.855414   -0.829888
     53          6           0        9.941363   -2.362940   -0.872483
     54          6           0       11.157935   -0.408998   -0.068838
     55          6           0       12.573307   -0.607053   -0.627785
     56          6           0       13.773842    0.085128    0.083716
     57          6           0       15.195872   -0.171140   -0.337746
     58          6           0       15.670355   -1.694476   -0.223627
     59          6           0       16.146726    0.794016    0.346250
     60          6           0       17.566733    0.818330   -0.313506
     61          6           0       18.559916    1.713621    0.550822
     62          6           0       20.017669    1.652163   -0.008845
     63          6           0       20.043713    2.391016   -1.364437
     64          6           0       20.869180    2.377759    1.087536
     65          1           0       -3.966202    3.270725    1.628279
     66          1           0       -9.989546    4.238721   -0.391107
     67          1           0      -10.499907   -1.888719   -1.149081
     68          1           0       -3.003990   -1.186693    2.261638
     69          1           0       -2.288392    1.611596    1.314193
     70          1           0       -1.879219   -0.057854    3.673384
     71          1           0       -2.723225    1.669680    3.829017
     72          1           0       -3.656910    0.084461    3.781674
     73          1           0       -2.315213   -1.965364   -0.280831
     74          1           0       -2.276981   -0.210326   -0.855999
     75          1           0       -0.520571    0.113567    1.335086
     76          1           0       -0.417235   -1.573665    1.491830
     77          1           0       -4.178875    5.861571    1.235556
     78          1           0       -5.523775    6.723485    1.532549
     79          1           0       -5.005549    5.553402    2.808851
     80          1           0       -8.058772    6.847793    1.459496
     81          1           0       -8.827951    6.033377   -1.763442
     82          1           0       -9.272079    7.668273   -0.472576
     83          1           0      -12.517037    3.617564   -0.181040
     84          1           0      -11.585047    3.960926   -1.923962
     85          1           0      -12.941353    2.782542   -1.649981
     86          1           0      -12.966108   -0.958491   -1.268706
     87          1           0      -13.596606    0.512975   -1.692920
     88          1           0      -12.331053    0.363934   -3.912253
     89          1           0      -11.573807   -1.120949   -3.512004
     90          1           0      -13.474407   -0.841590   -3.812203
     91          1           0       -9.934451   -4.836056   -0.497537
     92          1           0       -9.315319   -4.461366   -2.109697
     93          1           0       -8.476691   -5.505635   -1.157994
     94          1           0       -3.925739   -3.568368   -0.412067
     95          1           0       -1.913641   -6.282761    2.255769
     96          1           0       -1.774306   -4.608323    2.946385
     97          1           0       -3.007036   -5.715416    3.408282
     98          1           0        2.595005   -2.126525   -1.374907
     99          1           0        2.394912   -0.579125   -2.131790
    100          1           0        4.214787   -1.519213    0.341240
    101          1           0        4.818174    1.893700   -1.957174
    102          1           0        5.669643    0.886407   -3.157401
    103          1           0        3.704691    0.729149   -2.876833
    104          1           0        6.501880    1.285014   -0.356715
    105          1           0        6.355513    0.159162    0.915895
    106          1           0        7.216541   -1.698441   -1.239006
    107          1           0        7.591696   -0.178060   -2.155617
    108          1           0        9.094455    0.899676   -0.269592
    109          1           0        8.652541   -0.616185    0.719978
    110          1           0       10.325649   -0.531989   -1.911173
    111          1           0        9.128302   -2.691917   -1.677399
    112          1           0       10.867015   -2.926820   -1.094984
    113          1           0        9.567655   -2.917706    0.075708
    114          1           0       11.040160    0.838876    0.092306
    115          1           0       11.101900   -0.692468    0.977719
    116          1           0       12.637817   -1.679603   -0.576380
    117          1           0       12.611683   -0.294218   -1.772892
    118          1           0       13.578225    1.152409    0.224043
    119          1           0       13.721094   -0.450682    1.259826
    120          1           0       15.210202    0.169197   -1.383328
    121          1           0       14.899009   -2.234960   -0.739223
    122          1           0       16.662206   -1.980977   -0.772803
    123          1           0       15.432513   -2.143409    0.884216
    124          1           0       15.908296    1.880546    0.394265
    125          1           0       16.484570    0.456230    1.385198
    126          1           0       18.196289   -0.223040   -0.262772
    127          1           0       17.596843    1.282093   -1.252578
    128          1           0       18.124903    2.846552    0.691863
    129          1           0       18.563368    1.310897    1.677554
    130          1           0       20.324786    0.719584   -0.039841
    131          1           0       19.781415    3.493474   -1.120970
    132          1           0       21.107041    2.448111   -1.837162
    133          1           0       19.292651    1.874927   -1.937866
    134          1           0       21.028343    1.794311    2.096581
    135          1           0       21.840701    2.739609    0.767894
    136          1           0       20.497784    3.482595    1.317012
    137          1           0       -6.818599    1.820069    0.167395
    138          1           0       -7.810408   -0.177637    0.176455
 ---------------------------------------------------------------------

 SCF Done:  E(RB3LYP) =  -2732.99752309     A.U. after   17 cycles

 Excitation energies and oscillator strengths:

 Excited State   1:      Singlet-A      2.0455 eV  606.14 nm  f=0.1904  <S**2>=0.000
     235 -> 237       -0.22542
     235 -> 238       -0.26777
     236 -> 237        0.59326
     236 -> 238       -0.15532
 This state for optimization and/or second-order correction.
 Total Energy, E(TD-HF/TD-DFT) =  -2732.92235324
 Copying the excited state density for this state as the 1-particle RhoCI density.

 The electronic state is 1-A.
 Alpha  occ. eigenvalues --  -19.17860 -19.16615 -19.13643 -19.11446 -19.11222
 Alpha  occ. eigenvalues --  -14.37081 -14.36295 -14.32405 -14.30390 -10.31685
 Alpha  occ. eigenvalues --  -10.31403 -10.26745 -10.24363 -10.23853 -10.23777
 Alpha  occ. eigenvalues --  -10.23345 -10.23099 -10.22795 -10.22630 -10.22517
 Alpha  occ. eigenvalues --  -10.22021 -10.21887 -10.21785 -10.21645 -10.21567
 Alpha  occ. eigenvalues --  -10.21534 -10.21511 -10.21378 -10.21311 -10.21271
 Alpha  occ. eigenvalues --  -10.21099 -10.21006 -10.20957 -10.20952 -10.20708
 Alpha  occ. eigenvalues --  -10.20572 -10.20475 -10.20375 -10.20321 -10.19987
 Alpha  occ. eigenvalues --  -10.19904 -10.19777 -10.19762 -10.19761 -10.19664
 Alpha  occ. eigenvalues --  -10.19582 -10.19430 -10.19326 -10.19319 -10.19219
 Alpha  occ. eigenvalues --  -10.19191 -10.19165 -10.19126 -10.19094 -10.18883
 Alpha  occ. eigenvalues --  -10.18863 -10.18853 -10.18714 -10.18636 -10.18599
 Alpha  occ. eigenvalues --  -10.18541 -10.18402 -10.18220 -10.17928  -1.10608
 Alpha  occ. eigenvalues --   -1.09205  -1.01301  -1.01070  -0.99081  -0.98780
 Alpha  occ. eigenvalues --   -0.97231  -0.94649  -0.92848  -0.84942  -0.82726
 Alpha  occ. eigenvalues --   -0.82160  -0.81857  -0.81543  -0.81304  -0.80827
 Alpha  occ. eigenvalues --   -0.79960  -0.79488  -0.79124  -0.77959  -0.77601
 Alpha  occ. eigenvalues --   -0.77014  -0.76198  -0.75680  -0.74528  -0.74046
 Alpha  occ. eigenvalues --   -0.73413  -0.73185  -0.72434  -0.71537  -0.71087
 Alpha  occ. eigenvalues --   -0.69878  -0.69341  -0.68825  -0.67424  -0.67127
 Alpha  occ. eigenvalues --   -0.66648  -0.66617  -0.66154  -0.65756  -0.64983
 Alpha  occ. eigenvalues --   -0.64025  -0.63181  -0.62220  -0.61882  -0.61847
 Alpha  occ. eigenvalues --   -0.61027  -0.58681  -0.58444  -0.57940  -0.57572
 Alpha  occ. eigenvalues --   -0.56751  -0.56264  -0.55967  -0.55456  -0.55387
 Alpha  occ. eigenvalues --   -0.54798  -0.54318  -0.54311  -0.53483  -0.53198
 Alpha  occ. eigenvalues --   -0.52518  -0.52248  -0.51731  -0.51263  -0.50452
 Alpha  occ. eigenvalues --   -0.49990  -0.49485  -0.48452  -0.48134  -0.47961
 Alpha  occ. eigenvalues --   -0.47800  -0.47311  -0.47169  -0.47058  -0.46608
 Alpha  occ. eigenvalues --   -0.46470  -0.46019  -0.45862  -0.45750  -0.45625
 Alpha  occ. eigenvalues --   -0.45530  -0.45322  -0.44749  -0.44555  -0.44431
 Alpha  occ. eigenvalues --   -0.44347  -0.44121  -0.43977  -0.43823  -0.43678
 Alpha  occ. eigenvalues --   -0.43381  -0.43007  -0.42792  -0.42644  -0.42527
 Alpha  occ. eigenvalues --   -0.42362  -0.42162  -0.42007  -0.41766  -0.41388
 Alpha  occ. eigenvalues --   -0.40979  -0.40746  -0.40672  -0.40493  -0.40342
 Alpha  occ. eigenvalues --   -0.40196  -0.40034  -0.39866  -0.39777  -0.39642
 Alpha  occ. eigenvalues --   -0.39219  -0.38939  -0.38547  -0.38450  -0.38204
 Alpha  occ. eigenvalues --   -0.38183  -0.37940  -0.37579  -0.37417  -0.37246
 Alpha  occ. eigenvalues --   -0.37199  -0.36937  -0.36870  -0.36620  -0.36565
 Alpha  occ. eigenvalues --   -0.36375  -0.36189  -0.36078  -0.35848  -0.35791
 Alpha  occ. eigenvalues --   -0.35430  -0.35366  -0.34803  -0.34767  -0.34557
 Alpha  occ. eigenvalues --   -0.34486  -0.34233  -0.34040  -0.33671  -0.33468
 Alpha  occ. eigenvalues --   -0.33361  -0.32913  -0.32686  -0.32649  -0.32039
 Alpha  occ. eigenvalues --   -0.31724  -0.31629  -0.31401  -0.31040  -0.30913
 Alpha  occ. eigenvalues --   -0.30897  -0.30531  -0.30048  -0.29790  -0.29497
 Alpha  occ. eigenvalues --   -0.29384  -0.29234  -0.28994  -0.28985  -0.28049
 Alpha  occ. eigenvalues --   -0.27559  -0.27125  -0.26431  -0.25878  -0.25315
 Alpha  occ. eigenvalues --   -0.25012  -0.24746  -0.24281  -0.22921  -0.20011
 Alpha  occ. eigenvalues --   -0.19008
 Alpha virt. eigenvalues --   -0.10660  -0.07731  -0.04107  -0.02068  -0.00940
 Alpha virt. eigenvalues --   -0.00675  -0.00116   0.00451   0.02259   0.02788
 Alpha virt. eigenvalues --    0.03174   0.03449   0.04142   0.04537   0.04585

 Mulliken charges:
               1
     1  C   -0.047882
     2  C    0.037702
     3  C   -0.067912
     4  C    0.084670
     5  N   -0.136460
     6  C   -0.081685
     7  C   -0.093802
     8  C   -0.097724
     9  C   -0.061420
    10  C    0.060509
    11  C    0.081293
    12  C   -0.049578
    13  C    0.208504
    14  O   -0.279707
    15  O   -0.262666
    16  N   -0.036672
    17  C    0.051122
    18  C   -0.126978
    19  C   -0.018796
    20  C    0.127580
    21  C    0.148639
    22  C   -0.052881
    23  C   -0.039297
    24  N   -0.257956
    25  C   -0.001699
    26  C   -0.173556
    27  C   -0.023612
    28  C    0.069031
    29  C    0.095973
    30  C   -0.003364
    31  C    0.020687
    32  N   -0.131606
    33  C    0.041035
    34  C   -0.053044
    35  C   -0.004741
    36  C    0.093066
    37  C    0.052785
    38  C    0.040847
    39  O   -0.187119
    40  C    0.040854
    41  C    0.193503
    42  O   -0.178295
    43  O   -0.347748
    44  C    0.253120
    45  C    0.267380
    46  C   -0.076901
    47  C   -0.075544
    48  C    0.022379
    49  C   -0.044615
    50  C    0.025881
    51  C    0.035434
    52  C   -0.066398
    53  C   -0.030317
    54  C   -0.028782
    55  C    0.061981
    56  C   -0.031516
    57  C    0.003326
    58  C    0.003731
    59  C    0.038324
    60  C   -0.014428
    61  C   -0.115503
    62  C    0.006660
    63  C    0.013732
    64  C   -0.015546
    65  H   -0.057159
    66  H    0.005333
    67  H   -0.177359
    68  H    0.037989
    69  H    0.014494
    70  H    0.037079
    71  H    0.004321
    72  H    0.045512
    73  H    0.034094
    74  H    0.047557
    75  H    0.049767
    76  H    0.040243
    77  H    0.030991
    78  H   -0.044533
    79  H    0.038355
    80  H    0.029482
    81  H    0.075106
    82  H    0.013939
    83  H    0.038602
    84  H    0.051690
    85  H   -0.028599
    86  H    0.009089
    87  H    0.005967
    88  H   -0.013218
    89  H    0.025401
    90  H    0.021240
    91  H    0.039864
    92  H    0.010441
    93  H    0.032114
    94  H    0.032546
    95  H    0.005422
    96  H    0.010947
    97  H    0.008209
    98  H   -0.016093
    99  H    0.022099
   100  H    0.004296
   101  H    0.028246
   102  H    0.021150
   103  H    0.035922
   104  H   -0.002934
   105  H    0.029359
   106  H    0.031191
   107  H    0.011850
   108  H    0.024805
   109  H    0.003230
   110  H   -0.003623
   111  H    0.020657
   112  H    0.015868
   113  H    0.006567
   114  H   -0.020527
   115  H   -0.018350
   116  H   -0.007215
   117  H    0.001843
   118  H    0.000955
   119  H   -0.008059
   120  H   -0.020407
   121  H   -0.007845
   122  H    0.043430
   123  H    0.024851
   124  H   -0.000556
   125  H   -0.000908
   126  H    0.020460
   127  H   -0.007061
   128  H    0.010035
   129  H    0.008772
   130  H   -0.043229
   131  H    0.016521
   132  H    0.024832
   133  H    0.014633
   134  H    0.028802
   135  H   -0.013472
   136  H    0.002429
   137  H    0.143638
   138  H    0.234912
 Sum of Mulliken charges =  -0.00000

 Dipole moment (field-independent basis, Debye):
    X=              1.6105    Y=              5.2104    Z=              0.3694  Tot=              5.4662
 Quadrupole moment (field-independent basis, Debye-Ang):
   XX=           -354.3614   YY=           -383.4268   ZZ=           -395.4150
   XY=            -32.8559   XZ=              3.5642   YZ=             -2.6986

 Normal termination of Gaussian 16 at Fri Aug  9 13:54:44 2019.
