 Gaussian 16, Revision A.03,
 Gaussian 16:  ES64L-G16RevA.03 25-Dec-2016

 --------------------------
 # td=(NStates=1) B3LYP/SVP
 --------------------------

 --
 TD
 --
 Symbolic Z-matrix:
 Charge =  0 Multiplicity = 1

                         Standard orientation:
 ---------------------------------------------------------------------
 Center     Atomic      Atomic             Coordinates (Angstroms)
 Number     Number       Type             X           Y           Z
 ---------------------------------------------------------------------
      1          6           0       -5.253920   -1.938546    0.480114
      2          6           0       -4.767363    2.771733    1.516117
      3          6           0       -9.312700    3.469039   -0.193314
      4          6           0       -9.825685   -1.310923   -0.920161
      5          7           0       -5.303961    0.438183    0.872140
      6          6           0       -4.594048   -0.736563    0.827154
      7          6           0       -3.186555   -0.632923    1.238486
      8          6           0       -3.130509    0.830320    1.892069
      9          6           0       -4.471776    1.389350    1.385303
     10          6           0       -3.045230    0.726352    3.477258
     11          6           0       -2.136355   -0.754010    0.152962
     12          6           0       -0.768629   -0.845996    0.657230
     13          6           0        0.300035   -1.122818   -0.455256
     14          8           0        0.117939   -1.628205   -1.525938
     15          8           0        1.605964   -0.902276   -0.066715
     16          7           0       -7.099582    2.785459    0.521499
     17          6           0       -5.925863    3.401223    1.031722
     18          6           0       -6.159555    4.752523    0.910168
     19          6           0       -7.410387    5.037375    0.474311
     20          6           0       -8.000261    3.716255    0.130564
     21          6           0       -5.105584    5.802546    1.520483
     22          6           0       -7.975735    6.362261    0.284801
     23          6           0       -8.883753    6.783589   -0.598406
     24          7           0       -9.170809    0.932073   -0.490821
     25          6           0       -9.833436    2.130644   -0.508383
     26          6           0      -11.204632    1.957774   -0.928619
     27          6           0      -11.416781    0.585924   -1.115398
     28          6           0      -10.091217    0.053539   -0.811357
     29          6           0      -12.246609    3.004857   -1.053739
     30          6           0      -12.614092   -0.151920   -1.660344
     31          6           0      -12.515570   -0.278216   -3.159405
     32          7           0       -7.597292   -1.288754   -0.340625
     33          6           0       -8.627887   -1.991689   -0.743921
     34          6           0       -8.200072   -3.417062   -0.809697
     35          6           0       -6.961363   -3.484954   -0.236445
     36          6           0       -6.536659   -2.054431    0.029495
     37          6           0       -9.117441   -4.564800   -1.251855
     38          6           0       -5.730873   -4.247150   -0.095882
     39          8           0       -5.720653   -5.471377   -0.040224
     40          6           0       -4.564610   -3.305514    0.507611
     41          6           0       -4.096256   -3.871632    1.766254
     42          8           0       -4.279072   -3.365000    2.809549
     43          8           0       -3.268198   -4.853504    1.585938
     44          6           0       -2.542929   -5.534670    2.731418
     45          6           0        2.527374   -1.187516   -1.098758
     46          6           0        3.829113   -0.682412   -0.638674
     47          6           0        4.906412   -0.087893   -1.242704
     48          6           0        4.806954    0.410072   -2.620006
     49          6           0        6.222042    0.150423   -0.525478
     50          6           0        7.565711   -0.427050   -1.214618
     51          6           0        8.811430   -0.317433   -0.163792
     52          6           0       10.206145   -0.798873   -0.769155
     53          6           0       10.113156   -2.361227   -0.927963
     54          6           0       11.382999   -0.278580    0.149312
     55          6           0       12.705722   -0.617646   -0.506998
     56          6           0       13.892554   -0.013614    0.313249
     57          6           0       15.342115   -0.092033   -0.251503
     58          6           0       15.735747   -1.592535   -0.410045
     59          6           0       16.388219    0.747838    0.539362
     60          6           0       17.737453    0.790817   -0.092061
     61          6           0       18.770714    1.749516    0.544492
     62          6           0       20.224549    1.641684    0.044713
     63          6           0       20.203601    2.196020   -1.367084
     64          6           0       21.035760    2.556143    0.962875
     65          1           0       -3.989192    3.465347    1.813659
     66          1           0      -10.178992    4.264498   -0.060479
     67          1           0      -10.594402   -1.910794   -1.338320
     68          1           0       -2.948466   -1.216580    2.028725
     69          1           0       -2.248596    1.603392    1.563190
     70          1           0       -2.045912    0.132151    3.828826
     71          1           0       -2.959790    1.704348    3.919106
     72          1           0       -3.937076    0.351359    3.712737
     73          1           0       -2.377572   -1.888948   -0.339488
     74          1           0       -2.387708   -0.119664   -0.712742
     75          1           0       -0.248207    0.165603    1.042941
     76          1           0       -0.647908   -1.568063    1.553843
     77          1           0       -4.348019    6.001431    0.769559
     78          1           0       -5.578297    6.791124    1.834874
     79          1           0       -4.377016    5.293260    2.323011
     80          1           0       -7.549051    6.990423    1.047376
     81          1           0       -9.540818    6.182601   -1.153829
     82          1           0       -9.126155    7.871025   -0.472850
     83          1           0      -12.167622    3.807670   -0.190675
     84          1           0      -12.197251    3.816582   -1.929458
     85          1           0      -13.238625    2.486376   -1.173582
     86          1           0      -12.360265   -1.139623   -1.081654
     87          1           0      -13.446123    0.482107   -1.375761
     88          1           0      -12.363625    0.615282   -3.739214
     89          1           0      -11.722736   -1.027047   -3.380944
     90          1           0      -13.534436   -0.707255   -3.586433
     91          1           0      -10.052459   -4.608852   -0.637245
     92          1           0       -9.479001   -4.381447   -2.124693
     93          1           0       -8.549526   -5.503325   -1.449762
     94          1           0       -3.664080   -3.741772   -0.178584
     95          1           0       -1.735602   -6.109571    2.324689
     96          1           0       -2.165846   -4.746069    3.423086
     97          1           0       -3.334545   -6.132400    3.177804
     98          1           0        2.314197   -2.259624   -1.208784
     99          1           0        2.323953   -0.629219   -2.181274
    100          1           0        4.198641   -0.927910    0.435486
    101          1           0        5.115157    1.495673   -2.496074
    102          1           0        5.547483   -0.152714   -3.467078
    103          1           0        3.748108    0.248232   -2.969460
    104          1           0        6.309786    1.190880   -0.121009
    105          1           0        6.270983   -0.239807    0.508253
    106          1           0        7.299499   -1.356490   -1.565511
    107          1           0        7.986970    0.184042   -2.171760
    108          1           0        9.225644    0.730003    0.019982
    109          1           0        8.623126   -0.731057    0.952694
    110          1           0       10.273592   -0.264791   -1.626845
    111          1           0        9.250039   -2.802727   -1.670436
    112          1           0       11.073063   -2.586971   -1.386721
    113          1           0        9.943246   -2.666508    0.133300
    114          1           0       11.417131    0.818613    0.152277
    115          1           0       11.422487   -0.800781    1.130495
    116          1           0       12.937063   -1.682386   -0.884160
    117          1           0       12.587958   -0.149248   -1.513103
    118          1           0       13.497014    1.084776    0.444405
    119          1           0       13.801912   -0.633338    1.187652
    120          1           0       15.373830    0.450996   -1.144038
    121          1           0       14.789510   -2.134928   -0.834868
    122          1           0       16.403321   -1.879156   -1.208310
    123          1           0       16.122959   -2.070561    0.437403
    124          1           0       15.937482    1.686615    0.517909
    125          1           0       16.379084    0.407935    1.472406
    126          1           0       18.184442   -0.151202   -0.053318
    127          1           0       17.704618    0.848482   -1.151883
    128          1           0       18.300460    2.715247    0.648881
    129          1           0       18.523771    1.344698    1.635335
    130          1           0       20.362463    0.476272    0.248200
    131          1           0       19.628616    3.273509   -1.240157
    132          1           0       21.293153    2.272882   -1.777659
    133          1           0       19.474465    1.416221   -1.715402
    134          1           0       21.210645    2.160503    1.995938
    135          1           0       21.995804    2.724849    0.587194
    136          1           0       20.792189    3.613629    1.118013
    137          1           0       -7.012765    1.795680    0.505106
    138          1           0       -7.703336   -0.252480   -0.396024
 ---------------------------------------------------------------------

 SCF Done:  E(RB3LYP) =  -2733.08269908     A.U. after   17 cycles

 Excitation energies and oscillator strengths:

 Excited State   1:      Singlet-A      2.0467 eV  605.77 nm  f=0.1590  <S**2>=0.000
     235 -> 238        0.31877
     236 -> 237        0.62770
 This state for optimization and/or second-order correction.
 Total Energy, E(TD-HF/TD-DFT) =  -2733.00748371
 Copying the excited state density for this state as the 1-particle RhoCI density.

 The electronic state is 1-A.
 Alpha  occ. eigenvalues --  -19.17193 -19.16966 -19.12797 -19.11926 -19.10738
 Alpha  occ. eigenvalues --  -14.36942 -14.36512 -14.33071 -14.29817 -10.31723
 Alpha  occ. eigenvalues --  -10.30159 -10.27912 -10.25805 -10.25392 -10.23820
 Alpha  occ. eigenvalues --  -10.23767 -10.23292 -10.23258 -10.23143 -10.23086
 Alpha  occ. eigenvalues --  -10.22731 -10.22196 -10.21834 -10.21466 -10.21455
 Alpha  occ. eigenvalues --  -10.21310 -10.21021 -10.20967 -10.20755 -10.20743
 Alpha  occ. eigenvalues --  -10.20612 -10.20598 -10.20276 -10.20265 -10.20190
 Alpha  occ. eigenvalues --  -10.20128 -10.20050 -10.20023 -10.20009 -10.19880
 Alpha  occ. eigenvalues --  -10.19854 -10.19703 -10.19552 -10.19483 -10.19444
 Alpha  occ. eigenvalues --  -10.19284 -10.19264 -10.19054 -10.19027 -10.19015
 Alpha  occ. eigenvalues --  -10.18972 -10.18857 -10.18779 -10.18744 -10.18727
 Alpha  occ. eigenvalues --  -10.18571 -10.18436 -10.18171 -10.18056 -10.18038
 Alpha  occ. eigenvalues --  -10.17676 -10.16949 -10.16607 -10.16164  -1.10186
 Alpha  occ. eigenvalues --   -1.10030  -1.02030  -1.00844  -1.00589  -0.99741
 Alpha  occ. eigenvalues --   -0.98011  -0.94581  -0.94265  -0.84913  -0.82326
 Alpha  occ. eigenvalues --   -0.82133  -0.81869  -0.81584  -0.81078  -0.80792
 Alpha  occ. eigenvalues --   -0.80041  -0.79855  -0.79619  -0.78980  -0.77206
 Alpha  occ. eigenvalues --   -0.76620  -0.76131  -0.75993  -0.74845  -0.74359
 Alpha  occ. eigenvalues --   -0.74113  -0.73145  -0.72696  -0.71511  -0.70727
 Alpha  occ. eigenvalues --   -0.70148  -0.69543  -0.68505  -0.68001  -0.67543
 Alpha  occ. eigenvalues --   -0.67029  -0.66677  -0.66209  -0.65803  -0.64974
 Alpha  occ. eigenvalues --   -0.64635  -0.63342  -0.63088  -0.62266  -0.61748
 Alpha  occ. eigenvalues --   -0.60975  -0.59825  -0.58702  -0.58224  -0.57566
 Alpha  occ. eigenvalues --   -0.57242  -0.56414  -0.56241  -0.55506  -0.55313
 Alpha  occ. eigenvalues --   -0.55133  -0.54827  -0.54697  -0.54456  -0.53257
 Alpha  occ. eigenvalues --   -0.52692  -0.52039  -0.51727  -0.50891  -0.49906
 Alpha  occ. eigenvalues --   -0.49461  -0.49286  -0.48811  -0.48797  -0.48593
 Alpha  occ. eigenvalues --   -0.47860  -0.47403  -0.47351  -0.47133  -0.46841
 Alpha  occ. eigenvalues --   -0.46393  -0.46204  -0.46073  -0.46026  -0.45788
 Alpha  occ. eigenvalues --   -0.45641  -0.45518  -0.45231  -0.44947  -0.44843
 Alpha  occ. eigenvalues --   -0.44676  -0.44296  -0.43853  -0.43713  -0.43361
 Alpha  occ. eigenvalues --   -0.43263  -0.43158  -0.42880  -0.42767  -0.42557
 Alpha  occ. eigenvalues --   -0.42539  -0.42117  -0.41924  -0.41859  -0.41578
 Alpha  occ. eigenvalues --   -0.41286  -0.41196  -0.40888  -0.40655  -0.40323
 Alpha  occ. eigenvalues --   -0.40170  -0.40055  -0.39926  -0.39500  -0.39435
 Alpha  occ. eigenvalues --   -0.39280  -0.38889  -0.38752  -0.38523  -0.38419
 Alpha  occ. eigenvalues --   -0.38284  -0.38172  -0.38086  -0.37830  -0.37616
 Alpha  occ. eigenvalues --   -0.37322  -0.37133  -0.37060  -0.36956  -0.36847
 Alpha  occ. eigenvalues --   -0.36640  -0.36564  -0.36268  -0.35953  -0.35729
 Alpha  occ. eigenvalues --   -0.35536  -0.35329  -0.35035  -0.34944  -0.34896
 Alpha  occ. eigenvalues --   -0.34712  -0.34654  -0.34476  -0.34236  -0.34003
 Alpha  occ. eigenvalues --   -0.33710  -0.33469  -0.32920  -0.32564  -0.32292
 Alpha  occ. eigenvalues --   -0.32094  -0.31970  -0.31870  -0.31562  -0.31230
 Alpha  occ. eigenvalues --   -0.30748  -0.30625  -0.30524  -0.30230  -0.29860
 Alpha  occ. eigenvalues --   -0.29677  -0.28917  -0.28504  -0.28476  -0.28280
 Alpha  occ. eigenvalues --   -0.27769  -0.27333  -0.26926  -0.26606  -0.26213
 Alpha  occ. eigenvalues --   -0.24357  -0.24280  -0.24074  -0.22280  -0.20114
 Alpha  occ. eigenvalues --   -0.18650
 Alpha virt. eigenvalues --   -0.09902  -0.08279  -0.04949  -0.01831  -0.00842
 Alpha virt. eigenvalues --   -0.00364   0.00010   0.01198   0.01969   0.03632
 Alpha virt. eigenvalues --    0.03849   0.03911   0.04400   0.04494   0.04786

 Mulliken charges:
               1
     1  C    0.054534
     2  C   -0.038703
     3  C   -0.144855
     4  C   -0.083501
     5  N   -0.183550
     6  C   -0.074062
     7  C    0.115998
     8  C   -0.168138
     9  C    0.021971
    10  C    0.097104
    11  C    0.025069
    12  C   -0.003494
    13  C    0.174006
    14  O   -0.218093
    15  O   -0.321584
    16  N   -0.054209
    17  C    0.061840
    18  C   -0.089197
    19  C   -0.010730
    20  C    0.143367
    21  C    0.041532
    22  C   -0.028220
    23  C    0.000983
    24  N   -0.204395
    25  C    0.041165
    26  C   -0.103366
    27  C   -0.128105
    28  C    0.063662
    29  C    0.007154
    30  C    0.070430
    31  C    0.018181
    32  N    0.017622
    33  C   -0.001222
    34  C   -0.155208
    35  C    0.006474
    36  C    0.078159
    37  C    0.206934
    38  C    0.052372
    39  O   -0.190921
    40  C   -0.121012
    41  C    0.174013
    42  O   -0.202387
    43  O   -0.317662
    44  C    0.198795
    45  C    0.236491
    46  C   -0.064095
    47  C   -0.160374
    48  C    0.016971
    49  C    0.064150
    50  C    0.030017
    51  C   -0.041595
    52  C   -0.062260
    53  C    0.012933
    54  C    0.047473
    55  C   -0.065295
    56  C    0.033767
    57  C   -0.039676
    58  C    0.035049
    59  C    0.149277
    60  C    0.073702
    61  C   -0.046875
    62  C   -0.097221
    63  C    0.004032
    64  C    0.085894
    65  H   -0.035105
    66  H    0.032990
    67  H   -0.051322
    68  H   -0.048199
    69  H    0.023564
    70  H    0.037857
    71  H    0.001587
    72  H    0.002280
    73  H    0.034679
    74  H    0.015285
    75  H    0.044972
    76  H    0.057977
    77  H    0.016305
    78  H    0.039636
    79  H    0.040336
    80  H   -0.010662
    81  H    0.010371
    82  H    0.026834
    83  H    0.029074
    84  H    0.026282
    85  H    0.018623
    86  H    0.038210
    87  H   -0.000864
    88  H    0.015576
    89  H    0.012560
    90  H    0.015694
    91  H    0.031501
    92  H   -0.049691
    93  H    0.034606
    94  H    0.090874
    95  H    0.044274
    96  H    0.046647
    97  H    0.049921
    98  H    0.023309
    99  H    0.041874
   100  H   -0.005672
   101  H    0.034719
   102  H    0.046037
   103  H    0.010008
   104  H    0.005889
   105  H   -0.017974
   106  H    0.000687
   107  H    0.019729
   108  H   -0.003293
   109  H    0.014979
   110  H   -0.043649
   111  H    0.034758
   112  H    0.011433
   113  H    0.021373
   114  H    0.006926
   115  H    0.003136
   116  H    0.019406
   117  H   -0.028674
   118  H    0.004248
   119  H   -0.009591
   120  H   -0.036116
   121  H   -0.001394
   122  H   -0.004735
   123  H    0.000937
   124  H   -0.037471
   125  H   -0.049861
   126  H   -0.048159
   127  H   -0.031291
   128  H   -0.017893
   129  H   -0.008032
   130  H    0.024406
   131  H    0.034776
   132  H    0.041323
   133  H    0.021115
   134  H    0.001157
   135  H   -0.034653
   136  H   -0.005730
   137  H    0.124454
   138  H    0.153726
 Sum of Mulliken charges =  -0.00000

 Dipole moment (field-independent basis, Debye):
    X=              2.7958    Y=              3.0393    Z=              0.5936  Tot=              4.1720
 Quadrupole moment (field-independent basis, Debye-Ang):
   XX=           -358.3671   YY=           -381.2558   ZZ=           -396.0356
   XY=            -20.3267   XZ=             12.3071   YZ=             -0.6780

 Normal termination of Gaussian 16 at Fri Aug  9 12:25:44 2019.
