 Gaussian 16, Revision A.03,
 Gaussian 16:  ES64L-G16RevA.03 25-Dec-2016

 --------------------------
 # td=(NStates=1) B3LYP/SVP
 --------------------------

 --
 TD
 --
 Symbolic Z-matrix:
 Charge =  0 Multiplicity = 1

                         Standard orientation:
 ---------------------------------------------------------------------
 Center     Atomic      Atomic             Coordinates (Angstroms)
 Number     Number       Type             X           Y           Z
 ---------------------------------------------------------------------
      1          6           0       -5.066182   -2.018769    0.380222
      2          6           0       -4.700587    2.677382    1.408161
      3          6           0       -9.235228    3.378623   -0.172724
      4          6           0       -9.717112   -1.281731   -0.977870
      5          7           0       -5.199702    0.401409    0.743700
      6          6           0       -4.551353   -0.816607    0.817171
      7          6           0       -3.080938   -0.696424    1.376631
      8          6           0       -3.080240    0.716844    1.979153
      9          6           0       -4.440880    1.334775    1.414089
     10          6           0       -3.063901    0.588547    3.432332
     11          6           0       -2.030162   -0.904991    0.177389
     12          6           0       -0.544277   -0.915313    0.655138
     13          6           0        0.352083   -1.117407   -0.524550
     14          8           0        0.057034   -1.463557   -1.678066
     15          8           0        1.611108   -0.899975   -0.104023
     16          7           0       -6.912806    2.743805    0.577247
     17          6           0       -5.798454    3.418902    1.074562
     18          6           0       -6.067735    4.818199    1.180121
     19          6           0       -7.289605    5.013759    0.582500
     20          6           0       -7.891532    3.672752    0.185543
     21          6           0       -5.150253    5.862314    1.592272
     22          6           0       -7.944105    6.292202    0.477847
     23          6           0       -8.908416    6.785742   -0.386886
     24          7           0       -9.144904    0.966704   -0.632996
     25          6           0       -9.838870    2.242115   -0.599138
     26          6           0      -11.222717    2.118669   -1.133007
     27          6           0      -11.296468    0.719354   -1.295417
     28          6           0       -9.988734    0.145727   -0.916623
     29          6           0      -12.177455    3.216204   -1.288824
     30          6           0      -12.509172   -0.034998   -1.687546
     31          6           0      -12.507686   -0.330920   -3.239470
     32          7           0       -7.441811   -1.203272   -0.310132
     33          6           0       -8.544776   -1.939647   -0.684948
     34          6           0       -8.186267   -3.430050   -0.707717
     35          6           0       -6.874719   -3.346553   -0.346078
     36          6           0       -6.485740   -2.098940    0.004093
     37          6           0       -9.173711   -4.496323   -1.086111
     38          6           0       -5.769497   -4.303506   -0.014457
     39          8           0       -5.810072   -5.535977    0.099979
     40          6           0       -4.548622   -3.363735    0.431830
     41          6           0       -4.064983   -3.950580    1.807111
     42          8           0       -4.125468   -3.400529    2.849413
     43          8           0       -3.425774   -5.108359    1.535430
     44          6           0       -2.887198   -5.658292    2.757812
     45          6           0        2.684052   -1.006646   -1.181240
     46          6           0        3.897471   -0.898427   -0.538500
     47          6           0        4.916518   -0.065962   -0.820377
     48          6           0        4.875225    0.848448   -2.062073
     49          6           0        6.254320   -0.150080   -0.156651
     50          6           0        7.488164   -0.537980   -0.978759
     51          6           0        8.748028   -0.389233   -0.101583
     52          6           0       10.059347   -0.731219   -0.859945
     53          6           0       10.117882   -2.069864   -1.553398
     54          6           0       11.284463   -0.319408   -0.134438
     55          6           0       12.670123   -0.604975   -0.838485
     56          6           0       13.754127    0.065792   -0.024962
     57          6           0       15.193353   -0.091096   -0.588770
     58          6           0       15.625880   -1.561505   -0.731071
     59          6           0       16.201148    0.684108    0.478945
     60          6           0       17.645488    0.728864   -0.147495
     61          6           0       18.465172    1.741319    0.649936
     62          6           0       19.979668    1.668111    0.325691
     63          6           0       20.274330    2.415909   -1.108913
     64          6           0       20.869116    2.281098    1.427134
     65          1           0       -3.933419    3.360014    2.127320
     66          1           0       -9.771882    4.323878    0.023325
     67          1           0      -10.646280   -1.815627   -1.154718
     68          1           0       -3.155759   -1.630833    2.076169
     69          1           0       -2.239106    1.522198    1.639092
     70          1           0       -2.129083    0.185765    3.987253
     71          1           0       -3.417299    1.683653    3.812249
     72          1           0       -4.048764   -0.172404    3.744931
     73          1           0       -2.179177   -1.733273   -0.345008
     74          1           0       -1.935906   -0.105237   -0.685171
     75          1           0       -0.061828   -0.056168    1.140854
     76          1           0       -0.470292   -1.696566    1.390859
     77          1           0       -4.207822    5.829767    0.978959
     78          1           0       -5.344179    6.925121    1.321959
     79          1           0       -4.659154    5.769009    2.506687
     80          1           0       -7.652978    7.015777    1.173231
     81          1           0       -9.414901    5.920648   -1.125707
     82          1           0       -9.234912    7.784937   -0.531709
     83          1           0      -12.401418    3.668623   -0.294201
     84          1           0      -11.861500    4.015729   -2.052832
     85          1           0      -13.026138    2.971109   -1.759050
     86          1           0      -12.529105   -0.992229   -1.219106
     87          1           0      -13.229974    0.710327   -1.620037
     88          1           0      -12.556952    0.637928   -3.743327
     89          1           0      -11.817620   -1.162124   -3.738539
     90          1           0      -13.443453   -0.768419   -3.492726
     91          1           0      -10.253318   -4.322180   -0.630842
     92          1           0       -9.422598   -4.366412   -2.222586
     93          1           0       -8.745121   -5.513915   -1.018772
     94          1           0       -3.675346   -3.500564   -0.206590
     95          1           0       -2.178259   -6.376760    2.327255
     96          1           0       -2.443549   -4.964054    3.480114
     97          1           0       -3.721686   -6.025643    3.325878
     98          1           0        2.591619   -2.040711   -1.673272
     99          1           0        2.288425   -0.296673   -1.980303
    100          1           0        4.314948   -1.559566    0.358334
    101          1           0        5.111818    1.926208   -1.931519
    102          1           0        5.467493    0.468545   -2.871773
    103          1           0        3.961115    0.783306   -2.572512
    104          1           0        6.314174    0.841639    0.324367
    105          1           0        6.158179   -0.835854    0.802316
    106          1           0        7.473370   -1.750384   -1.334626
    107          1           0        7.404659    0.286796   -1.925047
    108          1           0        8.885526    0.572618    0.440567
    109          1           0        8.333932   -0.912426    0.759292
    110          1           0        9.767596    0.232922   -1.641948
    111          1           0        9.100114   -2.003239   -2.146092
    112          1           0       11.080156   -2.295101   -2.332583
    113          1           0       10.116123   -2.827004   -0.633197
    114          1           0       11.287539    0.721529   -0.064149
    115          1           0       11.375430   -0.943303    0.654907
    116          1           0       12.687401   -1.766564   -1.154720
    117          1           0       12.819642    0.034604   -1.791630
    118          1           0       13.337010    1.021657    0.111216
    119          1           0       13.661395   -0.316611    0.981110
    120          1           0       15.152170    0.605395   -1.525618
    121          1           0       14.975507   -2.161866   -1.445124
    122          1           0       16.573942   -1.910115   -1.130588
    123          1           0       15.563561   -2.049138    0.336733
    124          1           0       15.779960    1.612341    0.521827
    125          1           0       16.141714    0.163114    1.415022
    126          1           0       17.996677   -0.290975   -0.308469
    127          1           0       17.500348    1.241252   -1.048142
    128          1           0       18.111643    2.844211    0.608020
    129          1           0       18.509950    1.500388    1.745687
    130          1           0       20.177847    0.654348    0.002899
    131          1           0       19.894290    3.466476   -1.152278
    132          1           0       21.428243    2.301749   -1.288396
    133          1           0       19.470816    2.007286   -1.835177
    134          1           0       20.778984    1.428059    2.320194
    135          1           0       21.959278    2.252277    0.864380
    136          1           0       20.576145    3.293314    1.662934
    137          1           0       -6.825121    1.779912    0.313306
    138          1           0       -7.365185   -0.123308   -0.283688
 ---------------------------------------------------------------------

 SCF Done:  E(RB3LYP) =  -2733.03238895     A.U. after   17 cycles

 Excitation energies and oscillator strengths:

 Excited State   1:      Singlet-A      1.8874 eV  656.91 nm  f=0.2126  <S**2>=0.000
     235 -> 237       -0.11721
     235 -> 238       -0.20532
     236 -> 237        0.65799
     236 -> 238       -0.10842
 This state for optimization and/or second-order correction.
 Total Energy, E(TD-HF/TD-DFT) =  -2732.96302865
 Copying the excited state density for this state as the 1-particle RhoCI density.

 The electronic state is 1-A.
 Alpha  occ. eigenvalues --  -19.18292 -19.16991 -19.13863 -19.13086 -19.11948
 Alpha  occ. eigenvalues --  -14.37313 -14.36327 -14.32400 -14.29341 -10.32014
 Alpha  occ. eigenvalues --  -10.30823 -10.28743 -10.25373 -10.24118 -10.23830
 Alpha  occ. eigenvalues --  -10.23678 -10.23188 -10.22966 -10.22769 -10.22666
 Alpha  occ. eigenvalues --  -10.22624 -10.22014 -10.21828 -10.21371 -10.21137
 Alpha  occ. eigenvalues --  -10.20966 -10.20944 -10.20639 -10.20537 -10.20463
 Alpha  occ. eigenvalues --  -10.20445 -10.20435 -10.20387 -10.20284 -10.20232
 Alpha  occ. eigenvalues --  -10.20091 -10.20044 -10.19977 -10.19965 -10.19719
 Alpha  occ. eigenvalues --  -10.19579 -10.19485 -10.19459 -10.19434 -10.19270
 Alpha  occ. eigenvalues --  -10.19198 -10.19123 -10.19103 -10.19101 -10.19090
 Alpha  occ. eigenvalues --  -10.19042 -10.19019 -10.18900 -10.18899 -10.18682
 Alpha  occ. eigenvalues --  -10.18631 -10.18520 -10.18463 -10.18396 -10.18310
 Alpha  occ. eigenvalues --  -10.17676 -10.17401 -10.17315 -10.16799  -1.10893
 Alpha  occ. eigenvalues --   -1.07566  -1.02815  -1.01869  -0.98992  -0.98524
 Alpha  occ. eigenvalues --   -0.96583  -0.95263  -0.92505  -0.85350  -0.83350
 Alpha  occ. eigenvalues --   -0.82257  -0.82066  -0.80806  -0.80626  -0.80559
 Alpha  occ. eigenvalues --   -0.80058  -0.79841  -0.79153  -0.78494  -0.77879
 Alpha  occ. eigenvalues --   -0.76757  -0.76154  -0.75839  -0.74952  -0.74545
 Alpha  occ. eigenvalues --   -0.73288  -0.73225  -0.72571  -0.71447  -0.70880
 Alpha  occ. eigenvalues --   -0.70080  -0.69222  -0.68767  -0.68325  -0.67612
 Alpha  occ. eigenvalues --   -0.67190  -0.66072  -0.65759  -0.65539  -0.64781
 Alpha  occ. eigenvalues --   -0.64090  -0.62166  -0.62016  -0.61530  -0.61301
 Alpha  occ. eigenvalues --   -0.60703  -0.58755  -0.58543  -0.57530  -0.56725
 Alpha  occ. eigenvalues --   -0.56275  -0.55789  -0.55574  -0.55498  -0.55135
 Alpha  occ. eigenvalues --   -0.55064  -0.54627  -0.54126  -0.53637  -0.53258
 Alpha  occ. eigenvalues --   -0.52472  -0.51641  -0.51406  -0.50989  -0.50215
 Alpha  occ. eigenvalues --   -0.49702  -0.49297  -0.49255  -0.48973  -0.48467
 Alpha  occ. eigenvalues --   -0.48164  -0.47960  -0.47779  -0.47639  -0.46723
 Alpha  occ. eigenvalues --   -0.46356  -0.46106  -0.45713  -0.45479  -0.45419
 Alpha  occ. eigenvalues --   -0.45082  -0.44921  -0.44848  -0.44691  -0.44591
 Alpha  occ. eigenvalues --   -0.44506  -0.44348  -0.43778  -0.43768  -0.43500
 Alpha  occ. eigenvalues --   -0.43204  -0.43054  -0.42945  -0.42905  -0.42600
 Alpha  occ. eigenvalues --   -0.42288  -0.42199  -0.41898  -0.41544  -0.41285
 Alpha  occ. eigenvalues --   -0.41062  -0.40887  -0.40760  -0.40544  -0.40020
 Alpha  occ. eigenvalues --   -0.39857  -0.39652  -0.39548  -0.39327  -0.39229
 Alpha  occ. eigenvalues --   -0.39016  -0.39005  -0.38836  -0.38725  -0.38537
 Alpha  occ. eigenvalues --   -0.38512  -0.38307  -0.38143  -0.37772  -0.37495
 Alpha  occ. eigenvalues --   -0.37441  -0.37115  -0.37040  -0.36803  -0.36776
 Alpha  occ. eigenvalues --   -0.36666  -0.36398  -0.36270  -0.36076  -0.35880
 Alpha  occ. eigenvalues --   -0.35778  -0.35606  -0.35414  -0.35111  -0.34996
 Alpha  occ. eigenvalues --   -0.34689  -0.34424  -0.34184  -0.33819  -0.33660
 Alpha  occ. eigenvalues --   -0.33345  -0.32989  -0.32612  -0.32384  -0.32151
 Alpha  occ. eigenvalues --   -0.32081  -0.31614  -0.31322  -0.31203  -0.30925
 Alpha  occ. eigenvalues --   -0.30547  -0.30488  -0.30287  -0.30109  -0.29978
 Alpha  occ. eigenvalues --   -0.29257  -0.28730  -0.28378  -0.27907  -0.27724
 Alpha  occ. eigenvalues --   -0.27234  -0.27075  -0.26523  -0.26228  -0.26011
 Alpha  occ. eigenvalues --   -0.25303  -0.24972  -0.23400  -0.22502  -0.20019
 Alpha  occ. eigenvalues --   -0.17650
 Alpha virt. eigenvalues --   -0.10143  -0.07451  -0.04122  -0.02072  -0.00441
 Alpha virt. eigenvalues --   -0.00142   0.00272   0.00396   0.02336   0.03201
 Alpha virt. eigenvalues --    0.03585   0.03856   0.04177   0.04268   0.04799

 Mulliken charges:
               1
     1  C    0.011704
     2  C   -0.084498
     3  C   -0.114395
     4  C   -0.094907
     5  N   -0.230272
     6  C   -0.067450
     7  C   -0.033718
     8  C   -0.027995
     9  C    0.018472
    10  C   -0.039396
    11  C    0.094308
    12  C    0.038825
    13  C    0.178753
    14  O   -0.274215
    15  O   -0.338157
    16  N   -0.080309
    17  C    0.068776
    18  C   -0.063642
    19  C    0.048327
    20  C    0.069758
    21  C    0.111966
    22  C   -0.075097
    23  C   -0.071014
    24  N   -0.152818
    25  C    0.106484
    26  C   -0.110514
    27  C   -0.155664
    28  C   -0.007761
    29  C    0.149685
    30  C    0.170737
    31  C   -0.023093
    32  N   -0.066185
    33  C    0.095180
    34  C   -0.098637
    35  C   -0.020716
    36  C    0.061945
    37  C    0.055430
    38  C    0.103088
    39  O   -0.181073
    40  C   -0.033277
    41  C    0.177593
    42  O   -0.195241
    43  O   -0.292271
    44  C    0.201254
    45  C    0.244505
    46  C   -0.041315
    47  C   -0.186349
    48  C    0.103220
    49  C    0.036089
    50  C   -0.073592
    51  C    0.035172
    52  C   -0.094337
    53  C   -0.050836
    54  C    0.143542
    55  C   -0.076840
    56  C    0.073516
    57  C   -0.076164
    58  C    0.006815
    59  C    0.058041
    60  C    0.093540
    61  C    0.000274
    62  C   -0.114724
    63  C   -0.048111
    64  C    0.002874
    65  H    0.007802
    66  H   -0.003313
    67  H   -0.049404
    68  H    0.049217
    69  H    0.031658
    70  H    0.046304
    71  H    0.016128
    72  H    0.042979
    73  H   -0.041965
    74  H    0.023961
    75  H    0.027604
    76  H    0.018766
    77  H    0.005225
    78  H    0.019185
    79  H   -0.003061
    80  H   -0.018504
    81  H    0.042698
    82  H    0.022879
    83  H    0.039634
    84  H    0.022744
    85  H   -0.042458
    86  H   -0.001442
    87  H   -0.027377
    88  H    0.005690
    89  H    0.030855
    90  H   -0.013542
    91  H    0.051879
    92  H    0.039960
    93  H    0.048368
    94  H    0.054658
    95  H    0.043286
    96  H    0.029705
    97  H    0.018775
    98  H    0.043702
    99  H    0.051153
   100  H    0.014066
   101  H    0.021900
   102  H    0.015679
   103  H   -0.038047
   104  H    0.008987
   105  H    0.001720
   106  H    0.049792
   107  H    0.031779
   108  H   -0.010772
   109  H   -0.032322
   110  H   -0.008138
   111  H    0.042422
   112  H    0.060545
   113  H    0.030220
   114  H   -0.019925
   115  H   -0.033977
   116  H    0.028589
   117  H   -0.012712
   118  H   -0.034011
   119  H   -0.037746
   120  H    0.004520
   121  H    0.011699
   122  H    0.011285
   123  H    0.017561
   124  H   -0.035561
   125  H   -0.006974
   126  H    0.008191
   127  H   -0.024309
   128  H    0.006927
   129  H   -0.017063
   130  H   -0.005529
   131  H   -0.000693
   132  H    0.038043
   133  H    0.009213
   134  H    0.039079
   135  H    0.023890
   136  H    0.024909
   137  H    0.126310
   138  H    0.191415
 Sum of Mulliken charges =  -0.00000

 Dipole moment (field-independent basis, Debye):
    X=              1.7863    Y=              2.6393    Z=              0.6337  Tot=              3.2494
 Quadrupole moment (field-independent basis, Debye-Ang):
   XX=           -356.8973   YY=           -378.5849   ZZ=           -398.8692
   XY=            -17.8669   XZ=             12.3818   YZ=             -2.5072

 Normal termination of Gaussian 16 at Sun Aug 11 18:59:55 2019.
