 Gaussian 16, Revision A.03,
 Gaussian 16:  ES64L-G16RevA.03 25-Dec-2016

 --------------------------
 # td=(NStates=1) B3LYP/SVP
 --------------------------

 --
 TD
 --
 Symbolic Z-matrix:
 Charge =  0 Multiplicity = 1

                         Standard orientation:
 ---------------------------------------------------------------------
 Center     Atomic      Atomic             Coordinates (Angstroms)
 Number     Number       Type             X           Y           Z
 ---------------------------------------------------------------------
      1          6           0       -5.119807   -1.935455    0.669368
      2          6           0       -4.726613    2.789299    1.370681
      3          6           0       -9.205601    3.328827   -0.257025
      4          6           0       -9.871118   -1.453393   -0.983432
      5          7           0       -5.083279    0.442769    0.886793
      6          6           0       -4.430950   -0.792504    0.930353
      7          6           0       -2.947994   -0.588225    1.377688
      8          6           0       -2.905393    0.824560    1.851476
      9          6           0       -4.289032    1.382357    1.377468
     10          6           0       -2.917844    0.898788    3.293299
     11          6           0       -1.976782   -0.761022    0.112408
     12          6           0       -0.560311   -0.949246    0.594385
     13          6           0        0.403806   -1.092269   -0.563558
     14          8           0        0.129252   -1.486897   -1.651835
     15          8           0        1.713437   -0.761737   -0.202945
     16          7           0       -6.960321    2.744143    0.487106
     17          6           0       -5.871337    3.377054    1.067184
     18          6           0       -6.128999    4.717682    1.105117
     19          6           0       -7.540441    4.918076    0.653705
     20          6           0       -7.968359    3.660746    0.198391
     21          6           0       -5.218662    5.764224    1.843285
     22          6           0       -8.071696    6.278809    0.580257
     23          6           0       -9.060335    6.724663   -0.289024
     24          7           0       -9.164928    0.858269   -0.530152
     25          6           0       -9.790757    2.128040   -0.585307
     26          6           0      -11.112824    2.005648   -1.141175
     27          6           0      -11.369139    0.721906   -1.397949
     28          6           0       -9.991216    0.004547   -0.939398
     29          6           0      -12.138022    3.093226   -1.381486
     30          6           0      -12.480991   -0.149809   -1.777516
     31          6           0      -12.568399   -0.385774   -3.324244
     32          7           0       -7.474628   -1.221206   -0.109221
     33          6           0       -8.591872   -2.012063   -0.587290
     34          6           0       -8.253641   -3.406913   -0.581424
     35          6           0       -6.923234   -3.408969   -0.208380
     36          6           0       -6.448590   -2.126378    0.081596
     37          6           0       -9.114831   -4.622697   -0.884339
     38          6           0       -5.716183   -4.278869   -0.054580
     39          8           0       -5.781345   -5.491099   -0.006064
     40          6           0       -4.508712   -3.434288    0.455577
     41          6           0       -4.106692   -3.946465    1.800598
     42          8           0       -4.277863   -3.543301    2.940753
     43          8           0       -3.267901   -5.009968    1.533962
     44          6           0       -2.815267   -5.734941    2.680864
     45          6           0        2.623743   -1.052507   -1.194397
     46          6           0        3.989573   -0.712717   -0.692528
     47          6           0        4.905206    0.178712   -1.242819
     48          6           0        4.739137    0.870733   -2.512968
     49          6           0        6.343294    0.401867   -0.466103
     50          6           0        7.547504   -0.081148   -1.223943
     51          6           0        8.709224    0.010467   -0.244863
     52          6           0        9.990935   -0.586926   -0.943326
     53          6           0        9.925103   -2.051469   -1.218305
     54          6           0       11.317829   -0.177417   -0.108664
     55          6           0       12.659292   -0.582928   -0.849685
     56          6           0       13.798828   -0.146509    0.162330
     57          6           0       15.178806   -0.340563   -0.430476
     58          6           0       15.682269   -1.732998   -0.468397
     59          6           0       16.058331    0.624776    0.401904
     60          6           0       17.511366    0.680688   -0.064658
     61          6           0       18.540946    1.451997    0.822919
     62          6           0       20.049994    1.536312    0.263899
     63          6           0       20.012845    2.395774   -1.087743
     64          6           0       20.934308    2.028143    1.317098
     65          1           0       -4.037523    3.473437    1.813770
     66          1           0       -9.705054    4.192579   -0.351795
     67          1           0      -10.696134   -2.050248   -1.458282
     68          1           0       -3.015110   -1.175839    2.048299
     69          1           0       -2.245326    1.408958    1.420122
     70          1           0       -2.000329    0.344992    3.773672
     71          1           0       -2.841935    1.900797    3.823350
     72          1           0       -3.827803    0.455878    3.627615
     73          1           0       -2.310026   -1.628218   -0.616010
     74          1           0       -1.896519    0.093986   -0.619517
     75          1           0       -0.259642   -0.043334    1.179362
     76          1           0       -0.400105   -1.699079    1.380291
     77          1           0       -4.389340    5.969967    1.099771
     78          1           0       -5.842136    6.723686    2.022481
     79          1           0       -4.906099    5.534075    2.770388
     80          1           0       -7.662041    6.990367    1.408971
     81          1           0       -9.344532    6.127858   -1.072419
     82          1           0       -9.919854    7.571856    0.037799
     83          1           0      -12.367553    3.665610   -0.325449
     84          1           0      -11.850942    3.931916   -2.033077
     85          1           0      -13.113096    2.639068   -1.828335
     86          1           0      -12.386397   -1.176902   -1.284442
     87          1           0      -13.370118    0.312508   -1.443143
     88          1           0      -12.761917    0.578245   -3.773801
     89          1           0      -11.423685   -0.937362   -3.645122
     90          1           0      -13.374438   -1.100704   -3.526982
     91          1           0      -10.243470   -4.640826   -0.589482
     92          1           0       -9.179677   -4.678452   -2.050566
     93          1           0       -8.621722   -5.571646   -0.733753
     94          1           0       -3.545208   -3.468337   -0.226208
     95          1           0       -2.134166   -6.574770    2.531099
     96          1           0       -2.373997   -5.162238    3.542805
     97          1           0       -3.648155   -6.231594    3.168515
     98          1           0        2.636114   -2.061591   -1.545046
     99          1           0        2.442601   -0.600023   -2.131774
    100          1           0        4.340301   -1.483738    0.112571
    101          1           0        4.779254    2.019208   -2.231000
    102          1           0        5.594954    0.820907   -3.322986
    103          1           0        3.733489    0.672663   -2.886826
    104          1           0        6.282268    1.552209   -0.366491
    105          1           0        6.229924   -0.139831    0.551776
    106          1           0        7.515777   -1.065692   -1.529136
    107          1           0        7.608337    0.513139   -2.261856
    108          1           0        8.880767    1.068599    0.141290
    109          1           0        8.709078   -0.508034    0.825615
    110          1           0        9.904022   -0.258170   -1.964317
    111          1           0        9.043113   -2.357030   -1.824225
    112          1           0       10.841392   -2.277577   -1.591635
    113          1           0        9.804045   -2.654406   -0.317914
    114          1           0       11.367470    0.848981    0.110594
    115          1           0       11.385548   -0.536302    0.829491
    116          1           0       12.686975   -1.629645   -1.167991
    117          1           0       12.860000    0.213635   -1.823666
    118          1           0       13.776068    1.006500    0.261594
    119          1           0       13.743553   -0.596344    0.968821
    120          1           0       15.323458    0.032393   -1.594176
    121          1           0       14.965065   -2.544729   -0.843206
    122          1           0       16.650856   -1.922243   -1.109683
    123          1           0       15.905146   -1.972139    0.573199
    124          1           0       15.618941    1.610720    0.325380
    125          1           0       16.038897    0.303900    1.578893
    126          1           0       17.963219   -0.121540   -0.565002
    127          1           0       17.703856    1.270533   -1.051894
    128          1           0       18.355497    2.527955    1.013249
    129          1           0       18.621624    1.093638    1.927982
    130          1           0       20.419316    0.639953    0.050902
    131          1           0       19.884231    3.566791   -0.822045
    132          1           0       21.078974    2.319103   -1.462383
    133          1           0       19.355724    2.152207   -1.987765
    134          1           0       20.967659    1.345996    2.269705
    135          1           0       21.886183    1.919955    0.928056
    136          1           0       20.668666    2.991506    1.783650
    137          1           0       -6.796926    1.713689    0.052497
    138          1           0       -7.508103   -0.195961    0.132084
 ---------------------------------------------------------------------

 SCF Done:  E(RB3LYP) =  -2733.01647221     A.U. after   18 cycles

 Excitation energies and oscillator strengths:

 Excited State   1:      Singlet-A      1.9276 eV  643.21 nm  f=0.2223  <S**2>=0.000
     235 -> 237       -0.17642
     235 -> 238       -0.19755
     236 -> 237        0.63878
     236 -> 238       -0.14730
 This state for optimization and/or second-order correction.
 Total Energy, E(TD-HF/TD-DFT) =  -2732.94563515
 Copying the excited state density for this state as the 1-particle RhoCI density.

 The electronic state is 1-A.
 Alpha  occ. eigenvalues --  -19.17548 -19.17488 -19.13743 -19.13332 -19.12411
 Alpha  occ. eigenvalues --  -14.37222 -14.36121 -14.32686 -14.30257 -10.32149
 Alpha  occ. eigenvalues --  -10.31949 -10.28388 -10.24441 -10.23878 -10.23718
 Alpha  occ. eigenvalues --  -10.23571 -10.23289 -10.23268 -10.23171 -10.22826
 Alpha  occ. eigenvalues --  -10.22057 -10.21937 -10.21876 -10.21823 -10.21651
 Alpha  occ. eigenvalues --  -10.21617 -10.21540 -10.21333 -10.20995 -10.20974
 Alpha  occ. eigenvalues --  -10.20927 -10.20811 -10.20565 -10.20378 -10.20357
 Alpha  occ. eigenvalues --  -10.20356 -10.20353 -10.20243 -10.20115 -10.19795
 Alpha  occ. eigenvalues --  -10.19668 -10.19447 -10.19440 -10.19304 -10.19177
 Alpha  occ. eigenvalues --  -10.19163 -10.19106 -10.19094 -10.19083 -10.19063
 Alpha  occ. eigenvalues --  -10.18955 -10.18840 -10.18634 -10.18452 -10.18446
 Alpha  occ. eigenvalues --  -10.18396 -10.18367 -10.18312 -10.18223 -10.17853
 Alpha  occ. eigenvalues --  -10.17494 -10.17304 -10.17141 -10.16570  -1.10198
 Alpha  occ. eigenvalues --   -1.08687  -1.02994  -1.02329  -1.00165  -0.97048
 Alpha  occ. eigenvalues --   -0.96640  -0.94692  -0.94298  -0.83801  -0.82950
 Alpha  occ. eigenvalues --   -0.82147  -0.82009  -0.81432  -0.80610  -0.80201
 Alpha  occ. eigenvalues --   -0.80183  -0.80118  -0.79836  -0.79089  -0.78457
 Alpha  occ. eigenvalues --   -0.76695  -0.76257  -0.75681  -0.74657  -0.74519
 Alpha  occ. eigenvalues --   -0.73553  -0.73075  -0.72557  -0.72078  -0.70616
 Alpha  occ. eigenvalues --   -0.70151  -0.68784  -0.68004  -0.67741  -0.67315
 Alpha  occ. eigenvalues --   -0.67115  -0.66723  -0.66071  -0.65703  -0.64996
 Alpha  occ. eigenvalues --   -0.64483  -0.62625  -0.62343  -0.61619  -0.61017
 Alpha  occ. eigenvalues --   -0.60552  -0.60055  -0.58792  -0.58469  -0.57748
 Alpha  occ. eigenvalues --   -0.57644  -0.57409  -0.56195  -0.55984  -0.55877
 Alpha  occ. eigenvalues --   -0.55599  -0.55106  -0.54374  -0.53336  -0.52622
 Alpha  occ. eigenvalues --   -0.52380  -0.52122  -0.51299  -0.50820  -0.50319
 Alpha  occ. eigenvalues --   -0.50018  -0.49792  -0.49439  -0.48461  -0.48330
 Alpha  occ. eigenvalues --   -0.48006  -0.47601  -0.47412  -0.47012  -0.46873
 Alpha  occ. eigenvalues --   -0.46698  -0.46384  -0.46070  -0.45894  -0.45681
 Alpha  occ. eigenvalues --   -0.45271  -0.45110  -0.44895  -0.44815  -0.44564
 Alpha  occ. eigenvalues --   -0.44385  -0.43950  -0.43894  -0.43611  -0.43568
 Alpha  occ. eigenvalues --   -0.43340  -0.43113  -0.42949  -0.42836  -0.42572
 Alpha  occ. eigenvalues --   -0.42317  -0.42101  -0.42020  -0.41744  -0.41540
 Alpha  occ. eigenvalues --   -0.41069  -0.40979  -0.40818  -0.40501  -0.40384
 Alpha  occ. eigenvalues --   -0.40227  -0.39630  -0.39578  -0.39459  -0.39325
 Alpha  occ. eigenvalues --   -0.39110  -0.38977  -0.38891  -0.38700  -0.38406
 Alpha  occ. eigenvalues --   -0.38253  -0.38238  -0.38098  -0.38015  -0.37906
 Alpha  occ. eigenvalues --   -0.37506  -0.37390  -0.37267  -0.37212  -0.37011
 Alpha  occ. eigenvalues --   -0.36870  -0.36415  -0.36358  -0.36176  -0.35963
 Alpha  occ. eigenvalues --   -0.35768  -0.35626  -0.35593  -0.35529  -0.35242
 Alpha  occ. eigenvalues --   -0.35194  -0.35029  -0.34990  -0.34840  -0.33645
 Alpha  occ. eigenvalues --   -0.33578  -0.33425  -0.33268  -0.32967  -0.32705
 Alpha  occ. eigenvalues --   -0.32414  -0.32306  -0.32219  -0.31850  -0.31063
 Alpha  occ. eigenvalues --   -0.30961  -0.30404  -0.30111  -0.30040  -0.29588
 Alpha  occ. eigenvalues --   -0.29339  -0.29086  -0.28621  -0.28218  -0.28192
 Alpha  occ. eigenvalues --   -0.27151  -0.26903  -0.26783  -0.26321  -0.25579
 Alpha  occ. eigenvalues --   -0.25249  -0.23662  -0.23404  -0.23055  -0.20650
 Alpha  occ. eigenvalues --   -0.18349
 Alpha virt. eigenvalues --   -0.10933  -0.07697  -0.04847  -0.02914  -0.00947
 Alpha virt. eigenvalues --   -0.00554  -0.00281   0.00444   0.02030   0.03487
 Alpha virt. eigenvalues --    0.03679   0.03959   0.04387   0.04568   0.04900

 Mulliken charges:
               1
     1  C    0.044290
     2  C   -0.050784
     3  C   -0.022785
     4  C   -0.087200
     5  N   -0.190551
     6  C   -0.135198
     7  C    0.281293
     8  C    0.088813
     9  C   -0.084231
    10  C    0.042782
    11  C    0.004335
    12  C    0.055666
    13  C    0.176733
    14  O   -0.203695
    15  O   -0.307064
    16  N   -0.151343
    17  C    0.141394
    18  C   -0.148951
    19  C    0.037630
    20  C    0.058843
    21  C    0.101397
    22  C   -0.063599
    23  C   -0.061099
    24  N   -0.167654
    25  C    0.142511
    26  C   -0.119053
    27  C   -0.069970
    28  C   -0.035508
    29  C    0.037272
    30  C    0.045143
    31  C   -0.027980
    32  N   -0.117051
    33  C    0.109865
    34  C   -0.135356
    35  C    0.013426
    36  C    0.055954
    37  C    0.075986
    38  C    0.090514
    39  O   -0.171630
    40  C   -0.113185
    41  C    0.242311
    42  O   -0.222829
    43  O   -0.315290
    44  C    0.197102
    45  C    0.307816
    46  C   -0.117807
    47  C   -0.151750
    48  C    0.046009
    49  C    0.023548
    50  C    0.068751
    51  C   -0.027242
    52  C   -0.038989
    53  C    0.083643
    54  C    0.125782
    55  C   -0.048111
    56  C    0.125399
    57  C   -0.131063
    58  C    0.013645
    59  C    0.057934
    60  C    0.076575
    61  C   -0.016524
    62  C   -0.038105
    63  C   -0.053744
    64  C    0.053857
    65  H   -0.056381
    66  H   -0.127429
    67  H    0.014884
    68  H   -0.155182
    69  H   -0.065536
    70  H    0.016952
    71  H    0.017479
    72  H    0.017177
    73  H    0.042244
    74  H    0.022726
    75  H    0.018623
    76  H    0.036664
    77  H    0.042425
    78  H    0.013254
    79  H    0.011758
    80  H    0.031377
    81  H    0.013164
    82  H    0.058625
    83  H    0.033514
    84  H    0.020891
    85  H    0.028221
    86  H    0.018573
    87  H   -0.010457
    88  H    0.021841
    89  H    0.036215
    90  H    0.021113
    91  H    0.045201
    92  H    0.026853
    93  H    0.029817
    94  H    0.094369
    95  H    0.023325
    96  H    0.022500
    97  H    0.009146
    98  H   -0.010217
    99  H   -0.035626
   100  H    0.012823
   101  H    0.018009
   102  H    0.052499
   103  H    0.009666
   104  H    0.021068
   105  H    0.017596
   106  H   -0.029391
   107  H    0.019130
   108  H   -0.007387
   109  H    0.007229
   110  H   -0.025722
   111  H    0.009830
   112  H   -0.026275
   113  H   -0.019779
   114  H   -0.036131
   115  H   -0.047172
   116  H    0.021058
   117  H    0.015523
   118  H    0.009083
   119  H   -0.082395
   120  H   -0.000625
   121  H    0.013784
   122  H    0.027400
   123  H   -0.005868
   124  H   -0.001977
   125  H    0.011543
   126  H   -0.042702
   127  H   -0.032588
   128  H   -0.015328
   129  H   -0.014648
   130  H   -0.039605
   131  H    0.022178
   132  H    0.005328
   133  H    0.044726
   134  H    0.008325
   135  H   -0.015629
   136  H    0.006710
   137  H    0.198825
   138  H    0.161910
 Sum of Mulliken charges =  -0.00000

 Dipole moment (field-independent basis, Debye):
    X=              1.9532    Y=              2.9606    Z=              0.1512  Tot=              3.5500
 Quadrupole moment (field-independent basis, Debye-Ang):
   XX=           -343.9951   YY=           -389.7842   ZZ=           -394.5433
   XY=            -19.2328   XZ=             10.5410   YZ=              3.6864

 Normal termination of Gaussian 16 at Sat Aug 24 16:44:01 2019.
