 Gaussian 16, Revision A.03,
 Gaussian 16:  ES64L-G16RevA.03 25-Dec-2016

 --------------------------
 # td=(NStates=1) B3LYP/SVP
 --------------------------

 --
 TD
 --
 Symbolic Z-matrix:
 Charge =  0 Multiplicity = 1

                         Standard orientation:
 ---------------------------------------------------------------------
 Center     Atomic      Atomic             Coordinates (Angstroms)
 Number     Number       Type             X           Y           Z
 ---------------------------------------------------------------------
      1          6           0       -5.180565   -1.962093    0.322862
      2          6           0       -4.638650    2.682201    1.417326
      3          6           0       -9.172128    3.352369   -0.215601
      4          6           0       -9.849238   -1.431831   -0.910005
      5          7           0       -5.224620    0.366914    0.848658
      6          6           0       -4.579786   -0.757471    0.742102
      7          6           0       -3.076131   -0.724893    1.183496
      8          6           0       -2.969904    0.752446    1.712698
      9          6           0       -4.278824    1.310317    1.289208
     10          6           0       -2.996923    0.736022    3.318174
     11          6           0       -2.075742   -0.861079    0.041116
     12          6           0       -0.644560   -0.850052    0.555202
     13          6           0        0.380212   -1.131916   -0.537868
     14          8           0        0.176166   -1.497980   -1.629107
     15          8           0        1.692266   -0.886204   -0.169050
     16          7           0       -6.928215    2.724700    0.497132
     17          6           0       -5.759179    3.362732    1.042076
     18          6           0       -6.007397    4.756421    1.082409
     19          6           0       -7.314286    4.972135    0.674442
     20          6           0       -7.855407    3.696277    0.212216
     21          6           0       -5.029952    5.803460    1.484257
     22          6           0       -7.939434    6.310598    0.517820
     23          6           0       -8.894561    6.700374   -0.357099
     24          7           0       -9.168269    0.921717   -0.475809
     25          6           0       -9.801906    2.214691   -0.580460
     26          6           0      -11.212519    1.990330   -0.880064
     27          6           0      -11.374446    0.682056   -1.135866
     28          6           0      -10.054054   -0.055003   -0.901281
     29          6           0      -12.199955    3.196142   -0.969459
     30          6           0      -12.654366   -0.023706   -1.587597
     31          6           0      -12.646138   -0.351206   -3.143962
     32          7           0       -7.514149   -1.176910   -0.330786
     33          6           0       -8.637820   -2.000145   -0.664127
     34          6           0       -8.273584   -3.307124   -0.768935
     35          6           0       -6.953125   -3.383283   -0.312484
     36          6           0       -6.480082   -2.086314   -0.083438
     37          6           0       -9.168300   -4.447289   -1.228562
     38          6           0       -5.809239   -4.416313   -0.153322
     39          8           0       -5.732384   -5.624604   -0.120781
     40          6           0       -4.616559   -3.387258    0.399349
     41          6           0       -4.124686   -3.885378    1.749744
     42          8           0       -4.340781   -3.376599    2.801003
     43          8           0       -3.318908   -4.952102    1.587184
     44          6           0       -2.830445   -5.453907    2.839373
     45          6           0        2.690505   -1.080500   -1.158704
     46          6           0        4.095889   -0.806730   -0.631686
     47          6           0        5.013194    0.126263   -1.152515
     48          6           0        4.713295    0.978056   -2.302269
     49          6           0        6.288771    0.332774   -0.405101
     50          6           0        7.485950   -0.219490   -1.125429
     51          6           0        8.699970   -0.099917   -0.036119
     52          6           0       10.042754   -0.799712   -0.681115
     53          6           0        9.983768   -2.283118   -0.686789
     54          6           0       11.280409   -0.197046    0.104870
     55          6           0       12.611498   -0.555534   -0.470280
     56          6           0       13.824027    0.083028    0.186097
     57          6           0       15.212289   -0.284299   -0.419052
     58          6           0       15.483334   -1.774116   -0.177052
     59          6           0       16.282709    0.589731    0.237933
     60          6           0       17.685160    0.592954   -0.243856
     61          6           0       18.508023    1.576081    0.480691
     62          6           0       20.084058    1.610151    0.144582
     63          6           0       20.321313    2.045603   -1.390898
     64          6           0       20.919937    2.494344    1.039336
     65          1           0       -3.818257    3.353961    1.803833
     66          1           0       -9.915680    4.306230   -0.408242
     67          1           0      -10.732481   -2.179268   -1.221586
     68          1           0       -2.948011   -1.460830    1.872024
     69          1           0       -1.904089    1.159927    1.542410
     70          1           0       -2.046221    0.459088    3.759376
     71          1           0       -3.104741    1.777212    3.584262
     72          1           0       -3.858939    0.147136    3.663416
     73          1           0       -2.181114   -1.904514   -0.582033
     74          1           0       -2.413877   -0.107785   -0.789906
     75          1           0       -0.425434    0.267253    1.076942
     76          1           0       -0.589638   -1.696260    1.261926
     77          1           0       -4.050090    5.630969    1.060105
     78          1           0       -5.277087    6.872415    0.902483
     79          1           0       -4.939713    5.784354    2.721943
     80          1           0       -7.431007    7.016972    1.128022
     81          1           0       -9.556786    5.754507   -0.831654
     82          1           0       -9.167636    7.721212   -0.512837
     83          1           0      -12.058751    4.014613   -0.122781
     84          1           0      -11.812416    3.763320   -1.818922
     85          1           0      -13.251019    2.820217   -1.261028
     86          1           0      -12.709790   -0.974692   -0.871738
     87          1           0      -13.344046    0.733980   -1.235639
     88          1           0      -12.852236    0.638820   -3.696925
     89          1           0      -11.874560   -1.068304   -3.640260
     90          1           0      -13.727630   -0.812640   -3.418958
     91          1           0       -9.943566   -4.671341   -0.593917
     92          1           0       -9.576779   -4.256933   -2.283263
     93          1           0       -8.580697   -5.370121   -1.000316
     94          1           0       -4.014975   -3.566966   -0.309843
     95          1           0       -2.355124   -6.518793    2.462082
     96          1           0       -2.137821   -4.750660    3.065267
     97          1           0       -3.695773   -5.772388    3.518951
     98          1           0        2.718618   -1.974330   -1.550182
     99          1           0        2.533691   -0.612430   -2.142255
    100          1           0        4.391602   -1.223151    0.369346
    101          1           0        5.026828    1.978133   -2.023954
    102          1           0        5.327149    0.531348   -3.152231
    103          1           0        3.716533    0.926488   -2.628497
    104          1           0        6.508450    1.515125   -0.390968
    105          1           0        6.210573   -0.086054    0.533772
    106          1           0        7.239301   -1.224105   -1.571442
    107          1           0        7.904384    0.435300   -1.841000
    108          1           0        8.831275    1.108664    0.070485
    109          1           0        8.362944   -0.554572    0.822973
    110          1           0       10.327167   -0.397853   -1.838328
    111          1           0        9.051125   -2.959935   -1.226424
    112          1           0       10.791479   -2.888805   -1.201898
    113          1           0        9.919942   -2.523167    0.468550
    114          1           0       11.003800    1.032621    0.219054
    115          1           0       11.246742   -0.683291    1.102412
    116          1           0       12.568871   -1.753070   -0.496985
    117          1           0       12.585207   -0.356051   -1.565253
    118          1           0       13.703362    1.145349    0.240192
    119          1           0       13.834329   -0.284332    1.417566
    120          1           0       15.229649   -0.188226   -1.635373
    121          1           0       14.869721   -2.514614   -0.671046
    122          1           0       16.333298   -1.995767   -0.599633
    123          1           0       15.708970   -1.932794    0.948970
    124          1           0       15.948892    1.523123    0.028062
    125          1           0       16.163997    0.392276    1.342244
    126          1           0       18.257904   -0.255660   -0.220526
    127          1           0       17.652748    1.029187   -1.368510
    128          1           0       18.327422    2.631787    0.385966
    129          1           0       18.450085    1.557568    1.762180
    130          1           0       20.289150    0.382815    0.227286
    131          1           0       19.864313    3.030630   -1.433363
    132          1           0       21.382396    2.119433   -1.622055
    133          1           0       19.793686    1.311713   -2.024083
    134          1           0       20.985724    2.119948    2.212708
    135          1           0       21.976552    2.301454    0.696339
    136          1           0       20.743736    3.503386    1.178350
    137          1           0       -6.960387    1.721093    0.356096
    138          1           0       -7.532392   -0.139946   -0.328360
 ---------------------------------------------------------------------

 SCF Done:  E(RB3LYP) =  -2733.04352545     A.U. after   17 cycles

 Excitation energies and oscillator strengths:

 Excited State   1:      Singlet-A      1.9738 eV  628.14 nm  f=0.1684  <S**2>=0.000
     235 -> 238        0.28341
     236 -> 237        0.64642
 This state for optimization and/or second-order correction.
 Total Energy, E(TD-HF/TD-DFT) =  -2732.97098830
 Copying the excited state density for this state as the 1-particle RhoCI density.

 The electronic state is 1-A.
 Alpha  occ. eigenvalues --  -19.17177 -19.16682 -19.14205 -19.12886 -19.12329
 Alpha  occ. eigenvalues --  -14.36738 -14.35793 -14.33243 -14.30132 -10.31606
 Alpha  occ. eigenvalues --  -10.31127 -10.29636 -10.24999 -10.24232 -10.23747
 Alpha  occ. eigenvalues --  -10.23379 -10.23086 -10.22935 -10.22902 -10.22789
 Alpha  occ. eigenvalues --  -10.22459 -10.22268 -10.21783 -10.21434 -10.21379
 Alpha  occ. eigenvalues --  -10.21254 -10.21244 -10.21095 -10.20905 -10.20888
 Alpha  occ. eigenvalues --  -10.20873 -10.20795 -10.20641 -10.20598 -10.20583
 Alpha  occ. eigenvalues --  -10.20576 -10.20455 -10.20371 -10.20338 -10.20019
 Alpha  occ. eigenvalues --  -10.19993 -10.19916 -10.19852 -10.19847 -10.19759
 Alpha  occ. eigenvalues --  -10.19745 -10.19554 -10.19525 -10.19513 -10.19481
 Alpha  occ. eigenvalues --  -10.18922 -10.18906 -10.18784 -10.18768 -10.18758
 Alpha  occ. eigenvalues --  -10.18638 -10.18616 -10.18581 -10.18498 -10.18341
 Alpha  occ. eigenvalues --  -10.18197 -10.18095 -10.17353 -10.16395  -1.10108
 Alpha  occ. eigenvalues --   -1.10105  -1.03929  -1.01302  -1.01153  -0.97012
 Alpha  occ. eigenvalues --   -0.96704  -0.95157  -0.91075  -0.84453  -0.82361
 Alpha  occ. eigenvalues --   -0.82172  -0.81955  -0.81735  -0.81009  -0.80381
 Alpha  occ. eigenvalues --   -0.80294  -0.79285  -0.78811  -0.78325  -0.77529
 Alpha  occ. eigenvalues --   -0.76630  -0.75782  -0.75557  -0.75007  -0.73884
 Alpha  occ. eigenvalues --   -0.73409  -0.73140  -0.72407  -0.72118  -0.70667
 Alpha  occ. eigenvalues --   -0.70175  -0.68978  -0.68238  -0.68061  -0.67553
 Alpha  occ. eigenvalues --   -0.67364  -0.67120  -0.65973  -0.65907  -0.64640
 Alpha  occ. eigenvalues --   -0.64321  -0.62645  -0.61795  -0.61462  -0.60880
 Alpha  occ. eigenvalues --   -0.60620  -0.58867  -0.58489  -0.58124  -0.56901
 Alpha  occ. eigenvalues --   -0.56744  -0.56545  -0.55425  -0.54923  -0.54782
 Alpha  occ. eigenvalues --   -0.54518  -0.54071  -0.53746  -0.53454  -0.53128
 Alpha  occ. eigenvalues --   -0.52651  -0.52031  -0.51441  -0.50861  -0.50406
 Alpha  occ. eigenvalues --   -0.50096  -0.49628  -0.49169  -0.48961  -0.48693
 Alpha  occ. eigenvalues --   -0.48102  -0.47913  -0.47486  -0.47293  -0.46928
 Alpha  occ. eigenvalues --   -0.46617  -0.46367  -0.45925  -0.45888  -0.45329
 Alpha  occ. eigenvalues --   -0.45286  -0.45082  -0.45024  -0.44814  -0.44496
 Alpha  occ. eigenvalues --   -0.44401  -0.44060  -0.43858  -0.43486  -0.43281
 Alpha  occ. eigenvalues --   -0.43194  -0.43066  -0.42905  -0.42495  -0.42449
 Alpha  occ. eigenvalues --   -0.42373  -0.41978  -0.41867  -0.41666  -0.41364
 Alpha  occ. eigenvalues --   -0.41251  -0.40808  -0.40736  -0.40571  -0.40386
 Alpha  occ. eigenvalues --   -0.39922  -0.39870  -0.39549  -0.39331  -0.39145
 Alpha  occ. eigenvalues --   -0.39089  -0.39073  -0.38942  -0.38899  -0.38659
 Alpha  occ. eigenvalues --   -0.38526  -0.38294  -0.37963  -0.37940  -0.37894
 Alpha  occ. eigenvalues --   -0.37662  -0.37575  -0.37299  -0.37120  -0.37109
 Alpha  occ. eigenvalues --   -0.36853  -0.36596  -0.36422  -0.36062  -0.35910
 Alpha  occ. eigenvalues --   -0.35604  -0.35424  -0.35235  -0.35031  -0.34905
 Alpha  occ. eigenvalues --   -0.34564  -0.34496  -0.34361  -0.34134  -0.33530
 Alpha  occ. eigenvalues --   -0.33090  -0.32987  -0.32868  -0.32384  -0.32340
 Alpha  occ. eigenvalues --   -0.32018  -0.31756  -0.31626  -0.31317  -0.31145
 Alpha  occ. eigenvalues --   -0.30843  -0.30727  -0.30643  -0.30120  -0.29850
 Alpha  occ. eigenvalues --   -0.29693  -0.28908  -0.28770  -0.28669  -0.28212
 Alpha  occ. eigenvalues --   -0.28195  -0.27939  -0.26741  -0.26320  -0.25385
 Alpha  occ. eigenvalues --   -0.25167  -0.23874  -0.23023  -0.22865  -0.19920
 Alpha  occ. eigenvalues --   -0.18812
 Alpha virt. eigenvalues --   -0.10577  -0.07669  -0.04547  -0.02167  -0.00353
 Alpha virt. eigenvalues --   -0.00040   0.00409   0.00900   0.02250   0.03163
 Alpha virt. eigenvalues --    0.03272   0.03505   0.03886   0.04207   0.04307

 Mulliken charges:
               1
     1  C    0.012070
     2  C   -0.089635
     3  C   -0.075358
     4  C   -0.165210
     5  N   -0.145729
     6  C   -0.111585
     7  C    0.078203
     8  C   -0.111923
     9  C    0.047704
    10  C    0.071035
    11  C   -0.057471
    12  C    0.023112
    13  C    0.170791
    14  O   -0.185733
    15  O   -0.330214
    16  N   -0.092022
    17  C    0.129000
    18  C   -0.105124
    19  C    0.012203
    20  C    0.087473
    21  C    0.012458
    22  C   -0.014037
    23  C   -0.048227
    24  N   -0.327403
    25  C    0.055589
    26  C   -0.094843
    27  C   -0.139817
    28  C    0.111614
    29  C    0.066933
    30  C    0.053318
    31  C   -0.045483
    32  N   -0.121811
    33  C    0.150788
    34  C   -0.169959
    35  C   -0.060571
    36  C    0.119671
    37  C    0.140799
    38  C    0.091188
    39  O   -0.147639
    40  C    0.062493
    41  C    0.194918
    42  O   -0.210984
    43  O   -0.305360
    44  C    0.176520
    45  C    0.377905
    46  C   -0.120067
    47  C   -0.203139
    48  C    0.145435
    49  C    0.103176
    50  C    0.000255
    51  C    0.015712
    52  C   -0.099395
    53  C   -0.052312
    54  C   -0.008264
    55  C    0.022838
    56  C    0.036690
    57  C   -0.128119
    58  C    0.122010
    59  C    0.082354
    60  C    0.137880
    61  C   -0.064576
    62  C   -0.156330
    63  C    0.032489
    64  C    0.027694
    65  H   -0.018436
    66  H   -0.004856
    67  H    0.021767
    68  H   -0.037087
    69  H    0.018430
    70  H    0.008171
    71  H   -0.007296
    72  H    0.040394
    73  H    0.040955
    74  H    0.030122
    75  H    0.068222
    76  H    0.040147
    77  H    0.023669
    78  H    0.048404
    79  H    0.063322
    80  H   -0.016480
    81  H    0.051047
    82  H    0.022666
    83  H    0.049472
    84  H    0.018725
    85  H    0.029974
    86  H    0.027364
    87  H    0.000303
    88  H    0.024595
    89  H    0.056552
    90  H    0.014862
    91  H   -0.002076
    92  H    0.048050
    93  H    0.027846
    94  H   -0.043793
    95  H    0.045712
    96  H    0.011581
    97  H    0.060128
    98  H   -0.047416
    99  H   -0.023124
   100  H   -0.008753
   101  H    0.013520
   102  H    0.026219
   103  H   -0.006941
   104  H    0.004962
   105  H   -0.026754
   106  H    0.017889
   107  H   -0.007858
   108  H    0.024006
   109  H   -0.013671
   110  H    0.006481
   111  H    0.028927
   112  H    0.035491
   113  H    0.020637
   114  H    0.015916
   115  H   -0.007821
   116  H    0.010014
   117  H   -0.017130
   118  H   -0.014483
   119  H    0.004174
   120  H   -0.000936
   121  H    0.001001
   122  H   -0.061249
   123  H    0.002241
   124  H   -0.038924
   125  H   -0.001073
   126  H   -0.029138
   127  H    0.010556
   128  H   -0.022362
   129  H   -0.001526
   130  H    0.008360
   131  H    0.002707
   132  H    0.013592
   133  H    0.020035
   134  H    0.011667
   135  H    0.016380
   136  H    0.004040
   137  H    0.133864
   138  H    0.150045
 Sum of Mulliken charges =  -0.00000

 Dipole moment (field-independent basis, Debye):
    X=              2.1018    Y=              3.6872    Z=             -0.1960  Tot=              4.2487
 Quadrupole moment (field-independent basis, Debye-Ang):
   XX=           -357.6755   YY=           -380.2559   ZZ=           -396.8675
   XY=            -11.2508   XZ=              6.1881   YZ=             -1.5117

 Normal termination of Gaussian 16 at Sun Sep  1 03:13:31 2019.
