 Gaussian 16, Revision A.03,
 Gaussian 16:  ES64L-G16RevA.03 25-Dec-2016

 --------------------------
 # td=(NStates=1) B3LYP/SVP
 --------------------------

 --
 TD
 --
 Symbolic Z-matrix:
 Charge =  0 Multiplicity = 1

                         Standard orientation:
 ---------------------------------------------------------------------
 Center     Atomic      Atomic             Coordinates (Angstroms)
 Number     Number       Type             X           Y           Z
 ---------------------------------------------------------------------
      1          6           0       -5.055611   -1.994796    0.386526
      2          6           0       -4.646036    2.684406    1.504455
      3          6           0       -9.171114    3.379563   -0.152912
      4          6           0       -9.847563   -1.470676   -0.891509
      5          7           0       -5.153035    0.409144    0.743019
      6          6           0       -4.502454   -0.744796    0.752603
      7          6           0       -3.081990   -0.667242    1.202692
      8          6           0       -3.074827    0.759277    1.832788
      9          6           0       -4.357955    1.295175    1.318391
     10          6           0       -3.002921    0.772455    3.393964
     11          6           0       -2.134598   -0.809640   -0.008294
     12          6           0       -0.707319   -0.879141    0.368360
     13          6           0        0.339705   -0.938916   -0.741473
     14          8           0        0.068411   -1.386764   -1.848522
     15          8           0        1.585992   -0.869210   -0.328456
     16          7           0       -6.905524    2.771872    0.457037
     17          6           0       -5.829498    3.415787    1.012762
     18          6           0       -6.028008    4.798794    1.045004
     19          6           0       -7.277394    4.979048    0.543683
     20          6           0       -7.926166    3.689341    0.321388
     21          6           0       -5.166937    5.863399    1.645298
     22          6           0       -7.914527    6.324521    0.431062
     23          6           0       -8.870104    6.736829   -0.501799
     24          7           0       -9.167667    0.871848   -0.567472
     25          6           0       -9.736106    2.158594   -0.570728
     26          6           0      -11.179010    2.000119   -0.929597
     27          6           0      -11.396035    0.559985   -1.111610
     28          6           0      -10.043380   -0.050811   -0.969093
     29          6           0      -12.297687    3.057610   -1.004023
     30          6           0      -12.514331   -0.088911   -1.636822
     31          6           0      -12.645713   -0.354909   -3.126746
     32          7           0       -7.526251   -1.170287   -0.284322
     33          6           0       -8.569964   -2.012994   -0.678140
     34          6           0       -8.243347   -3.374824   -0.551151
     35          6           0       -6.865136   -3.386301   -0.263592
     36          6           0       -6.433268   -2.079632   -0.010173
     37          6           0       -8.989242   -4.636315   -0.891780
     38          6           0       -5.791324   -4.366280    0.000635
     39          8           0       -5.674979   -5.577389    0.073946
     40          6           0       -4.511586   -3.403178    0.437609
     41          6           0       -3.923134   -3.888386    1.742061
     42          8           0       -4.140783   -3.424022    2.896703
     43          8           0       -3.111882   -4.839657    1.512545
     44          6           0       -2.598626   -5.463525    2.626685
     45          6           0        2.650245   -0.933153   -1.249623
     46          6           0        3.922567   -0.769985   -0.644248
     47          6           0        4.872631    0.177337   -1.014969
     48          6           0        4.934245    1.011884   -2.333494
     49          6           0        6.180996    0.194797   -0.278476
     50          6           0        7.438150   -0.337403   -0.990825
     51          6           0        8.660012   -0.337681   -0.123503
     52          6           0        9.948141   -0.754094   -0.759599
     53          6           0       10.051816   -2.265416   -1.174536
     54          6           0       11.257985   -0.320747   -0.036212
     55          6           0       12.635737   -0.675776   -0.590076
     56          6           0       13.729992   -0.026507    0.181897
     57          6           0       15.192150   -0.335581   -0.399813
     58          6           0       15.545809   -1.757198   -0.506771
     59          6           0       16.213681    0.470373    0.515834
     60          6           0       17.602531    0.673465   -0.119352
     61          6           0       18.567018    1.590270    0.700876
     62          6           0       20.009584    1.680426    0.117708
     63          6           0       20.016413    2.359516   -1.212563
     64          6           0       20.839294    2.499447    1.202269
     65          1           0       -3.690277    3.416864    1.764871
     66          1           0       -9.849277    4.227116   -0.372870
     67          1           0      -10.762045   -2.017823   -1.141625
     68          1           0       -2.848035   -1.460670    1.890157
     69          1           0       -2.339863    1.489256    1.243100
     70          1           0       -2.106014    0.404909    3.758266
     71          1           0       -3.392452    1.600689    3.731255
     72          1           0       -3.756083   -0.052120    3.700537
     73          1           0       -2.529635   -1.652352   -0.612346
     74          1           0       -2.418793    0.019039   -0.585245
     75          1           0       -0.580670    0.127794    1.101006
     76          1           0       -0.334001   -1.636932    1.129585
     77          1           0       -4.320593    6.231115    0.809609
     78          1           0       -5.873695    6.785264    1.925911
     79          1           0       -4.385561    5.264878    2.509487
     80          1           0       -7.605874    7.159772    1.018585
     81          1           0       -9.443218    6.083609   -1.150056
     82          1           0       -9.269304    7.581820   -0.403733
     83          1           0      -12.151516    3.817073   -0.064163
     84          1           0      -12.472767    3.638424   -2.046444
     85          1           0      -13.470665    2.409206   -0.944220
     86          1           0      -12.466418   -1.123524   -1.127809
     87          1           0      -13.620665    0.362974   -1.437777
     88          1           0      -12.744717    0.706645   -3.512481
     89          1           0      -11.735092   -0.867780   -3.468037
     90          1           0      -13.543628   -0.876178   -3.385192
     91          1           0      -10.017264   -4.761600   -0.291044
     92          1           0       -9.264712   -4.557894   -2.036733
     93          1           0       -8.318478   -5.652651   -0.925685
     94          1           0       -3.947735   -3.620237   -0.412978
     95          1           0       -1.949872   -6.428619    2.453237
     96          1           0       -2.067035   -4.908108    3.327544
     97          1           0       -3.462199   -5.941237    3.351588
     98          1           0        2.688654   -2.005259   -1.565763
     99          1           0        2.520554   -0.267140   -2.272266
    100          1           0        4.250046   -1.268875    0.234204
    101          1           0        5.087975    2.170411   -2.094668
    102          1           0        5.693309    0.666358   -2.888882
    103          1           0        4.090780    0.946485   -2.828163
    104          1           0        6.393853    1.291188    0.081310
    105          1           0        6.095273   -0.393279    0.604487
    106          1           0        7.166192   -1.373619   -0.907299
    107          1           0        7.672696    0.308492   -1.795112
    108          1           0        8.840032    0.730691    0.158568
    109          1           0        8.648276   -0.863486    1.053696
    110          1           0       10.002321    0.016203   -1.726313
    111          1           0        9.131813   -2.514853   -1.782019
    112          1           0       10.974567   -2.453603   -1.762977
    113          1           0       10.281027   -2.884629   -0.314173
    114          1           0       11.210287    0.695346    0.355801
    115          1           0       11.407855   -1.031576    0.854021
    116          1           0       12.707886   -1.776890   -0.658511
    117          1           0       12.832885   -0.230786   -1.594625
    118          1           0       13.633228    1.161125    0.103210
    119          1           0       13.749399   -0.331232    1.291736
    120          1           0       15.079886    0.019658   -1.546369
    121          1           0       14.947902   -1.980413   -1.204858
    122          1           0       16.508779   -1.869151   -1.053823
    123          1           0       15.510415   -2.409476    0.556258
    124          1           0       15.940045    1.563134    0.779666
    125          1           0       16.280793    0.046170    1.458032
    126          1           0       18.203626   -0.334479   -0.019736
    127          1           0       17.570213    1.104705   -1.209390
    128          1           0       18.140824    2.591736    0.687606
    129          1           0       18.365622    1.361303    1.803776
    130          1           0       20.303788    0.623251    0.301336
    131          1           0       19.454459    3.342801   -1.321715
    132          1           0       21.037685    2.513552   -1.706392
    133          1           0       19.506999    1.706011   -1.970295
    134          1           0       20.985023    2.067119    2.223800
    135          1           0       21.847925    2.711161    0.809615
    136          1           0       20.365623    3.500035    1.346935
    137          1           0       -6.842389    1.846446    0.180774
    138          1           0       -7.749450   -0.210675   -0.211636
 ---------------------------------------------------------------------

 SCF Done:  E(RB3LYP) =  -2733.03307780     A.U. after   17 cycles

 Excitation energies and oscillator strengths:

 Excited State   1:      Singlet-A      1.9983 eV  620.46 nm  f=0.1338  <S**2>=0.000
     235 -> 238       -0.32275
     236 -> 237        0.62218
 This state for optimization and/or second-order correction.
 Total Energy, E(TD-HF/TD-DFT) =  -2732.95964297
 Copying the excited state density for this state as the 1-particle RhoCI density.

 The electronic state is 1-A.
 Alpha  occ. eigenvalues --  -19.20180 -19.18170 -19.13699 -19.11576 -19.11536
 Alpha  occ. eigenvalues --  -14.36893 -14.36280 -14.32626 -14.30154 -10.31971
 Alpha  occ. eigenvalues --  -10.31554 -10.29287 -10.25813 -10.25544 -10.24407
 Alpha  occ. eigenvalues --  -10.24390 -10.24043 -10.24028 -10.23507 -10.23162
 Alpha  occ. eigenvalues --  -10.23066 -10.22983 -10.22425 -10.22335 -10.22097
 Alpha  occ. eigenvalues --  -10.21831 -10.21573 -10.21461 -10.21109 -10.21089
 Alpha  occ. eigenvalues --  -10.21029 -10.20906 -10.20805 -10.20783 -10.20624
 Alpha  occ. eigenvalues --  -10.20522 -10.20485 -10.20290 -10.20019 -10.19824
 Alpha  occ. eigenvalues --  -10.19779 -10.19720 -10.19671 -10.19614 -10.19332
 Alpha  occ. eigenvalues --  -10.19310 -10.19178 -10.19133 -10.18996 -10.18946
 Alpha  occ. eigenvalues --  -10.18880 -10.18832 -10.18745 -10.18584 -10.18542
 Alpha  occ. eigenvalues --  -10.18509 -10.18477 -10.18368 -10.18300 -10.18005
 Alpha  occ. eigenvalues --  -10.17967 -10.17855 -10.17832 -10.17421  -1.13931
 Alpha  occ. eigenvalues --   -1.10893  -1.03423  -0.99861  -0.99215  -0.98489
 Alpha  occ. eigenvalues --   -0.97177  -0.96541  -0.92280  -0.84952  -0.83222
 Alpha  occ. eigenvalues --   -0.82850  -0.82021  -0.81751  -0.81002  -0.80786
 Alpha  occ. eigenvalues --   -0.80424  -0.79847  -0.79682  -0.78602  -0.78262
 Alpha  occ. eigenvalues --   -0.77750  -0.76527  -0.76217  -0.75451  -0.74270
 Alpha  occ. eigenvalues --   -0.73755  -0.73583  -0.72782  -0.72244  -0.70527
 Alpha  occ. eigenvalues --   -0.70077  -0.69580  -0.69091  -0.68449  -0.67378
 Alpha  occ. eigenvalues --   -0.67151  -0.66778  -0.66538  -0.66344  -0.65728
 Alpha  occ. eigenvalues --   -0.64297  -0.64047  -0.63008  -0.61765  -0.61017
 Alpha  occ. eigenvalues --   -0.60596  -0.59118  -0.58804  -0.58255  -0.58001
 Alpha  occ. eigenvalues --   -0.57076  -0.56603  -0.56043  -0.55961  -0.55161
 Alpha  occ. eigenvalues --   -0.54972  -0.54525  -0.54003  -0.53451  -0.52914
 Alpha  occ. eigenvalues --   -0.52755  -0.52151  -0.51812  -0.51356  -0.50886
 Alpha  occ. eigenvalues --   -0.50746  -0.50099  -0.49857  -0.49370  -0.48834
 Alpha  occ. eigenvalues --   -0.48647  -0.48322  -0.48038  -0.47844  -0.47458
 Alpha  occ. eigenvalues --   -0.46995  -0.46731  -0.46402  -0.46131  -0.45966
 Alpha  occ. eigenvalues --   -0.45665  -0.45365  -0.44972  -0.44871  -0.44585
 Alpha  occ. eigenvalues --   -0.44252  -0.44147  -0.44134  -0.43877  -0.43522
 Alpha  occ. eigenvalues --   -0.43427  -0.43314  -0.43151  -0.43099  -0.42757
 Alpha  occ. eigenvalues --   -0.42376  -0.42229  -0.41932  -0.41810  -0.41585
 Alpha  occ. eigenvalues --   -0.41352  -0.41309  -0.40865  -0.40762  -0.40401
 Alpha  occ. eigenvalues --   -0.40273  -0.40129  -0.39783  -0.39673  -0.39316
 Alpha  occ. eigenvalues --   -0.39086  -0.38979  -0.38820  -0.38764  -0.38566
 Alpha  occ. eigenvalues --   -0.38163  -0.38057  -0.38034  -0.37643  -0.37606
 Alpha  occ. eigenvalues --   -0.37378  -0.37357  -0.37110  -0.36782  -0.36578
 Alpha  occ. eigenvalues --   -0.36335  -0.36271  -0.36223  -0.35989  -0.35766
 Alpha  occ. eigenvalues --   -0.35533  -0.35281  -0.35215  -0.34928  -0.34771
 Alpha  occ. eigenvalues --   -0.34685  -0.34608  -0.34419  -0.34257  -0.33566
 Alpha  occ. eigenvalues --   -0.33392  -0.33165  -0.32930  -0.32729  -0.32322
 Alpha  occ. eigenvalues --   -0.32017  -0.31846  -0.31660  -0.31542  -0.31251
 Alpha  occ. eigenvalues --   -0.30904  -0.30583  -0.30466  -0.30366  -0.29971
 Alpha  occ. eigenvalues --   -0.29749  -0.28678  -0.28458  -0.28293  -0.28127
 Alpha  occ. eigenvalues --   -0.27419  -0.27187  -0.26391  -0.26314  -0.25856
 Alpha  occ. eigenvalues --   -0.25327  -0.24523  -0.24407  -0.21483  -0.20027
 Alpha  occ. eigenvalues --   -0.19390
 Alpha virt. eigenvalues --   -0.10813  -0.08506  -0.05010  -0.02425  -0.01053
 Alpha virt. eigenvalues --   -0.00884  -0.00667  -0.00220   0.02030   0.02320
 Alpha virt. eigenvalues --    0.02885   0.03918   0.04182   0.04547   0.04731

 Mulliken charges:
               1
     1  C   -0.027207
     2  C   -0.107117
     3  C   -0.091782
     4  C   -0.047665
     5  N   -0.101425
     6  C   -0.083201
     7  C   -0.051552
     8  C   -0.084774
     9  C   -0.043092
    10  C    0.193685
    11  C    0.133572
    12  C   -0.027932
    13  C    0.193952
    14  O   -0.256329
    15  O   -0.268518
    16  N   -0.028941
    17  C    0.049336
    18  C   -0.074100
    19  C    0.062156
    20  C    0.132945
    21  C   -0.047153
    22  C   -0.081164
    23  C    0.043358
    24  N   -0.268275
    25  C    0.076738
    26  C   -0.093779
    27  C   -0.037049
    28  C    0.028160
    29  C   -0.081155
    30  C   -0.069456
    31  C    0.048518
    32  N   -0.082329
    33  C    0.108458
    34  C   -0.088495
    35  C   -0.030867
    36  C    0.146919
    37  C   -0.035767
    38  C    0.070108
    39  O   -0.161374
    40  C    0.000675
    41  C    0.204759
    42  O   -0.290902
    43  O   -0.180590
    44  C    0.141626
    45  C    0.279755
    46  C   -0.071551
    47  C   -0.175750
    48  C    0.163822
    49  C    0.018504
    50  C    0.150958
    51  C   -0.059624
    52  C   -0.079354
    53  C    0.034898
    54  C    0.013654
    55  C    0.050198
    56  C   -0.044547
    57  C   -0.140041
    58  C    0.138891
    59  C    0.077174
    60  C   -0.019761
    61  C   -0.033642
    62  C   -0.049606
    63  C    0.011093
    64  C    0.017519
    65  H    0.026459
    66  H   -0.018666
    67  H   -0.010080
    68  H   -0.006770
    69  H    0.020283
    70  H    0.002588
    71  H   -0.035122
    72  H    0.026608
    73  H    0.009031
    74  H   -0.021770
    75  H    0.032355
    76  H    0.045945
    77  H    0.056983
    78  H    0.064514
    79  H    0.061846
    80  H   -0.012379
    81  H    0.023061
    82  H   -0.040093
    83  H    0.057147
    84  H    0.055888
    85  H    0.039054
    86  H    0.005805
    87  H    0.013670
    88  H    0.010880
    89  H    0.012164
    90  H    0.009947
    91  H    0.056446
    92  H    0.046536
    93  H    0.075313
    94  H    0.032114
    95  H    0.043039
    96  H    0.012674
    97  H    0.035769
    98  H    0.013862
    99  H    0.053581
   100  H   -0.026664
   101  H    0.026792
   102  H    0.001261
   103  H   -0.053347
   104  H    0.001945
   105  H   -0.023328
   106  H   -0.002889
   107  H   -0.002153
   108  H   -0.018751
   109  H    0.005454
   110  H   -0.008765
   111  H    0.025549
   112  H    0.014560
   113  H    0.002714
   114  H   -0.009693
   115  H   -0.013949
   116  H    0.010641
   117  H   -0.019030
   118  H    0.017631
   119  H   -0.001295
   120  H   -0.001142
   121  H   -0.065975
   122  H    0.000658
   123  H    0.031919
   124  H   -0.011571
   125  H   -0.029842
   126  H    0.001720
   127  H    0.018808
   128  H   -0.029198
   129  H   -0.005294
   130  H    0.006324
   131  H    0.023175
   132  H    0.019023
   133  H    0.013034
   134  H    0.012203
   135  H   -0.001621
   136  H   -0.000786
   137  H    0.110857
   138  H    0.106781
 Sum of Mulliken charges =  -0.00000

 Dipole moment (field-independent basis, Debye):
    X=              2.6655    Y=              3.5435    Z=             -0.1964  Tot=              4.4384
 Quadrupole moment (field-independent basis, Debye-Ang):
   XX=           -366.8188   YY=           -378.4328   ZZ=           -400.4295
   XY=            -21.7962   XZ=              8.5034   YZ=             -0.9973

 Normal termination of Gaussian 16 at Fri Aug 16 12:03:16 2019.
