 Gaussian 16, Revision A.03,
 Gaussian 16:  ES64L-G16RevA.03 25-Dec-2016

 --------------------------
 # td=(NStates=1) B3LYP/SVP
 --------------------------

 --
 TD
 --
 Symbolic Z-matrix:
 Charge =  0 Multiplicity = 1

                         Standard orientation:
 ---------------------------------------------------------------------
 Center     Atomic      Atomic             Coordinates (Angstroms)
 Number     Number       Type             X           Y           Z
 ---------------------------------------------------------------------
      1          6           0       -5.218809   -1.961933    0.482111
      2          6           0       -4.714537    2.662922    1.641498
      3          6           0       -9.155599    3.491848   -0.266754
      4          6           0       -9.890018   -1.292474   -1.001318
      5          7           0       -5.078844    0.444651    0.757059
      6          6           0       -4.569370   -0.864200    0.817842
      7          6           0       -3.127880   -0.806457    1.279821
      8          6           0       -3.061146    0.733383    1.903938
      9          6           0       -4.425232    1.267723    1.406298
     10          6           0       -2.821457    0.741634    3.421342
     11          6           0       -2.057215   -1.021308    0.189474
     12          6           0       -0.561476   -0.981730    0.594517
     13          6           0        0.428671   -1.277412   -0.581944
     14          8           0        0.088106   -1.544922   -1.675308
     15          8           0        1.624498   -1.062677   -0.146937
     16          7           0       -6.859284    2.851151    0.510581
     17          6           0       -5.760990    3.392451    1.071693
     18          6           0       -5.975592    4.829116    1.001497
     19          6           0       -7.349372    5.034757    0.577272
     20          6           0       -7.859124    3.701622    0.230346
     21          6           0       -5.072996    5.759212    1.629419
     22          6           0       -7.994735    6.358214    0.396509
     23          6           0       -8.854593    6.755519   -0.454733
     24          7           0       -9.075809    1.113698   -0.571872
     25          6           0       -9.737986    2.265605   -0.565671
     26          6           0      -11.093290    2.092681   -0.964861
     27          6           0      -11.330671    0.787475   -1.170684
     28          6           0       -9.947869    0.164477   -1.003280
     29          6           0      -12.099634    3.183960   -1.099218
     30          6           0      -12.570131    0.094063   -1.619243
     31          6           0      -12.533580   -0.121509   -3.254669
     32          7           0       -7.577755   -1.225264   -0.232038
     33          6           0       -8.690769   -1.864702   -0.718148
     34          6           0       -8.369584   -3.315737   -0.685015
     35          6           0       -6.999824   -3.369163   -0.308193
     36          6           0       -6.526445   -2.022133    0.074116
     37          6           0       -9.178526   -4.456810   -1.037341
     38          6           0       -5.852453   -4.326133   -0.031454
     39          8           0       -5.856774   -5.502904   -0.095712
     40          6           0       -4.603777   -3.432587    0.408194
     41          6           0       -3.968915   -3.952077    1.691705
     42          8           0       -4.290931   -3.621886    2.752852
     43          8           0       -3.082105   -4.871721    1.391153
     44          6           0       -2.515697   -5.556510    2.488770
     45          6           0        2.587477   -1.251297   -1.123236
     46          6           0        3.908220   -0.832837   -0.400399
     47          6           0        4.902041   -0.216151   -1.012364
     48          6           0        4.754214    0.434726   -2.401189
     49          6           0        6.165719    0.141498   -0.194558
     50          6           0        7.363188   -0.519215   -0.885539
     51          6           0        8.704499   -0.440150   -0.009276
     52          6           0       10.018875   -0.839191   -0.747176
     53          6           0       10.053615   -2.469037   -1.091020
     54          6           0       11.174762   -0.301330    0.059234
     55          6           0       12.570749   -0.493860   -0.648802
     56          6           0       13.804665    0.001499    0.267659
     57          6           0       15.126591   -0.176434   -0.298202
     58          6           0       15.574920   -1.558680   -0.430684
     59          6           0       16.184426    0.782720    0.415818
     60          6           0       17.615679    0.749254   -0.186561
     61          6           0       18.563901    1.704273    0.606048
     62          6           0       20.003289    1.814206    0.032348
     63          6           0       20.039320    2.398252   -1.350807
     64          6           0       20.879971    2.713655    0.931557
     65          1           0       -3.770388    3.077566    1.963142
     66          1           0       -9.750181    4.529389   -0.292256
     67          1           0      -10.748742   -1.803099   -1.300683
     68          1           0       -2.874907   -1.548724    2.198975
     69          1           0       -2.282798    1.283985    1.349071
     70          1           0       -1.761324    0.168472    3.609277
     71          1           0       -2.853612    1.736025    3.707644
     72          1           0       -3.536726    0.234901    4.031527
     73          1           0       -2.053412   -2.069347   -0.151179
     74          1           0       -2.105254   -0.120984   -0.597247
     75          1           0       -0.320101    0.072799    0.988270
     76          1           0       -0.301396   -1.720574    1.426636
     77          1           0       -4.190411    5.998732    0.924124
     78          1           0       -5.545913    6.708043    1.651160
     79          1           0       -4.457883    5.285349    2.419945
     80          1           0       -7.490916    6.903841    1.079618
     81          1           0       -9.425415    6.152550   -1.196473
     82          1           0       -9.196458    7.675090   -0.485712
     83          1           0      -12.303796    3.603812   -0.060365
     84          1           0      -11.742488    4.054214   -1.871507
     85          1           0      -13.006214    2.829910   -1.581264
     86          1           0      -12.691315   -0.930555   -1.186842
     87          1           0      -13.451006    0.681597   -1.282438
     88          1           0      -12.612076    0.879420   -3.868356
     89          1           0      -11.605185   -0.528955   -3.650345
     90          1           0      -13.310328   -0.849603   -3.589431
     91          1           0      -10.027938   -4.454777   -0.407013
     92          1           0       -9.708108   -4.367091   -2.001515
     93          1           0       -8.611142   -5.369056   -0.851961
     94          1           0       -4.013995   -3.648932   -0.492707
     95          1           0       -2.148465   -6.678033    2.001291
     96          1           0       -1.697799   -4.988675    2.875150
     97          1           0       -3.389517   -5.730966    3.506037
     98          1           0        2.787139   -2.350169   -1.217852
     99          1           0        2.538561   -0.698220   -2.230262
    100          1           0        4.040357   -0.914119    0.744647
    101          1           0        5.265203    1.448823   -2.395925
    102          1           0        5.219905   -0.268935   -3.197344
    103          1           0        3.671605    0.438144   -2.555203
    104          1           0        6.414277    1.256726   -0.339968
    105          1           0        6.209274   -0.042352    0.859820
    106          1           0        7.176229   -1.594512   -1.001034
    107          1           0        7.505838   -0.176127   -1.968923
    108          1           0        8.822368    0.565198    0.654361
    109          1           0        8.635813   -1.349987    0.898434
    110          1           0       10.044578   -0.368280   -1.791299
    111          1           0        9.037297   -2.729798   -1.627349
    112          1           0       11.030102   -2.547465   -1.542334
    113          1           0       10.087985   -2.903569   -0.155576
    114          1           0       10.939499    0.765529    0.183324
    115          1           0       11.122459   -0.761876    1.144665
    116          1           0       12.674226   -1.595125   -0.954583
    117          1           0       12.726893   -0.054831   -1.658098
    118          1           0       13.557185    0.920190    0.550370
    119          1           0       13.685758   -0.593694    1.359091
    120          1           0       15.330367    0.346491   -1.425830
    121          1           0       14.793385   -1.996101   -1.026019
    122          1           0       16.637467   -1.667440   -1.000912
    123          1           0       15.631519   -2.049177    0.547689
    124          1           0       15.917945    1.798576    0.398755
    125          1           0       16.366485    0.307417    1.399743
    126          1           0       18.137716   -0.142394   -0.257119
    127          1           0       17.632458    1.083238   -1.222374
    128          1           0       17.991039    2.717652    0.462616
    129          1           0       18.281735    1.399096    1.596221
    130          1           0       20.720920    0.753149   -0.126140
    131          1           0       19.855910    3.610871   -1.230622
    132          1           0       21.021513    2.537171   -1.719269
    133          1           0       19.291287    1.868299   -2.108953
    134          1           0       20.978825    2.177870    1.892378
    135          1           0       21.880132    3.029917    0.339341
    136          1           0       20.233828    3.732278    1.113435
    137          1           0       -6.739530    1.785671    0.395685
    138          1           0       -7.503853   -0.275379   -0.166786
 ---------------------------------------------------------------------

 SCF Done:  E(RB3LYP) =  -2733.08272970     A.U. after   16 cycles

 Excitation energies and oscillator strengths:

 Excited State   1:      Singlet-A      2.0867 eV  594.17 nm  f=0.2356  <S**2>=0.000
     235 -> 237       -0.14778
     235 -> 238        0.22825
     236 -> 237        0.63679
     236 -> 238        0.14348
 This state for optimization and/or second-order correction.
 Total Energy, E(TD-HF/TD-DFT) =  -2733.00604585
 Copying the excited state density for this state as the 1-particle RhoCI density.

 The electronic state is 1-A.
 Alpha  occ. eigenvalues --  -19.19601 -19.18774 -19.12757 -19.12644 -19.12602
 Alpha  occ. eigenvalues --  -14.37071 -14.36498 -14.31851 -14.29476 -10.31473
 Alpha  occ. eigenvalues --  -10.31429 -10.28150 -10.27557 -10.26669 -10.23500
 Alpha  occ. eigenvalues --  -10.23393 -10.23378 -10.23326 -10.22598 -10.22445
 Alpha  occ. eigenvalues --  -10.21513 -10.21452 -10.21329 -10.21201 -10.21065
 Alpha  occ. eigenvalues --  -10.20993 -10.20767 -10.20439 -10.20434 -10.20393
 Alpha  occ. eigenvalues --  -10.20382 -10.20342 -10.20329 -10.20259 -10.20172
 Alpha  occ. eigenvalues --  -10.20132 -10.20090 -10.19817 -10.19749 -10.19644
 Alpha  occ. eigenvalues --  -10.19593 -10.19571 -10.19550 -10.19537 -10.19484
 Alpha  occ. eigenvalues --  -10.19420 -10.19400 -10.19368 -10.19360 -10.19096
 Alpha  occ. eigenvalues --  -10.19087 -10.19071 -10.18915 -10.18858 -10.18824
 Alpha  occ. eigenvalues --  -10.18738 -10.18669 -10.18473 -10.18090 -10.18088
 Alpha  occ. eigenvalues --  -10.17997 -10.17582 -10.16969 -10.16857  -1.13998
 Alpha  occ. eigenvalues --   -1.12496  -1.04963  -1.03679  -1.03650  -0.98807
 Alpha  occ. eigenvalues --   -0.98485  -0.95830  -0.93807  -0.84673  -0.82276
 Alpha  occ. eigenvalues --   -0.82130  -0.81864  -0.81100  -0.80382  -0.80273
 Alpha  occ. eigenvalues --   -0.80060  -0.79528  -0.78967  -0.78862  -0.77452
 Alpha  occ. eigenvalues --   -0.77344  -0.76330  -0.75605  -0.75039  -0.74362
 Alpha  occ. eigenvalues --   -0.73927  -0.73038  -0.72686  -0.71541  -0.70827
 Alpha  occ. eigenvalues --   -0.69994  -0.69127  -0.68230  -0.67540  -0.67390
 Alpha  occ. eigenvalues --   -0.66759  -0.66557  -0.66046  -0.65922  -0.65203
 Alpha  occ. eigenvalues --   -0.64243  -0.63481  -0.62239  -0.62103  -0.61499
 Alpha  occ. eigenvalues --   -0.60735  -0.58765  -0.58609  -0.58043  -0.57604
 Alpha  occ. eigenvalues --   -0.56774  -0.56575  -0.56061  -0.55735  -0.55023
 Alpha  occ. eigenvalues --   -0.54996  -0.54196  -0.53936  -0.53077  -0.52800
 Alpha  occ. eigenvalues --   -0.52498  -0.52073  -0.51792  -0.51295  -0.50916
 Alpha  occ. eigenvalues --   -0.50402  -0.49999  -0.49319  -0.49072  -0.48447
 Alpha  occ. eigenvalues --   -0.48342  -0.48334  -0.47901  -0.47588  -0.46943
 Alpha  occ. eigenvalues --   -0.46768  -0.46543  -0.46153  -0.46023  -0.45824
 Alpha  occ. eigenvalues --   -0.45683  -0.45570  -0.45028  -0.44802  -0.44794
 Alpha  occ. eigenvalues --   -0.44303  -0.44201  -0.44120  -0.43850  -0.43680
 Alpha  occ. eigenvalues --   -0.43557  -0.43286  -0.43001  -0.42973  -0.42604
 Alpha  occ. eigenvalues --   -0.42353  -0.42173  -0.41856  -0.41837  -0.41615
 Alpha  occ. eigenvalues --   -0.41468  -0.41020  -0.40995  -0.40834  -0.40514
 Alpha  occ. eigenvalues --   -0.40260  -0.39905  -0.39729  -0.39478  -0.39231
 Alpha  occ. eigenvalues --   -0.39199  -0.39015  -0.38862  -0.38691  -0.38567
 Alpha  occ. eigenvalues --   -0.38338  -0.38282  -0.37954  -0.37927  -0.37464
 Alpha  occ. eigenvalues --   -0.37396  -0.37347  -0.37199  -0.37086  -0.36970
 Alpha  occ. eigenvalues --   -0.36643  -0.36242  -0.36039  -0.36016  -0.35542
 Alpha  occ. eigenvalues --   -0.35498  -0.35340  -0.35144  -0.34852  -0.34807
 Alpha  occ. eigenvalues --   -0.34762  -0.34628  -0.34459  -0.34238  -0.34004
 Alpha  occ. eigenvalues --   -0.33999  -0.33140  -0.32979  -0.32743  -0.32615
 Alpha  occ. eigenvalues --   -0.32369  -0.32352  -0.31951  -0.31573  -0.31461
 Alpha  occ. eigenvalues --   -0.31345  -0.31215  -0.30349  -0.30197  -0.29762
 Alpha  occ. eigenvalues --   -0.29709  -0.29366  -0.28860  -0.28214  -0.28053
 Alpha  occ. eigenvalues --   -0.27550  -0.26987  -0.25973  -0.25724  -0.25671
 Alpha  occ. eigenvalues --   -0.24915  -0.24814  -0.23297  -0.22556  -0.20562
 Alpha  occ. eigenvalues --   -0.18195
 Alpha virt. eigenvalues --   -0.09913  -0.07296  -0.04029  -0.00894   0.00625
 Alpha virt. eigenvalues --    0.00746   0.01584   0.01743   0.02648   0.03272
 Alpha virt. eigenvalues --    0.03835   0.04012   0.04265   0.04382   0.04704

 Mulliken charges:
               1
     1  C    0.043355
     2  C   -0.030724
     3  C   -0.160144
     4  C   -0.067948
     5  N   -0.132886
     6  C   -0.064890
     7  C   -0.100362
     8  C   -0.068679
     9  C   -0.097935
    10  C    0.087040
    11  C    0.055373
    12  C   -0.061209
    13  C    0.142139
    14  O   -0.196256
    15  O   -0.221424
    16  N   -0.046525
    17  C    0.075432
    18  C   -0.133847
    19  C   -0.066266
    20  C    0.094378
    21  C    0.144508
    22  C    0.062117
    23  C    0.031275
    24  N   -0.194740
    25  C    0.085651
    26  C   -0.129370
    27  C   -0.109532
    28  C    0.024207
    29  C    0.062434
    30  C    0.053297
    31  C   -0.034801
    32  N    0.028584
    33  C    0.145459
    34  C   -0.174263
    35  C   -0.068924
    36  C    0.080421
    37  C    0.162952
    38  C    0.052492
    39  O   -0.130025
    40  C   -0.022283
    41  C    0.171471
    42  O   -0.165478
    43  O   -0.256251
    44  C    0.065988
    45  C    0.191301
    46  C   -0.127874
    47  C   -0.163847
    48  C    0.058117
    49  C    0.100223
    50  C   -0.011654
    51  C   -0.071169
    52  C   -0.121199
    53  C    0.038656
    54  C    0.037118
    55  C   -0.016805
    56  C    0.101193
    57  C   -0.132987
    58  C    0.059710
    59  C    0.067953
    60  C    0.008542
    61  C    0.028338
    62  C   -0.122486
    63  C    0.001991
    64  C   -0.018451
    65  H   -0.023732
    66  H    0.026034
    67  H   -0.041023
    68  H    0.038344
    69  H    0.006890
    70  H    0.030594
    71  H   -0.010285
    72  H    0.018197
    73  H    0.021668
    74  H    0.031506
    75  H    0.033074
    76  H    0.027447
    77  H    0.007393
    78  H   -0.006911
    79  H    0.031297
    80  H   -0.050726
    81  H    0.028537
    82  H   -0.026458
    83  H    0.036419
    84  H    0.027002
    85  H    0.004212
    86  H    0.008781
    87  H    0.013402
    88  H    0.026361
    89  H    0.012884
    90  H    0.016611
    91  H   -0.003509
    92  H    0.017318
    93  H    0.040162
    94  H    0.055921
    95  H    0.071437
    96  H    0.034264
    97  H    0.074505
    98  H    0.034464
    99  H    0.073803
   100  H    0.015077
   101  H    0.037300
   102  H    0.040229
   103  H    0.010926
   104  H    0.003269
   105  H   -0.007612
   106  H   -0.001008
   107  H    0.011883
   108  H    0.019114
   109  H    0.006691
   110  H    0.000023
   111  H    0.040985
   112  H    0.017092
   113  H   -0.012271
   114  H   -0.000430
   115  H    0.010631
   116  H    0.006398
   117  H   -0.002424
   118  H   -0.051675
   119  H   -0.001073
   120  H   -0.001292
   121  H   -0.003093
   122  H    0.030760
   123  H    0.000930
   124  H   -0.011865
   125  H   -0.009265
   126  H   -0.025102
   127  H   -0.025819
   128  H   -0.000792
   129  H   -0.012633
   130  H    0.016357
   131  H   -0.004265
   132  H   -0.005868
   133  H    0.043859
   134  H    0.022458
   135  H    0.031347
   136  H    0.021099
   137  H    0.172848
   138  H    0.090850
 Sum of Mulliken charges =  -0.00000

 Dipole moment (field-independent basis, Debye):
    X=              2.2548    Y=              2.8739    Z=              0.4241  Tot=              3.6774
 Quadrupole moment (field-independent basis, Debye-Ang):
   XX=           -369.7268   YY=           -386.1181   ZZ=           -398.2772
   XY=            -16.1896   XZ=              7.3077   YZ=             -1.7630

 Normal termination of Gaussian 16 at Wed Aug 14 16:26:08 2019.
