 Gaussian 16, Revision A.03,
 Gaussian 16:  ES64L-G16RevA.03 25-Dec-2016

 --------------------------
 # td=(NStates=1) B3LYP/SVP
 --------------------------

 --
 TD
 --
 Symbolic Z-matrix:
 Charge =  0 Multiplicity = 1

                         Standard orientation:
 ---------------------------------------------------------------------
 Center     Atomic      Atomic             Coordinates (Angstroms)
 Number     Number       Type             X           Y           Z
 ---------------------------------------------------------------------
      1          6           0       -5.113969   -1.963246    0.446474
      2          6           0       -4.711316    2.686092    1.454193
      3          6           0       -9.354737    3.205131   -0.225793
      4          6           0       -9.717909   -1.529504   -1.176663
      5          7           0       -5.188746    0.315619    0.920164
      6          6           0       -4.403837   -0.767028    0.910321
      7          6           0       -3.060468   -0.527836    1.384436
      8          6           0       -3.182268    0.834038    2.020152
      9          6           0       -4.538171    1.317897    1.519021
     10          6           0       -3.222147    0.782731    3.534625
     11          6           0       -2.101819   -0.463589    0.194572
     12          6           0       -0.685182   -0.556414    0.568490
     13          6           0        0.284340   -0.721956   -0.577402
     14          8           0       -0.073495   -1.128636   -1.629414
     15          8           0        1.583294   -0.410792   -0.280176
     16          7           0       -7.056865    2.691529    0.476244
     17          6           0       -5.983579    3.292866    0.987183
     18          6           0       -6.323848    4.716730    1.136626
     19          6           0       -7.587129    4.884348    0.620753
     20          6           0       -8.043498    3.558314    0.182019
     21          6           0       -5.388462    5.857260    1.741254
     22          6           0       -8.363675    6.202158    0.458384
     23          6           0       -9.329126    6.477884   -0.355194
     24          7           0       -9.221746    0.743523   -0.535097
     25          6           0       -9.886820    1.992766   -0.612516
     26          6           0      -11.203986    1.722436   -1.127828
     27          6           0      -11.368945    0.421507   -1.292854
     28          6           0       -9.996990   -0.232461   -1.009036
     29          6           0      -12.380103    2.804757   -1.182026
     30          6           0      -12.443649   -0.378349   -1.943412
     31          6           0      -12.266926   -0.791258   -3.455437
     32          7           0       -7.385086   -1.307067   -0.352301
     33          6           0       -8.483958   -2.077877   -0.811839
     34          6           0       -8.005014   -3.447567   -0.727630
     35          6           0       -6.623863   -3.506503   -0.412623
     36          6           0       -6.363330   -2.119085   -0.122789
     37          6           0       -8.805093   -4.728540   -1.213774
     38          6           0       -5.572468   -4.314525    0.067282
     39          8           0       -5.491351   -5.553623    0.080892
     40          6           0       -4.333736   -3.414273    0.377651
     41          6           0       -3.952717   -3.783883    1.718804
     42          8           0       -4.337397   -3.412564    2.805872
     43          8           0       -2.935226   -4.749569    1.604603
     44          6           0       -2.512893   -5.403260    2.879085
     45          6           0        2.608958   -0.612419   -1.231574
     46          6           0        3.884822   -0.287633   -0.490275
     47          6           0        4.916430    0.502809   -1.045233
     48          6           0        4.915841    1.106631   -2.314643
     49          6           0        6.175929    0.634273   -0.239213
     50          6           0        7.375878   -0.207376   -0.895511
     51          6           0        8.749504    0.114871   -0.097273
     52          6           0       10.060652   -0.484147   -0.632227
     53          6           0        9.865023   -2.096326   -0.642126
     54          6           0       11.289243    0.031905    0.117047
     55          6           0       12.625634   -0.565212   -0.415761
     56          6           0       13.857703    0.005460    0.232138
     57          6           0       15.232366   -0.351324   -0.388163
     58          6           0       15.475429   -1.968225   -0.266205
     59          6           0       16.353716    0.482231    0.282497
     60          6           0       17.707950    0.399147   -0.285656
     61          6           0       18.732551    1.356415    0.458270
     62          6           0       20.124841    1.386833   -0.192720
     63          6           0       20.141477    2.065648   -1.441125
     64          6           0       21.230100    2.092988    0.808921
     65          1           0       -4.118274    3.214378    2.356078
     66          1           0      -10.140822    3.995955   -0.309009
     67          1           0      -10.531651   -2.141520   -1.715701
     68          1           0       -2.918545   -1.423051    2.129676
     69          1           0       -2.362093    1.458888    1.731239
     70          1           0       -2.230926    0.265404    3.768997
     71          1           0       -3.220347    1.864111    3.833321
     72          1           0       -4.054012    0.057552    3.736863
     73          1           0       -2.151960   -1.507150   -0.412505
     74          1           0       -2.464488    0.310699   -0.574528
     75          1           0       -0.333090    0.356147    1.155516
     76          1           0       -0.383876   -1.317871    1.320315
     77          1           0       -4.361440    5.765739    1.270802
     78          1           0       -5.825354    6.699373    1.513974
     79          1           0       -5.494855    5.906158    2.890180
     80          1           0       -8.225603    6.820281    1.464364
     81          1           0       -9.540678    5.982633   -1.435182
     82          1           0       -9.958481    7.424678   -0.157467
     83          1           0      -12.738811    3.320900   -0.211556
     84          1           0      -11.853205    3.645211   -1.660439
     85          1           0      -13.461227    2.427695   -1.871692
     86          1           0      -12.559039   -1.310741   -1.429299
     87          1           0      -13.334820    0.219738   -1.890648
     88          1           0      -12.142024    0.294310   -4.012713
     89          1           0      -11.455786   -1.499985   -3.564838
     90          1           0      -13.140887   -1.191988   -3.740462
     91          1           0       -9.667210   -4.894768   -0.691399
     92          1           0       -8.859297   -4.595770   -2.341870
     93          1           0       -8.336130   -5.599751   -1.015660
     94          1           0       -3.548359   -3.474172   -0.307191
     95          1           0       -1.652899   -6.355487    2.661618
     96          1           0       -2.112747   -4.466099    3.597865
     97          1           0       -3.428349   -5.709130    3.329971
     98          1           0        2.539847   -1.605002   -1.665611
     99          1           0        2.527372    0.035165   -2.010403
    100          1           0        3.993263   -0.880017    0.538542
    101          1           0        5.446457    2.067710   -2.206269
    102          1           0        5.522543    0.618943   -3.002575
    103          1           0        3.970844    1.314297   -3.071990
    104          1           0        6.465283    1.613938   -0.064418
    105          1           0        6.079683    0.098937    0.885049
    106          1           0        7.207418   -1.192178   -0.898185
    107          1           0        7.451009    0.183137   -1.811816
    108          1           0        8.693079    1.215009    0.105529
    109          1           0        8.659973   -0.418900    0.897385
    110          1           0       10.296504   -0.318351   -1.583115
    111          1           0        8.958237   -2.275748   -1.234305
    112          1           0       10.672636   -2.583928   -1.064569
    113          1           0        9.716948   -2.434016    0.513482
    114          1           0       11.239510    1.272839   -0.110954
    115          1           0       11.313174   -0.220846    1.363003
    116          1           0       12.354741   -1.628778   -0.469083
    117          1           0       12.360007   -0.240914   -1.441109
    118          1           0       13.700823    1.203885    0.221587
    119          1           0       13.766863   -0.421561    1.170575
    120          1           0       15.377710   -0.084738   -1.476580
    121          1           0       14.749310   -2.504648   -0.703477
    122          1           0       16.433181   -2.158528   -0.480095
    123          1           0       15.260677   -2.229411    0.791433
    124          1           0       16.089095    1.594577    0.118133
    125          1           0       16.101612    0.133013    1.270035
    126          1           0       18.039968   -0.718588   -0.313379
    127          1           0       17.469470    0.554477   -1.234581
    128          1           0       18.437803    2.413142    0.580741
    129          1           0       18.890764    0.965286    1.618338
    130          1           0       20.544525    0.208870   -0.479872
    131          1           0       19.947092    3.075545   -1.477722
    132          1           0       21.168730    2.177968   -1.973634
    133          1           0       19.394712    1.584656   -2.178027
    134          1           0       21.500443    1.487836    1.848839
    135          1           0       22.102351    2.196483    0.218564
    136          1           0       20.877876    3.233360    1.114787
    137          1           0       -6.882987    1.640611    0.466596
    138          1           0       -7.611287   -0.397534   -0.060813
 ---------------------------------------------------------------------

 SCF Done:  E(RB3LYP) =  -2732.97559093     A.U. after   17 cycles

 Excitation energies and oscillator strengths:

 Excited State   1:      Singlet-A      2.0033 eV  618.88 nm  f=0.2235  <S**2>=0.000
     235 -> 238       -0.27370
     236 -> 237        0.64839
 This state for optimization and/or second-order correction.
 Total Energy, E(TD-HF/TD-DFT) =  -2732.90196923
 Copying the excited state density for this state as the 1-particle RhoCI density.

 The electronic state is 1-A.
 Alpha  occ. eigenvalues --  -19.16917 -19.16156 -19.12761 -19.12367 -19.11859
 Alpha  occ. eigenvalues --  -14.38250 -14.36910 -14.32409 -14.29826 -10.31278
 Alpha  occ. eigenvalues --  -10.31201 -10.27925 -10.26411 -10.24317 -10.24135
 Alpha  occ. eigenvalues --  -10.24119 -10.23886 -10.23571 -10.23467 -10.22630
 Alpha  occ. eigenvalues --  -10.22089 -10.21833 -10.21617 -10.21543 -10.21136
 Alpha  occ. eigenvalues --  -10.21115 -10.21066 -10.20901 -10.20900 -10.20827
 Alpha  occ. eigenvalues --  -10.20774 -10.20767 -10.20693 -10.20683 -10.20662
 Alpha  occ. eigenvalues --  -10.20632 -10.20547 -10.20492 -10.20424 -10.20187
 Alpha  occ. eigenvalues --  -10.20061 -10.20019 -10.19957 -10.19878 -10.19821
 Alpha  occ. eigenvalues --  -10.19551 -10.19497 -10.19455 -10.19205 -10.19027
 Alpha  occ. eigenvalues --  -10.18960 -10.18943 -10.18817 -10.18709 -10.18706
 Alpha  occ. eigenvalues --  -10.18459 -10.18394 -10.18170 -10.18106 -10.17910
 Alpha  occ. eigenvalues --  -10.17712 -10.17610 -10.17577 -10.16630  -1.09418
 Alpha  occ. eigenvalues --   -1.07153  -1.01653  -1.01198  -0.99917  -0.98994
 Alpha  occ. eigenvalues --   -0.98807  -0.96363  -0.92833  -0.84945  -0.82968
 Alpha  occ. eigenvalues --   -0.82488  -0.82071  -0.81488  -0.81054  -0.80799
 Alpha  occ. eigenvalues --   -0.79897  -0.79590  -0.79420  -0.78975  -0.78270
 Alpha  occ. eigenvalues --   -0.77121  -0.76669  -0.76105  -0.75411  -0.74611
 Alpha  occ. eigenvalues --   -0.73805  -0.73241  -0.72386  -0.71971  -0.70893
 Alpha  occ. eigenvalues --   -0.70589  -0.68972  -0.68054  -0.67958  -0.67596
 Alpha  occ. eigenvalues --   -0.66861  -0.66796  -0.66354  -0.66047  -0.65195
 Alpha  occ. eigenvalues --   -0.64069  -0.63373  -0.63113  -0.62007  -0.61721
 Alpha  occ. eigenvalues --   -0.61367  -0.60179  -0.58661  -0.58338  -0.57522
 Alpha  occ. eigenvalues --   -0.56911  -0.56722  -0.55723  -0.55437  -0.54964
 Alpha  occ. eigenvalues --   -0.54549  -0.54143  -0.53908  -0.53777  -0.53365
 Alpha  occ. eigenvalues --   -0.52540  -0.52225  -0.51668  -0.51473  -0.51127
 Alpha  occ. eigenvalues --   -0.50130  -0.49756  -0.49057  -0.48620  -0.48286
 Alpha  occ. eigenvalues --   -0.48263  -0.47998  -0.47284  -0.47100  -0.46859
 Alpha  occ. eigenvalues --   -0.46440  -0.46291  -0.46115  -0.45826  -0.45704
 Alpha  occ. eigenvalues --   -0.45399  -0.45097  -0.44881  -0.44863  -0.44729
 Alpha  occ. eigenvalues --   -0.44450  -0.44112  -0.44038  -0.43788  -0.43672
 Alpha  occ. eigenvalues --   -0.43515  -0.43387  -0.43111  -0.43002  -0.42789
 Alpha  occ. eigenvalues --   -0.42686  -0.42451  -0.42240  -0.42004  -0.41711
 Alpha  occ. eigenvalues --   -0.41100  -0.40909  -0.40872  -0.40802  -0.40400
 Alpha  occ. eigenvalues --   -0.40352  -0.39988  -0.39832  -0.39423  -0.39349
 Alpha  occ. eigenvalues --   -0.39217  -0.39107  -0.38582  -0.38411  -0.38110
 Alpha  occ. eigenvalues --   -0.38011  -0.37907  -0.37774  -0.37603  -0.37433
 Alpha  occ. eigenvalues --   -0.37276  -0.37237  -0.37148  -0.36862  -0.36472
 Alpha  occ. eigenvalues --   -0.36384  -0.36134  -0.36078  -0.36019  -0.35841
 Alpha  occ. eigenvalues --   -0.35685  -0.35367  -0.35244  -0.35098  -0.34981
 Alpha  occ. eigenvalues --   -0.34556  -0.34162  -0.34019  -0.33951  -0.33927
 Alpha  occ. eigenvalues --   -0.33893  -0.33568  -0.32940  -0.32712  -0.32239
 Alpha  occ. eigenvalues --   -0.32023  -0.31979  -0.31542  -0.31480  -0.31326
 Alpha  occ. eigenvalues --   -0.31275  -0.30695  -0.30425  -0.30283  -0.30256
 Alpha  occ. eigenvalues --   -0.29735  -0.29203  -0.28561  -0.28137  -0.28108
 Alpha  occ. eigenvalues --   -0.28008  -0.27367  -0.27036  -0.26694  -0.25269
 Alpha  occ. eigenvalues --   -0.25016  -0.24962  -0.23628  -0.23241  -0.19985
 Alpha  occ. eigenvalues --   -0.19029
 Alpha virt. eigenvalues --   -0.10792  -0.07305  -0.05101  -0.01840  -0.00952
 Alpha virt. eigenvalues --   -0.00369   0.00545   0.00937   0.01945   0.03037
 Alpha virt. eigenvalues --    0.03543   0.03840   0.03967   0.04200   0.04588

 Mulliken charges:
               1
     1  C   -0.061002
     2  C   -0.059563
     3  C   -0.078401
     4  C   -0.103448
     5  N   -0.183807
     6  C   -0.091626
     7  C   -0.003162
     8  C   -0.051586
     9  C   -0.023418
    10  C    0.078892
    11  C    0.002781
    12  C    0.047761
    13  C    0.157134
    14  O   -0.205722
    15  O   -0.330481
    16  N   -0.013014
    17  C   -0.010825
    18  C   -0.176372
    19  C   -0.025093
    20  C    0.101425
    21  C    0.163157
    22  C   -0.000932
    23  C   -0.101135
    24  N   -0.254907
    25  C    0.046156
    26  C   -0.083435
    27  C   -0.077408
    28  C    0.033919
    29  C   -0.020345
    30  C    0.068439
    31  C    0.029383
    32  N    0.011388
    33  C    0.101766
    34  C   -0.181184
    35  C    0.035354
    36  C    0.105393
    37  C    0.179345
    38  C    0.038263
    39  O   -0.203473
    40  C    0.031553
    41  C    0.208834
    42  O   -0.225583
    43  O   -0.364185
    44  C    0.121080
    45  C    0.362377
    46  C   -0.148414
    47  C   -0.091956
    48  C    0.062820
    49  C    0.010373
    50  C    0.098842
    51  C    0.011983
    52  C   -0.002721
    53  C   -0.011797
    54  C   -0.099625
    55  C    0.014943
    56  C    0.111179
    57  C   -0.111941
    58  C    0.120775
    59  C   -0.004098
    60  C    0.111551
    61  C    0.031014
    62  C   -0.116616
    63  C    0.038095
    64  C   -0.037458
    65  H    0.035585
    66  H   -0.015378
    67  H    0.014858
    68  H    0.035842
    69  H   -0.015615
    70  H    0.013623
    71  H    0.021346
    72  H    0.040749
    73  H    0.038771
    74  H    0.042230
    75  H    0.012371
    76  H    0.034404
    77  H    0.048562
    78  H   -0.046444
    79  H    0.031885
    80  H    0.036991
    81  H    0.065615
    82  H    0.039972
    83  H    0.046211
    84  H    0.019923
    85  H    0.047286
    86  H   -0.008977
    87  H   -0.017888
    88  H    0.031292
    89  H    0.013916
    90  H   -0.008630
    91  H   -0.006904
    92  H    0.044794
    93  H   -0.014153
    94  H    0.045951
    95  H    0.081010
    96  H    0.046030
    97  H    0.038490
    98  H    0.013508
    99  H   -0.045278
   100  H    0.023198
   101  H    0.004403
   102  H    0.011779
   103  H    0.045864
   104  H   -0.008444
   105  H    0.017440
   106  H   -0.019732
   107  H   -0.037527
   108  H   -0.001575
   109  H   -0.000825
   110  H   -0.048841
   111  H    0.015548
   112  H    0.002073
   113  H    0.026326
   114  H    0.016270
   115  H    0.004377
   116  H   -0.004580
   117  H   -0.024013
   118  H    0.016138
   119  H   -0.021476
   120  H   -0.015113
   121  H   -0.017588
   122  H   -0.021331
   123  H   -0.014875
   124  H   -0.002326
   125  H   -0.017788
   126  H    0.002251
   127  H   -0.052308
   128  H   -0.000017
   129  H    0.018318
   130  H    0.013137
   131  H   -0.028852
   132  H    0.004922
   133  H    0.016274
   134  H    0.038416
   135  H    0.005263
   136  H    0.023646
   137  H    0.176533
   138  H    0.111851
 Sum of Mulliken charges =  -0.00000

 Dipole moment (field-independent basis, Debye):
    X=              2.2392    Y=              4.4285    Z=             -0.5441  Tot=              4.9922
 Quadrupole moment (field-independent basis, Debye-Ang):
   XX=           -355.8734   YY=           -386.6723   ZZ=           -393.4422
   XY=            -21.5181   XZ=             -2.5932   YZ=              1.9602

 Normal termination of Gaussian 16 at Fri Aug 23 13:47:07 2019.
