 Gaussian 16, Revision A.03,
 Gaussian 16:  ES64L-G16RevA.03 25-Dec-2016

 --------------------------
 # td=(NStates=1) B3LYP/SVP
 --------------------------

 --
 TD
 --
 Symbolic Z-matrix:
 Charge =  0 Multiplicity = 1

                         Standard orientation:
 ---------------------------------------------------------------------
 Center     Atomic      Atomic             Coordinates (Angstroms)
 Number     Number       Type             X           Y           Z
 ---------------------------------------------------------------------
      1          6           0       -5.166650   -1.894466    0.356983
      2          6           0       -4.731615    2.696014    1.452496
      3          6           0       -9.314516    3.384569   -0.167559
      4          6           0       -9.834832   -1.381818   -0.892058
      5          7           0       -5.215342    0.432686    0.830602
      6          6           0       -4.583780   -0.769263    0.889663
      7          6           0       -3.091124   -0.650891    1.313022
      8          6           0       -3.138294    0.788259    1.940301
      9          6           0       -4.336504    1.356458    1.389693
     10          6           0       -3.183391    0.755930    3.586447
     11          6           0       -2.102643   -0.788951    0.242508
     12          6           0       -0.482348   -0.714813    0.613819
     13          6           0        0.402808   -1.008918   -0.509099
     14          8           0        0.130713   -1.423303   -1.582744
     15          8           0        1.713933   -0.783114   -0.110506
     16          7           0       -6.982160    2.750676    0.430412
     17          6           0       -5.845752    3.373893    0.995395
     18          6           0       -6.203193    4.780194    1.108170
     19          6           0       -7.403182    5.019873    0.497398
     20          6           0       -7.978910    3.707479    0.246024
     21          6           0       -5.131097    5.826998    1.492154
     22          6           0       -8.062119    6.298225    0.384583
     23          6           0       -9.005892    6.604769   -0.580863
     24          7           0       -9.120991    0.891393   -0.411771
     25          6           0       -9.863642    2.137168   -0.497056
     26          6           0      -11.194161    1.956151   -0.919392
     27          6           0      -11.336601    0.661218   -1.254511
     28          6           0      -10.039642    0.090550   -0.940762
     29          6           0      -12.174433    3.045438   -1.189118
     30          6           0      -12.618811   -0.056241   -1.661912
     31          6           0      -12.657790   -0.294868   -3.218684
     32          7           0       -7.499563   -1.171810   -0.238664
     33          6           0       -8.655024   -1.960081   -0.650318
     34          6           0       -8.169127   -3.452165   -0.698099
     35          6           0       -6.890671   -3.423701   -0.352603
     36          6           0       -6.529395   -1.993217   -0.037809
     37          6           0       -8.997092   -4.567912   -1.037641
     38          6           0       -5.659150   -4.313478   -0.107463
     39          8           0       -5.482927   -5.507069   -0.283956
     40          6           0       -4.582948   -3.296652    0.403505
     41          6           0       -4.034608   -3.901570    1.683515
     42          8           0       -4.394697   -3.613043    2.855049
     43          8           0       -3.331614   -5.090498    1.510116
     44          6           0       -2.790595   -5.589542    2.807931
     45          6           0        2.661356   -1.002286   -1.156510
     46          6           0        4.057921   -0.727476   -0.506482
     47          6           0        4.986625    0.000501   -1.104858
     48          6           0        4.917013    0.772471   -2.431912
     49          6           0        6.247555    0.206758   -0.360295
     50          6           0        7.482766   -0.426281   -1.053928
     51          6           0        8.773905   -0.341019   -0.244040
     52          6           0       10.090602   -0.736209   -0.871349
     53          6           0       10.048772   -2.297784   -1.076573
     54          6           0       11.368509   -0.273441   -0.102333
     55          6           0       12.676663   -0.463049   -0.797205
     56          6           0       13.904451   -0.082278    0.170801
     57          6           0       15.279890   -0.243672   -0.348619
     58          6           0       15.648924   -1.715157   -0.493207
     59          6           0       16.287939    0.516076    0.462289
     60          6           0       17.665802    0.773823   -0.201025
     61          6           0       18.585264    1.641587    0.705106
     62          6           0       20.014467    1.739793    0.159169
     63          6           0       20.025193    2.412221   -1.166567
     64          6           0       20.947189    2.366633    1.180603
     65          1           0       -4.114578    3.414805    1.964683
     66          1           0       -9.824133    4.268293   -0.168769
     67          1           0      -10.655575   -2.102002   -1.293448
     68          1           0       -2.760730   -1.349583    2.128693
     69          1           0       -2.169970    1.445933    1.563982
     70          1           0       -2.275392    0.475351    4.106343
     71          1           0       -3.452374    1.769900    4.038285
     72          1           0       -3.965428    0.161250    3.885194
     73          1           0       -2.227592   -1.829536   -0.393219
     74          1           0       -2.315460   -0.099147   -0.608446
     75          1           0       -0.362468    0.248438    1.112332
     76          1           0       -0.274183   -1.723259    1.217268
     77          1           0       -4.217998    5.904627    0.986117
     78          1           0       -5.602827    6.748198    1.381620
     79          1           0       -4.838579    5.655822    2.652745
     80          1           0       -7.751918    6.884855    1.147365
     81          1           0       -8.933475    5.903165   -1.553432
     82          1           0       -9.641052    7.397646   -0.698427
     83          1           0      -11.990885    3.863726   -0.177268
     84          1           0      -12.041130    3.568518   -2.106052
     85          1           0      -13.284160    2.448933   -1.268659
     86          1           0      -12.606480   -1.230578   -1.223956
     87          1           0      -13.413873    0.411403   -1.247596
     88          1           0      -12.590674    0.690048   -3.700229
     89          1           0      -11.879637   -1.107073   -3.554391
     90          1           0      -13.552820   -0.740844   -3.422513
     91          1           0       -9.986666   -4.827941   -0.306075
     92          1           0       -9.437032   -4.272336   -2.027774
     93          1           0       -8.461953   -5.614204   -1.245046
     94          1           0       -3.850848   -3.313958   -0.452921
     95          1           0       -1.924144   -6.300745    2.323435
     96          1           0       -2.382661   -4.767298    3.165007
     97          1           0       -3.593443   -5.944116    3.495259
     98          1           0        2.416720   -2.022428   -1.392915
     99          1           0        2.573462   -0.453863   -2.014933
    100          1           0        4.199278   -1.200328    0.556625
    101          1           0        4.989623    1.735675   -2.079133
    102          1           0        5.705368    0.401384   -3.090831
    103          1           0        3.854217    0.640037   -2.821150
    104          1           0        6.499991    1.303423   -0.525935
    105          1           0        6.157030   -0.070272    0.767568
    106          1           0        7.416320   -1.609494   -1.233024
    107          1           0        7.786172   -0.083041   -2.048742
    108          1           0        8.815842    0.824706   -0.049458
    109          1           0        8.693992   -0.777131    0.773917
    110          1           0       10.009006   -0.461303   -1.836028
    111          1           0        9.336689   -2.645526   -1.921444
    112          1           0       11.168842   -2.779336   -1.279214
    113          1           0        9.632938   -2.687033   -0.017894
    114          1           0       11.364710    1.069441    0.164975
    115          1           0       11.383593   -0.797141    0.882225
    116          1           0       12.817335   -1.485068   -1.016426
    117          1           0       12.945957    0.356617   -1.652246
    118          1           0       13.691118    1.046573    0.535411
    119          1           0       13.796745   -0.608962    1.126933
    120          1           0       15.023278    0.351875   -1.321058
    121          1           0       14.954869   -2.274806   -1.162992
    122          1           0       16.669103   -2.066465   -1.006089
    123          1           0       15.460980   -2.095362    0.349733
    124          1           0       15.668017    1.436024    0.575520
    125          1           0       16.499184    0.328202    1.625678
    126          1           0       17.861776   -0.290119   -0.562195
    127          1           0       17.399864    1.240705   -1.282941
    128          1           0       18.254478    2.677633    0.911585
    129          1           0       18.815606    1.198187    1.654801
    130          1           0       20.544189    0.603081    0.267841
    131          1           0       19.228216    3.114459   -1.099685
    132          1           0       21.073042    2.639024   -1.679225
    133          1           0       19.602415    1.742452   -1.980978
    134          1           0       20.871255    2.024852    2.328915
    135          1           0       22.051946    2.415952    0.974212
    136          1           0       20.576267    3.389943    1.448468
    137          1           0       -6.981415    1.774507    0.451222
    138          1           0       -7.509230   -0.204842   -0.129281
 ---------------------------------------------------------------------

 SCF Done:  E(RB3LYP) =  -2733.00978914     A.U. after   17 cycles

 Excitation energies and oscillator strengths:

 Excited State   1:      Singlet-A      1.9988 eV  620.30 nm  f=0.1608  <S**2>=0.000
     235 -> 238       -0.23981
     236 -> 237        0.64543
     236 -> 238       -0.11535
 This state for optimization and/or second-order correction.
 Total Energy, E(TD-HF/TD-DFT) =  -2732.93633510
 Copying the excited state density for this state as the 1-particle RhoCI density.

 The electronic state is 1-A.
 Alpha  occ. eigenvalues --  -19.16849 -19.16474 -19.13885 -19.13070 -19.12303
 Alpha  occ. eigenvalues --  -14.37510 -14.36029 -14.32515 -14.30260 -10.32059
 Alpha  occ. eigenvalues --  -10.31404 -10.29759 -10.24437 -10.24403 -10.24333
 Alpha  occ. eigenvalues --  -10.23416 -10.23264 -10.23147 -10.23007 -10.22960
 Alpha  occ. eigenvalues --  -10.22673 -10.22542 -10.22249 -10.22213 -10.22034
 Alpha  occ. eigenvalues --  -10.21496 -10.21413 -10.21254 -10.21075 -10.20960
 Alpha  occ. eigenvalues --  -10.20742 -10.20668 -10.20624 -10.20604 -10.20548
 Alpha  occ. eigenvalues --  -10.20418 -10.20202 -10.20094 -10.20089 -10.19959
 Alpha  occ. eigenvalues --  -10.19915 -10.19804 -10.19710 -10.19708 -10.19596
 Alpha  occ. eigenvalues --  -10.19483 -10.19459 -10.19454 -10.19368 -10.19281
 Alpha  occ. eigenvalues --  -10.19219 -10.18977 -10.18761 -10.18740 -10.18674
 Alpha  occ. eigenvalues --  -10.18660 -10.18592 -10.18580 -10.18579 -10.18328
 Alpha  occ. eigenvalues --  -10.18292 -10.17695 -10.17630 -10.17485  -1.09543
 Alpha  occ. eigenvalues --   -1.06801  -1.03526  -1.01335  -0.99191  -0.97390
 Alpha  occ. eigenvalues --   -0.96543  -0.94246  -0.93169  -0.84707  -0.82972
 Alpha  occ. eigenvalues --   -0.82577  -0.82430  -0.82242  -0.81197  -0.80811
 Alpha  occ. eigenvalues --   -0.80540  -0.79974  -0.79789  -0.78535  -0.77532
 Alpha  occ. eigenvalues --   -0.76636  -0.76104  -0.75531  -0.74428  -0.73913
 Alpha  occ. eigenvalues --   -0.73116  -0.72926  -0.72470  -0.71780  -0.70814
 Alpha  occ. eigenvalues --   -0.70424  -0.69224  -0.68636  -0.68326  -0.67809
 Alpha  occ. eigenvalues --   -0.67624  -0.67012  -0.65837  -0.65636  -0.64817
 Alpha  occ. eigenvalues --   -0.64722  -0.63810  -0.62842  -0.62014  -0.61758
 Alpha  occ. eigenvalues --   -0.61298  -0.59464  -0.58586  -0.57554  -0.57320
 Alpha  occ. eigenvalues --   -0.56345  -0.56148  -0.55823  -0.55808  -0.55311
 Alpha  occ. eigenvalues --   -0.54945  -0.54790  -0.54390  -0.53828  -0.52864
 Alpha  occ. eigenvalues --   -0.52333  -0.51797  -0.51173  -0.51058  -0.50470
 Alpha  occ. eigenvalues --   -0.50183  -0.49215  -0.48851  -0.48468  -0.48145
 Alpha  occ. eigenvalues --   -0.48137  -0.47564  -0.47480  -0.47131  -0.47043
 Alpha  occ. eigenvalues --   -0.46918  -0.46183  -0.46084  -0.46022  -0.45709
 Alpha  occ. eigenvalues --   -0.45282  -0.45245  -0.45172  -0.45018  -0.44698
 Alpha  occ. eigenvalues --   -0.44569  -0.44211  -0.44055  -0.43898  -0.43630
 Alpha  occ. eigenvalues --   -0.43588  -0.43228  -0.43068  -0.42598  -0.42554
 Alpha  occ. eigenvalues --   -0.42445  -0.42300  -0.41980  -0.41785  -0.41593
 Alpha  occ. eigenvalues --   -0.41254  -0.40981  -0.40818  -0.40666  -0.40394
 Alpha  occ. eigenvalues --   -0.39943  -0.39716  -0.39461  -0.39250  -0.39003
 Alpha  occ. eigenvalues --   -0.38825  -0.38760  -0.38650  -0.38461  -0.38173
 Alpha  occ. eigenvalues --   -0.38105  -0.37934  -0.37720  -0.37639  -0.37502
 Alpha  occ. eigenvalues --   -0.37455  -0.37224  -0.37161  -0.36855  -0.36774
 Alpha  occ. eigenvalues --   -0.36466  -0.36367  -0.36268  -0.36042  -0.35939
 Alpha  occ. eigenvalues --   -0.35631  -0.35394  -0.35194  -0.34957  -0.34821
 Alpha  occ. eigenvalues --   -0.34454  -0.34416  -0.33905  -0.33836  -0.33697
 Alpha  occ. eigenvalues --   -0.33349  -0.33040  -0.32976  -0.32647  -0.32507
 Alpha  occ. eigenvalues --   -0.32128  -0.31894  -0.31636  -0.31471  -0.30667
 Alpha  occ. eigenvalues --   -0.30552  -0.30392  -0.30085  -0.29733  -0.29664
 Alpha  occ. eigenvalues --   -0.29455  -0.28992  -0.28748  -0.28446  -0.28371
 Alpha  occ. eigenvalues --   -0.28295  -0.28011  -0.27838  -0.27468  -0.26144
 Alpha  occ. eigenvalues --   -0.25915  -0.25006  -0.23860  -0.22800  -0.20425
 Alpha  occ. eigenvalues --   -0.17927
 Alpha virt. eigenvalues --   -0.09557  -0.08184  -0.04886  -0.03039  -0.01507
 Alpha virt. eigenvalues --   -0.00107   0.00315   0.01263   0.01691   0.02711
 Alpha virt. eigenvalues --    0.02970   0.03446   0.04126   0.04409   0.04586

 Mulliken charges:
               1
     1  C   -0.006580
     2  C   -0.025940
     3  C   -0.035511
     4  C   -0.120847
     5  N   -0.219762
     6  C   -0.038466
     7  C    0.043914
     8  C   -0.087104
     9  C    0.042360
    10  C    0.081969
    11  C   -0.039230
    12  C    0.027653
    13  C    0.161608
    14  O   -0.200656
    15  O   -0.356784
    16  N   -0.057177
    17  C    0.052643
    18  C   -0.130445
    19  C    0.027855
    20  C    0.031591
    21  C    0.095266
    22  C   -0.001485
    23  C   -0.024186
    24  N   -0.269869
    25  C    0.155067
    26  C   -0.116537
    27  C   -0.066411
    28  C    0.049403
    29  C   -0.001722
    30  C    0.018605
    31  C    0.044224
    32  N    0.043721
    33  C    0.108770
    34  C   -0.091364
    35  C   -0.018285
    36  C    0.041400
    37  C   -0.045525
    38  C    0.107351
    39  O   -0.142443
    40  C   -0.015001
    41  C    0.236813
    42  O   -0.281454
    43  O   -0.341423
    44  C    0.221220
    45  C    0.336391
    46  C   -0.122344
    47  C   -0.149864
    48  C    0.133255
    49  C    0.080018
    50  C   -0.029950
    51  C   -0.021599
    52  C    0.058269
    53  C   -0.108101
    54  C   -0.019888
    55  C    0.066030
    56  C   -0.105490
    57  C   -0.018057
    58  C    0.114874
    59  C   -0.023988
    60  C    0.021736
    61  C    0.064292
    62  C   -0.143762
    63  C    0.065358
    64  C   -0.010794
    65  H   -0.053905
    66  H   -0.086315
    67  H    0.004430
    68  H    0.003052
    69  H    0.027695
    70  H    0.018191
    71  H    0.013217
    72  H    0.007355
    73  H    0.030842
    74  H    0.014264
    75  H    0.046568
    76  H    0.061036
    77  H    0.021881
    78  H   -0.019200
    79  H    0.033267
    80  H   -0.030187
    81  H    0.057255
    82  H    0.006531
    83  H    0.050347
    84  H    0.035139
    85  H    0.032319
    86  H    0.013157
    87  H   -0.016698
    88  H    0.020399
    89  H    0.028246
    90  H   -0.014937
    91  H    0.067615
    92  H    0.039362
    93  H    0.067009
    94  H    0.067549
    95  H    0.057460
    96  H   -0.016106
    97  H    0.056737
    98  H   -0.002889
    99  H   -0.034314
   100  H    0.014001
   101  H    0.005816
   102  H    0.042885
   103  H    0.011899
   104  H   -0.001653
   105  H    0.024872
   106  H    0.000805
   107  H   -0.001109
   108  H   -0.011707
   109  H   -0.007139
   110  H   -0.054817
   111  H    0.043738
   112  H    0.035748
   113  H    0.021690
   114  H    0.010881
   115  H    0.007742
   116  H   -0.012871
   117  H    0.025690
   118  H    0.005668
   119  H   -0.022732
   120  H   -0.006996
   121  H   -0.007616
   122  H    0.034466
   123  H   -0.059131
   124  H   -0.023599
   125  H    0.004190
   126  H    0.000931
   127  H    0.000395
   128  H    0.007157
   129  H   -0.008171
   130  H    0.006436
   131  H   -0.005769
   132  H    0.029218
   133  H    0.009009
   134  H    0.003958
   135  H    0.024598
   136  H   -0.019699
   137  H    0.110002
   138  H    0.111229
 Sum of Mulliken charges =  -0.00000

 Dipole moment (field-independent basis, Debye):
    X=              0.8946    Y=              3.1062    Z=             -0.1174  Tot=              3.2346
 Quadrupole moment (field-independent basis, Debye-Ang):
   XX=           -371.6668   YY=           -386.6665   ZZ=           -393.2577
   XY=            -15.7528   XZ=             11.4658   YZ=             -0.6929

 Normal termination of Gaussian 16 at Tue Aug 20 09:39:07 2019.
