 Gaussian 16, Revision A.03,
 Gaussian 16:  ES64L-G16RevA.03 25-Dec-2016

 --------------------------
 # td=(NStates=1) B3LYP/SVP
 --------------------------

 --
 TD
 --
 Symbolic Z-matrix:
 Charge =  0 Multiplicity = 1

                         Standard orientation:
 ---------------------------------------------------------------------
 Center     Atomic      Atomic             Coordinates (Angstroms)
 Number     Number       Type             X           Y           Z
 ---------------------------------------------------------------------
      1          6           0       -5.064315   -1.992398    0.446147
      2          6           0       -4.633743    2.732949    1.376249
      3          6           0       -9.349251    3.398867   -0.198647
      4          6           0       -9.838849   -1.397634   -1.009874
      5          7           0       -5.247719    0.435195    0.937980
      6          6           0       -4.514887   -0.765522    0.929584
      7          6           0       -3.094859   -0.631205    1.345537
      8          6           0       -3.105074    0.776293    1.982998
      9          6           0       -4.367151    1.356773    1.414732
     10          6           0       -3.210374    0.761898    3.553108
     11          6           0       -2.071761   -0.676179    0.136313
     12          6           0       -0.641145   -0.797211    0.746528
     13          6           0        0.380465   -1.168178   -0.313679
     14          8           0        0.176553   -1.776844   -1.393645
     15          8           0        1.680949   -0.773468   -0.012078
     16          7           0       -7.054128    2.823112    0.534707
     17          6           0       -5.873707    3.391641    0.991074
     18          6           0       -6.187912    4.838084    1.077538
     19          6           0       -7.526277    5.029580    0.595571
     20          6           0       -7.969159    3.656735    0.255349
     21          6           0       -5.120379    5.997185    1.378339
     22          6           0       -8.126232    6.264294    0.423748
     23          6           0       -9.152601    6.811427   -0.407995
     24          7           0       -9.174398    0.867910   -0.513283
     25          6           0       -9.843719    2.141463   -0.632375
     26          6           0      -11.250088    1.858628   -0.866724
     27          6           0      -11.421856    0.630953   -1.223854
     28          6           0      -10.048334   -0.041410   -0.958308
     29          6           0      -12.175455    3.053406   -1.228977
     30          6           0      -12.564282   -0.118853   -1.859438
     31          6           0      -12.408701   -0.259213   -3.482576
     32          7           0       -7.441124   -1.185430   -0.290772
     33          6           0       -8.545015   -2.035486   -0.622389
     34          6           0       -8.153185   -3.384718   -0.744606
     35          6           0       -6.787393   -3.403990   -0.256040
     36          6           0       -6.398955   -2.065652    0.023186
     37          6           0       -8.955812   -4.475489   -0.980233
     38          6           0       -5.678827   -4.315303   -0.055386
     39          8           0       -5.673589   -5.534270   -0.190810
     40          6           0       -4.452643   -3.301316    0.442267
     41          6           0       -3.879151   -3.953179    1.679380
     42          8           0       -4.127982   -3.627972    2.816436
     43          8           0       -2.996201   -4.839471    1.376609
     44          6           0       -2.453026   -5.581708    2.535360
     45          6           0        2.590917   -1.158349   -0.982230
     46          6           0        3.950600   -0.783798   -0.427225
     47          6           0        4.892683   -0.131011   -0.989530
     48          6           0        4.824632    0.601070   -2.374138
     49          6           0        6.224143    0.090617   -0.215716
     50          6           0        7.407760   -0.499442   -0.872583
     51          6           0        8.774243   -0.236687   -0.149023
     52          6           0        9.987918   -0.827074   -0.828546
     53          6           0       10.008413   -2.240042   -1.255859
     54          6           0       11.288313   -0.424587    0.062306
     55          6           0       12.640698   -0.544870   -0.712269
     56          6           0       13.834709    0.076757    0.135909
     57          6           0       15.251789   -0.213590   -0.318780
     58          6           0       15.611377   -1.705087   -0.264410
     59          6           0       16.168831    0.619968    0.419019
     60          6           0       17.570083    0.676541   -0.159796
     61          6           0       18.479437    1.701536    0.563623
     62          6           0       19.946439    1.892271    0.080849
     63          6           0       19.949793    2.255701   -1.448595
     64          6           0       20.826801    2.869893    0.908881
     65          1           0       -3.890699    3.400419    1.869894
     66          1           0      -10.118645    4.280907   -0.384157
     67          1           0      -10.512124   -1.949214   -1.354852
     68          1           0       -2.881661   -1.655331    2.082593
     69          1           0       -2.136534    1.420342    1.615401
     70          1           0       -2.170180    0.384865    3.790175
     71          1           0       -3.472569    1.664117    3.951738
     72          1           0       -3.938696    0.118009    3.871491
     73          1           0       -2.186509   -1.421564   -0.605328
     74          1           0       -2.255743    0.160731   -0.461994
     75          1           0       -0.418722    0.135696    1.233374
     76          1           0       -0.451914   -1.554364    1.500637
     77          1           0       -4.200426    5.630842    0.464613
     78          1           0       -5.484718    7.011685    1.157397
     79          1           0       -4.829163    5.818133    2.394105
     80          1           0       -7.528685    6.950375    1.065870
     81          1           0       -9.469761    5.984594   -1.034621
     82          1           0       -9.521857    7.913690   -0.602364
     83          1           0      -12.139772    3.803209   -0.468866
     84          1           0      -11.776941    3.423698   -2.424182
     85          1           0      -13.253338    2.706714   -1.439292
     86          1           0      -12.653534   -1.114690   -1.422840
     87          1           0      -13.380219    0.370485   -1.590165
     88          1           0      -12.179746    0.792039   -3.909846
     89          1           0      -11.584478   -1.134315   -3.635985
     90          1           0      -13.424104   -0.477641   -3.765776
     91          1           0       -9.983779   -4.635597   -0.393981
     92          1           0       -9.234722   -4.551591   -2.087283
     93          1           0       -8.429224   -5.493318   -0.570748
     94          1           0       -3.848088   -3.258339   -0.483892
     95          1           0       -1.605912   -6.204467    2.359465
     96          1           0       -1.980742   -4.764492    3.217756
     97          1           0       -3.378513   -6.084200    3.120813
     98          1           0        2.795399   -2.255969   -1.341145
     99          1           0        2.396176   -0.526414   -1.887806
    100          1           0        4.006234   -1.315950    0.546477
    101          1           0        5.025378    1.633687   -1.982270
    102          1           0        5.767668    0.314061   -3.071643
    103          1           0        3.836112    0.324448   -2.805752
    104          1           0        6.669550    1.200585   -0.190269
    105          1           0        6.074379   -0.596070    0.652577
    106          1           0        7.191501   -1.537992   -0.971849
    107          1           0        7.637634   -0.016131   -1.851879
    108          1           0        8.908113    0.930121   -0.006803
    109          1           0        8.691273   -0.434669    0.971221
    110          1           0       10.146990   -0.195324   -1.714519
    111          1           0        9.229923   -2.353113   -1.873816
    112          1           0       10.930419   -2.531684   -1.699158
    113          1           0        9.721866   -3.074758   -0.472482
    114          1           0       11.092869    0.744261    0.382189
    115          1           0       11.418131   -0.945076    1.092464
    116          1           0       12.824025   -1.594155   -0.871689
    117          1           0       12.531189   -0.311909   -1.734618
    118          1           0       13.599012    1.347014    0.185936
    119          1           0       13.781816   -0.352040    1.070510
    120          1           0       15.334804    0.040865   -1.483148
    121          1           0       14.809674   -2.437423   -0.869960
    122          1           0       16.600858   -1.889721   -0.475770
    123          1           0       15.489553   -2.063573    0.864017
    124          1           0       15.789208    1.587034    0.526337
    125          1           0       16.329855    0.199080    1.274839
    126          1           0       18.011081   -0.239001   -0.139161
    127          1           0       17.604451    1.047307   -1.180202
    128          1           0       18.227111    2.762763    0.417987
    129          1           0       18.501914    1.509484    1.677738
    130          1           0       20.555070    0.930126    0.262099
    131          1           0       19.285147    3.275443   -1.661953
    132          1           0       21.172421    2.319698   -1.822739
    133          1           0       19.527325    1.424618   -2.078610
    134          1           0       21.024748    2.853215    2.134964
    135          1           0       21.758411    2.808715    0.272108
    136          1           0       20.344437    3.893453    0.754885
    137          1           0       -7.211100    1.754367    0.753068
    138          1           0       -7.640707   -0.202181   -0.146604
 ---------------------------------------------------------------------

 SCF Done:  E(RB3LYP) =  -2732.99793372     A.U. after   18 cycles

 Excitation energies and oscillator strengths:

 Excited State   1:      Singlet-A      1.8560 eV  668.00 nm  f=0.2396  <S**2>=0.000
     235 -> 238        0.25222
     236 -> 237        0.66037
 This state for optimization and/or second-order correction.
 Total Energy, E(TD-HF/TD-DFT) =  -2732.92972521
 Copying the excited state density for this state as the 1-particle RhoCI density.

 The electronic state is 1-A.
 Alpha  occ. eigenvalues --  -19.18726 -19.18696 -19.13296 -19.12576 -19.11550
 Alpha  occ. eigenvalues --  -14.38652 -14.36448 -14.33281 -14.30615 -10.32738
 Alpha  occ. eigenvalues --  -10.31458 -10.28135 -10.26357 -10.24927 -10.24794
 Alpha  occ. eigenvalues --  -10.24560 -10.23653 -10.23365 -10.23339 -10.23106
 Alpha  occ. eigenvalues --  -10.22710 -10.22206 -10.22078 -10.22027 -10.21808
 Alpha  occ. eigenvalues --  -10.21696 -10.21522 -10.21348 -10.21306 -10.21275
 Alpha  occ. eigenvalues --  -10.21263 -10.20969 -10.20836 -10.20830 -10.20787
 Alpha  occ. eigenvalues --  -10.20786 -10.20589 -10.20464 -10.20460 -10.20352
 Alpha  occ. eigenvalues --  -10.19993 -10.19922 -10.19659 -10.19615 -10.19327
 Alpha  occ. eigenvalues --  -10.19289 -10.19169 -10.19146 -10.19092 -10.19080
 Alpha  occ. eigenvalues --  -10.18997 -10.18917 -10.18910 -10.18735 -10.18498
 Alpha  occ. eigenvalues --  -10.18368 -10.18127 -10.18050 -10.17802 -10.17673
 Alpha  occ. eigenvalues --  -10.17593 -10.17140 -10.16996 -10.15440  -1.11350
 Alpha  occ. eigenvalues --   -1.09692  -1.02003  -1.00463  -1.00338  -0.99638
 Alpha  occ. eigenvalues --   -0.96224  -0.94290  -0.92704  -0.85300  -0.83127
 Alpha  occ. eigenvalues --   -0.82529  -0.81663  -0.81511  -0.81105  -0.80555
 Alpha  occ. eigenvalues --   -0.79877  -0.79714  -0.79339  -0.78575  -0.77979
 Alpha  occ. eigenvalues --   -0.76709  -0.75727  -0.75228  -0.74970  -0.73504
 Alpha  occ. eigenvalues --   -0.73386  -0.72908  -0.72313  -0.71897  -0.70377
 Alpha  occ. eigenvalues --   -0.69656  -0.69131  -0.68379  -0.67939  -0.67248
 Alpha  occ. eigenvalues --   -0.67237  -0.66762  -0.66094  -0.65630  -0.65207
 Alpha  occ. eigenvalues --   -0.64157  -0.63924  -0.63164  -0.62396  -0.61505
 Alpha  occ. eigenvalues --   -0.61190  -0.59264  -0.58668  -0.57663  -0.57328
 Alpha  occ. eigenvalues --   -0.57064  -0.55953  -0.55868  -0.55537  -0.54884
 Alpha  occ. eigenvalues --   -0.54666  -0.54453  -0.53863  -0.53360  -0.53214
 Alpha  occ. eigenvalues --   -0.52476  -0.52062  -0.51846  -0.51358  -0.50471
 Alpha  occ. eigenvalues --   -0.49623  -0.49496  -0.49245  -0.49022  -0.48789
 Alpha  occ. eigenvalues --   -0.48558  -0.47654  -0.47427  -0.47220  -0.46878
 Alpha  occ. eigenvalues --   -0.46538  -0.46262  -0.46195  -0.46016  -0.45811
 Alpha  occ. eigenvalues --   -0.45341  -0.45220  -0.44925  -0.44683  -0.44433
 Alpha  occ. eigenvalues --   -0.44159  -0.44044  -0.43834  -0.43704  -0.43557
 Alpha  occ. eigenvalues --   -0.43403  -0.43247  -0.43053  -0.42905  -0.42769
 Alpha  occ. eigenvalues --   -0.42553  -0.42424  -0.42134  -0.42008  -0.41543
 Alpha  occ. eigenvalues --   -0.41362  -0.41277  -0.40711  -0.40536  -0.40325
 Alpha  occ. eigenvalues --   -0.40243  -0.40030  -0.39843  -0.39621  -0.39339
 Alpha  occ. eigenvalues --   -0.39043  -0.38856  -0.38750  -0.38484  -0.38341
 Alpha  occ. eigenvalues --   -0.38160  -0.37997  -0.37753  -0.37368  -0.37362
 Alpha  occ. eigenvalues --   -0.37271  -0.37133  -0.36728  -0.36349  -0.36291
 Alpha  occ. eigenvalues --   -0.36228  -0.36014  -0.35901  -0.35862  -0.35680
 Alpha  occ. eigenvalues --   -0.35486  -0.35449  -0.35357  -0.35124  -0.34749
 Alpha  occ. eigenvalues --   -0.34530  -0.34326  -0.34200  -0.34093  -0.33954
 Alpha  occ. eigenvalues --   -0.33629  -0.33351  -0.33128  -0.32813  -0.32756
 Alpha  occ. eigenvalues --   -0.32187  -0.31895  -0.31474  -0.31318  -0.31144
 Alpha  occ. eigenvalues --   -0.30967  -0.30811  -0.30593  -0.30451  -0.30055
 Alpha  occ. eigenvalues --   -0.29771  -0.29541  -0.28870  -0.28353  -0.28213
 Alpha  occ. eigenvalues --   -0.28073  -0.27570  -0.26886  -0.26303  -0.25383
 Alpha  occ. eigenvalues --   -0.25224  -0.24774  -0.23859  -0.22770  -0.19584
 Alpha  occ. eigenvalues --   -0.18887
 Alpha virt. eigenvalues --   -0.11356  -0.07270  -0.05053  -0.02769  -0.01754
 Alpha virt. eigenvalues --    0.00163   0.00741   0.01235   0.02211   0.02767
 Alpha virt. eigenvalues --    0.03515   0.03567   0.03753   0.03843   0.04082

 Mulliken charges:
               1
     1  C   -0.076580
     2  C   -0.045017
     3  C   -0.108201
     4  C    0.038106
     5  N   -0.193199
     6  C   -0.016473
     7  C   -0.142773
     8  C   -0.093024
     9  C   -0.003604
    10  C    0.169823
    11  C    0.106418
    12  C    0.098518
    13  C    0.181646
    14  O   -0.266859
    15  O   -0.302791
    16  N    0.003292
    17  C    0.047336
    18  C   -0.144425
    19  C    0.039392
    20  C    0.037244
    21  C    0.027740
    22  C   -0.107001
    23  C   -0.055993
    24  N   -0.288625
    25  C    0.073221
    26  C   -0.143866
    27  C   -0.061785
    28  C    0.082831
    29  C   -0.012692
    30  C    0.132626
    31  C   -0.033601
    32  N   -0.079556
    33  C    0.062455
    34  C   -0.043975
    35  C   -0.003411
    36  C    0.147277
    37  C   -0.054426
    38  C    0.016421
    39  O   -0.177994
    40  C   -0.000040
    41  C    0.203483
    42  O   -0.242473
    43  O   -0.259057
    44  C    0.148087
    45  C    0.232209
    46  C   -0.140935
    47  C   -0.106723
    48  C    0.037185
    49  C    0.084152
    50  C   -0.004453
    51  C   -0.021249
    52  C   -0.030083
    53  C    0.112690
    54  C   -0.073314
    55  C    0.078843
    56  C    0.033772
    57  C   -0.084931
    58  C   -0.012803
    59  C    0.195579
    60  C    0.082335
    61  C    0.007108
    62  C   -0.110285
    63  C   -0.083911
    64  C   -0.024767
    65  H   -0.012306
    66  H    0.032955
    67  H   -0.149653
    68  H    0.064009
    69  H    0.028258
    70  H    0.021198
    71  H   -0.014263
    72  H    0.001184
    73  H    0.009169
    74  H   -0.010158
    75  H    0.014330
    76  H    0.034297
    77  H    0.063828
    78  H    0.043915
    79  H    0.042225
    80  H   -0.007652
    81  H    0.022378
    82  H    0.066347
    83  H    0.038280
    84  H    0.052298
    85  H    0.023965
    86  H    0.000746
    87  H   -0.051930
    88  H    0.037739
    89  H    0.055469
    90  H    0.020726
    91  H    0.045876
    92  H    0.042038
    93  H    0.062578
    94  H    0.060008
    95  H    0.036952
    96  H    0.036704
    97  H    0.074130
    98  H    0.053796
    99  H    0.004062
   100  H   -0.011713
   101  H    0.035111
   102  H    0.047520
   103  H    0.025877
   104  H    0.013436
   105  H   -0.007144
   106  H   -0.010121
   107  H   -0.003386
   108  H   -0.006311
   109  H   -0.011255
   110  H   -0.010720
   111  H   -0.030170
   112  H   -0.000961
   113  H    0.003793
   114  H    0.001703
   115  H    0.009769
   116  H   -0.027236
   117  H   -0.030902
   118  H    0.019282
   119  H   -0.031513
   120  H   -0.009606
   121  H    0.038843
   122  H   -0.003225
   123  H    0.002239
   124  H   -0.032398
   125  H   -0.075452
   126  H   -0.034554
   127  H   -0.019211
   128  H   -0.015337
   129  H   -0.006103
   130  H   -0.001337
   131  H    0.038885
   132  H    0.030470
   133  H    0.040279
   134  H    0.044968
   135  H    0.018798
   136  H    0.003960
   137  H    0.206123
   138  H    0.125202
 Sum of Mulliken charges =  -0.00000

 Dipole moment (field-independent basis, Debye):
    X=              0.9528    Y=              3.0707    Z=              0.7667  Tot=              3.3053
 Quadrupole moment (field-independent basis, Debye-Ang):
   XX=           -359.1600   YY=           -389.4696   ZZ=           -395.4730
   XY=            -29.3611   XZ=              9.2342   YZ=             -3.4423

 Normal termination of Gaussian 16 at Fri Aug 30 20:05:43 2019.
