 Gaussian 16, Revision A.03,
 Gaussian 16:  ES64L-G16RevA.03 25-Dec-2016

 --------------------------
 # td=(NStates=1) B3LYP/SVP
 --------------------------

 --
 TD
 --
 Symbolic Z-matrix:
 Charge =  0 Multiplicity = 1

                         Standard orientation:
 ---------------------------------------------------------------------
 Center     Atomic      Atomic             Coordinates (Angstroms)
 Number     Number       Type             X           Y           Z
 ---------------------------------------------------------------------
      1          6           0       -5.101501   -1.984864    0.392769
      2          6           0       -4.635183    2.680814    1.287852
      3          6           0       -9.196207    3.465499   -0.289964
      4          6           0       -9.831835   -1.373016   -0.882735
      5          7           0       -5.138720    0.384808    0.880534
      6          6           0       -4.528872   -0.851072    0.853982
      7          6           0       -3.017138   -0.699576    1.233184
      8          6           0       -2.928886    0.743562    1.863618
      9          6           0       -4.354278    1.308980    1.282479
     10          6           0       -2.874535    0.879173    3.388460
     11          6           0       -2.122708   -0.947075    0.082754
     12          6           0       -0.589538   -0.920556    0.482084
     13          6           0        0.328357   -1.268275   -0.617791
     14          8           0        0.031981   -1.600523   -1.666710
     15          8           0        1.545424   -0.974125   -0.283630
     16          7           0       -6.875398    2.777841    0.340183
     17          6           0       -5.755149    3.401469    0.943825
     18          6           0       -6.123136    4.782149    1.101996
     19          6           0       -7.336041    5.094359    0.505227
     20          6           0       -7.876434    3.758176    0.183163
     21          6           0       -5.061524    5.772686    1.558758
     22          6           0       -7.907635    6.387196    0.348685
     23          6           0       -8.870514    6.756873   -0.444034
     24          7           0       -9.154931    0.999328   -0.449143
     25          6           0       -9.773653    2.242783   -0.572246
     26          6           0      -11.159148    2.014951   -0.986004
     27          6           0      -11.401860    0.680725   -1.067319
     28          6           0       -9.969569    0.106530   -0.763551
     29          6           0      -12.166803    3.168950   -1.087998
     30          6           0      -12.624671    0.023386   -1.481692
     31          6           0      -12.603483   -0.331872   -2.955225
     32          7           0       -7.432756   -1.276478   -0.171909
     33          6           0       -8.596530   -1.941826   -0.598429
     34          6           0       -8.319546   -3.349095   -0.685435
     35          6           0       -6.932570   -3.383732   -0.204200
     36          6           0       -6.450969   -2.115223    0.058748
     37          6           0       -9.230636   -4.447881   -1.103722
     38          6           0       -5.815836   -4.407789   -0.018643
     39          8           0       -5.766328   -5.570621    0.006967
     40          6           0       -4.578978   -3.434316    0.407339
     41          6           0       -4.041284   -3.918102    1.708692
     42          8           0       -4.328927   -3.514889    2.842122
     43          8           0       -3.224517   -4.980129    1.574828
     44          6           0       -2.715545   -5.573713    2.651510
     45          6           0        2.610306   -1.282945   -1.111298
     46          6           0        3.904486   -0.815379   -0.430425
     47          6           0        4.826310    0.042926   -0.888914
     48          6           0        4.700788    0.735224   -2.299161
     49          6           0        6.201542    0.230650   -0.193629
     50          6           0        7.386153   -0.268141   -1.012102
     51          6           0        8.733209   -0.256286   -0.193069
     52          6           0       10.072120   -0.651316   -1.007820
     53          6           0        9.994297   -2.081471   -1.631496
     54          6           0       11.285075   -0.463344   -0.168165
     55          6           0       12.651793   -0.515038   -0.850947
     56          6           0       13.784951   -0.027360    0.087358
     57          6           0       15.223035   -0.078020   -0.443272
     58          6           0       15.625565   -1.488248   -0.700720
     59          6           0       16.191353    0.695856    0.503354
     60          6           0       17.600926    0.776693   -0.033102
     61          6           0       18.600528    1.459467    0.829365
     62          6           0       20.097121    1.592429    0.367093
     63          6           0       20.178311    2.341852   -1.009062
     64          6           0       21.007461    2.233493    1.329854
     65          1           0       -3.907727    3.317924    1.611547
     66          1           0       -9.765199    4.474369   -0.293393
     67          1           0      -10.602556   -1.965830   -1.111344
     68          1           0       -2.943892   -1.453425    1.908475
     69          1           0       -1.979599    1.334574    1.428823
     70          1           0       -2.075667    0.333554    3.704243
     71          1           0       -2.804107    1.942359    3.881841
     72          1           0       -3.787368    0.387495    3.715385
     73          1           0       -2.161270   -2.066123   -0.394403
     74          1           0       -2.442649   -0.162093   -0.822769
     75          1           0       -0.445865    0.133917    0.691325
     76          1           0       -0.373849   -1.450363    1.577016
     77          1           0       -3.981007    5.596818    1.033348
     78          1           0       -5.279351    6.827409    1.416420
     79          1           0       -4.852638    5.820705    2.662078
     80          1           0       -7.218121    7.249389    0.837573
     81          1           0       -9.466584    5.919392   -1.185221
     82          1           0       -9.240066    7.792760   -0.725907
     83          1           0      -12.098002    3.708614   -0.272463
     84          1           0      -11.918806    3.856342   -2.037538
     85          1           0      -13.163381    2.725611   -1.197438
     86          1           0      -12.665826   -1.135165   -1.043004
     87          1           0      -13.719070    0.487807   -1.232577
     88          1           0      -12.712102    0.785633   -3.459117
     89          1           0      -11.511427   -0.730861   -3.301159
     90          1           0      -13.635869   -0.850064   -3.247245
     91          1           0      -10.357821   -4.350127   -0.830070
     92          1           0       -9.222395   -4.336888   -2.258749
     93          1           0       -8.866176   -5.478542   -0.633963
     94          1           0       -3.841085   -3.456365   -0.419749
     95          1           0       -1.778653   -6.135351    2.562183
     96          1           0       -2.443478   -4.804002    3.349910
     97          1           0       -3.372549   -6.221486    3.153974
     98          1           0        2.591617   -2.292292   -1.434958
     99          1           0        2.346403   -0.674146   -2.104769
    100          1           0        4.139732   -1.477729    0.499392
    101          1           0        4.870920    1.976615   -2.114248
    102          1           0        5.451942    0.341028   -2.863770
    103          1           0        3.885887    0.548702   -2.924906
    104          1           0        6.199298    1.297739    0.137258
    105          1           0        6.135583   -0.227738    0.760443
    106          1           0        6.844577   -1.260954   -1.426024
    107          1           0        7.309822    0.374324   -1.975171
    108          1           0        8.786367    0.759198    0.356628
    109          1           0        8.372311   -0.937247    0.586204
    110          1           0        9.873136    0.135933   -1.842841
    111          1           0        9.195485   -2.300417   -2.297319
    112          1           0       10.900594   -2.227218   -2.274910
    113          1           0       10.013488   -2.761246   -0.698510
    114          1           0       11.371399    0.602579    0.129432
    115          1           0       11.053700   -1.200231    0.567186
    116          1           0       13.022960   -1.572307   -1.127977
    117          1           0       12.792779    0.067011   -1.737630
    118          1           0       13.458305    1.113719    0.179968
    119          1           0       13.599028   -0.506905    1.072009
    120          1           0       15.248474    0.663404   -1.348071
    121          1           0       15.003563   -1.832942   -1.437846
    122          1           0       16.606479   -1.734474   -1.096580
    123          1           0       15.677413   -2.101382    0.247849
    124          1           0       15.840450    1.642340    0.753497
    125          1           0       16.230977    0.283624    1.578432
    126          1           0       17.947360   -0.271233   -0.193632
    127          1           0       17.379353    1.198752   -1.148971
    128          1           0       18.420573    2.517393    0.860627
    129          1           0       18.675666    1.053898    1.765087
    130          1           0       20.362152    0.475940    0.000580
    131          1           0       20.031311    3.580107   -0.685389
    132          1           0       21.390242    2.318794   -1.230113
    133          1           0       19.578967    2.017855   -1.816711
    134          1           0       21.005885    1.669166    2.282301
    135          1           0       22.010245    1.952358    1.028724
    136          1           0       20.764538    3.180367    1.629047
    137          1           0       -7.037538    1.768302    0.170418
    138          1           0       -7.634681   -0.342772   -0.198915
 ---------------------------------------------------------------------

 SCF Done:  E(RB3LYP) =  -2733.06992792     A.U. after   17 cycles

 Excitation energies and oscillator strengths:

 Excited State   1:      Singlet-A      1.9762 eV  627.40 nm  f=0.2226  <S**2>=0.000
     235 -> 237       -0.13947
     235 -> 238       -0.21670
     236 -> 237        0.64071
     236 -> 238       -0.15814
 This state for optimization and/or second-order correction.
 Total Energy, E(TD-HF/TD-DFT) =  -2732.99730545
 Copying the excited state density for this state as the 1-particle RhoCI density.

 The electronic state is 1-A.
 Alpha  occ. eigenvalues --  -19.17356 -19.16635 -19.13692 -19.11812 -19.11714
 Alpha  occ. eigenvalues --  -14.36688 -14.36521 -14.31941 -14.30663 -10.31677
 Alpha  occ. eigenvalues --  -10.30118 -10.28847 -10.25039 -10.24289 -10.23735
 Alpha  occ. eigenvalues --  -10.23363 -10.23081 -10.22831 -10.22747 -10.22506
 Alpha  occ. eigenvalues --  -10.22433 -10.22092 -10.21968 -10.21893 -10.21644
 Alpha  occ. eigenvalues --  -10.21533 -10.21487 -10.21400 -10.21369 -10.21347
 Alpha  occ. eigenvalues --  -10.21239 -10.21117 -10.21086 -10.20932 -10.20887
 Alpha  occ. eigenvalues --  -10.20548 -10.20438 -10.20419 -10.20220 -10.20132
 Alpha  occ. eigenvalues --  -10.20102 -10.19996 -10.19828 -10.19798 -10.19608
 Alpha  occ. eigenvalues --  -10.19550 -10.19538 -10.19506 -10.19181 -10.18949
 Alpha  occ. eigenvalues --  -10.18846 -10.18711 -10.18614 -10.18594 -10.18445
 Alpha  occ. eigenvalues --  -10.18426 -10.18412 -10.18376 -10.18366 -10.18327
 Alpha  occ. eigenvalues --  -10.17520 -10.17316 -10.17234 -10.16809  -1.12918
 Alpha  occ. eigenvalues --   -1.10799  -1.06445  -1.03534  -0.99778  -0.99574
 Alpha  occ. eigenvalues --   -0.96397  -0.95424  -0.94722  -0.85150  -0.82519
 Alpha  occ. eigenvalues --   -0.82459  -0.81872  -0.81238  -0.81003  -0.80822
 Alpha  occ. eigenvalues --   -0.80222  -0.80028  -0.79896  -0.78848  -0.77882
 Alpha  occ. eigenvalues --   -0.77022  -0.76473  -0.76191  -0.75146  -0.74745
 Alpha  occ. eigenvalues --   -0.74083  -0.73576  -0.72924  -0.72202  -0.70494
 Alpha  occ. eigenvalues --   -0.70235  -0.69754  -0.68486  -0.68314  -0.68114
 Alpha  occ. eigenvalues --   -0.67801  -0.67296  -0.66499  -0.65958  -0.65600
 Alpha  occ. eigenvalues --   -0.64616  -0.63619  -0.62226  -0.61925  -0.60923
 Alpha  occ. eigenvalues --   -0.59640  -0.58766  -0.58263  -0.57995  -0.57539
 Alpha  occ. eigenvalues --   -0.57078  -0.56887  -0.56081  -0.55380  -0.55279
 Alpha  occ. eigenvalues --   -0.54919  -0.54758  -0.53743  -0.53599  -0.52928
 Alpha  occ. eigenvalues --   -0.52478  -0.52199  -0.51868  -0.51479  -0.50969
 Alpha  occ. eigenvalues --   -0.50727  -0.49950  -0.49652  -0.49124  -0.48665
 Alpha  occ. eigenvalues --   -0.48182  -0.48087  -0.48029  -0.47662  -0.47168
 Alpha  occ. eigenvalues --   -0.47155  -0.46670  -0.46355  -0.46209  -0.45997
 Alpha  occ. eigenvalues --   -0.45787  -0.45496  -0.45229  -0.45188  -0.44744
 Alpha  occ. eigenvalues --   -0.44668  -0.44491  -0.44449  -0.43819  -0.43782
 Alpha  occ. eigenvalues --   -0.43506  -0.43437  -0.43049  -0.42867  -0.42780
 Alpha  occ. eigenvalues --   -0.42642  -0.42571  -0.42323  -0.42117  -0.41729
 Alpha  occ. eigenvalues --   -0.41314  -0.41262  -0.41138  -0.40706  -0.40596
 Alpha  occ. eigenvalues --   -0.40497  -0.40334  -0.39852  -0.39535  -0.39477
 Alpha  occ. eigenvalues --   -0.39198  -0.39178  -0.38981  -0.38866  -0.38570
 Alpha  occ. eigenvalues --   -0.38486  -0.38331  -0.38226  -0.37868  -0.37612
 Alpha  occ. eigenvalues --   -0.37431  -0.37305  -0.37226  -0.37062  -0.36671
 Alpha  occ. eigenvalues --   -0.36565  -0.36392  -0.35924  -0.35854  -0.35731
 Alpha  occ. eigenvalues --   -0.35693  -0.35412  -0.35097  -0.34792  -0.34742
 Alpha  occ. eigenvalues --   -0.34357  -0.33928  -0.33784  -0.33729  -0.33537
 Alpha  occ. eigenvalues --   -0.33106  -0.32863  -0.32665  -0.32482  -0.32421
 Alpha  occ. eigenvalues --   -0.31830  -0.31655  -0.31354  -0.31189  -0.30982
 Alpha  occ. eigenvalues --   -0.30805  -0.30525  -0.30472  -0.30088  -0.29674
 Alpha  occ. eigenvalues --   -0.29613  -0.29525  -0.28442  -0.28346  -0.28216
 Alpha  occ. eigenvalues --   -0.27623  -0.27045  -0.26516  -0.26035  -0.25850
 Alpha  occ. eigenvalues --   -0.25516  -0.25400  -0.24383  -0.23419  -0.20800
 Alpha  occ. eigenvalues --   -0.18266
 Alpha virt. eigenvalues --   -0.10590  -0.07729  -0.04183  -0.01600  -0.00229
 Alpha virt. eigenvalues --    0.00475   0.00842   0.01716   0.02620   0.03436
 Alpha virt. eigenvalues --    0.04106   0.04166   0.04454   0.04645   0.04872

 Mulliken charges:
               1
     1  C    0.014872
     2  C    0.024377
     3  C   -0.120898
     4  C   -0.007082
     5  N   -0.110290
     6  C   -0.113127
     7  C    0.116343
     8  C   -0.132222
     9  C   -0.030721
    10  C    0.105666
    11  C   -0.058991
    12  C   -0.016830
    13  C    0.128435
    14  O   -0.164319
    15  O   -0.260424
    16  N   -0.127460
    17  C    0.100046
    18  C   -0.072416
    19  C    0.049122
    20  C    0.032048
    21  C    0.017931
    22  C   -0.009159
    23  C   -0.130233
    24  N   -0.163490
    25  C    0.119009
    26  C   -0.155365
    27  C   -0.074857
    28  C    0.011847
    29  C    0.161169
    30  C   -0.041890
    31  C   -0.077212
    32  N    0.052233
    33  C    0.050251
    34  C   -0.110876
    35  C   -0.100649
    36  C    0.109217
    37  C    0.012839
    38  C    0.094260
    39  O   -0.096203
    40  C   -0.059678
    41  C    0.219676
    42  O   -0.256631
    43  O   -0.250881
    44  C    0.217952
    45  C    0.228650
    46  C   -0.080205
    47  C   -0.170352
    48  C    0.088911
    49  C    0.095160
    50  C   -0.072427
    51  C    0.032036
    52  C   -0.092627
    53  C    0.033550
    54  C    0.106239
    55  C    0.031596
    56  C   -0.051625
    57  C   -0.057813
    58  C    0.095738
    59  C    0.044018
    60  C    0.000186
    61  C    0.132520
    62  C   -0.173167
    63  C   -0.044531
    64  C    0.136260
    65  H   -0.083630
    66  H    0.010068
    67  H   -0.091109
    68  H   -0.056214
    69  H    0.021854
    70  H   -0.011824
    71  H    0.033569
    72  H    0.018968
    73  H    0.045599
    74  H    0.040630
    75  H    0.017645
    76  H    0.057074
    77  H    0.051011
    78  H    0.000275
    79  H    0.025863
    80  H    0.026986
    81  H    0.057293
    82  H    0.045239
    83  H   -0.013145
    84  H    0.027976
    85  H    0.002088
    86  H    0.011819
    87  H    0.041000
    88  H    0.011307
    89  H    0.052979
    90  H    0.038345
    91  H    0.044483
    92  H    0.055109
    93  H    0.074302
    94  H    0.057812
    95  H    0.010382
    96  H   -0.006647
    97  H    0.001146
    98  H    0.008942
    99  H    0.016023
   100  H    0.011081
   101  H    0.037793
   102  H   -0.004101
   103  H   -0.010031
   104  H   -0.001351
   105  H   -0.030382
   106  H    0.026130
   107  H    0.014474
   108  H    0.014832
   109  H   -0.009344
   110  H   -0.003329
   111  H    0.008194
   112  H    0.017398
   113  H    0.013857
   114  H   -0.005157
   115  H   -0.008012
   116  H    0.000601
   117  H   -0.017398
   118  H   -0.003258
   119  H    0.000379
   120  H   -0.000357
   121  H   -0.015141
   122  H   -0.004799
   123  H    0.010599
   124  H   -0.040225
   125  H   -0.024424
   126  H   -0.007975
   127  H    0.002519
   128  H   -0.029686
   129  H   -0.032279
   130  H   -0.003793
   131  H    0.007991
   132  H    0.019694
   133  H    0.025618
   134  H   -0.016592
   135  H    0.005249
   136  H   -0.005684
   137  H    0.158082
   138  H    0.078096
 Sum of Mulliken charges =  -0.00000

 Dipole moment (field-independent basis, Debye):
    X=              2.6380    Y=              3.5470    Z=             -0.0279  Tot=              4.4205
 Quadrupole moment (field-independent basis, Debye-Ang):
   XX=           -348.9240   YY=           -380.3462   ZZ=           -399.3853
   XY=            -28.4225   XZ=             19.6570   YZ=              3.4929

 Normal termination of Gaussian 16 at Wed Aug 21 06:23:23 2019.
