 Gaussian 16, Revision A.03,
 Gaussian 16:  ES64L-G16RevA.03 25-Dec-2016

 --------------------------
 # td=(NStates=1) B3LYP/SVP
 --------------------------

 --
 TD
 --
 Symbolic Z-matrix:
 Charge =  0 Multiplicity = 1

                         Standard orientation:
 ---------------------------------------------------------------------
 Center     Atomic      Atomic             Coordinates (Angstroms)
 Number     Number       Type             X           Y           Z
 ---------------------------------------------------------------------
      1          6           0       -5.120354   -1.923463    0.482897
      2          6           0       -4.820929    2.725302    1.413997
      3          6           0       -9.391616    3.331762   -0.390555
      4          6           0       -9.837096   -1.431031   -1.021848
      5          7           0       -5.244209    0.500191    0.757771
      6          6           0       -4.538977   -0.658873    0.950962
      7          6           0       -3.168699   -0.519676    1.403041
      8          6           0       -3.153552    0.849788    1.942862
      9          6           0       -4.441975    1.410425    1.340616
     10          6           0       -3.011268    0.943014    3.475284
     11          6           0       -2.123569   -0.784777    0.207593
     12          6           0       -0.587855   -0.796438    0.721366
     13          6           0        0.451130   -1.132763   -0.471671
     14          8           0        0.158868   -1.479821   -1.560134
     15          8           0        1.662411   -0.997539    0.046048
     16          7           0       -7.070101    2.900891    0.411462
     17          6           0       -5.936649    3.378445    0.983379
     18          6           0       -6.339272    4.791066    1.010917
     19          6           0       -7.552770    5.007324    0.582443
     20          6           0       -8.057352    3.703418    0.121409
     21          6           0       -5.426789    5.883594    1.510886
     22          6           0       -8.148653    6.272687    0.481434
     23          6           0       -9.141879    6.639000   -0.463345
     24          7           0       -9.191915    0.831245   -0.580557
     25          6           0       -9.830261    2.086598   -0.670306
     26          6           0      -11.250706    1.931350   -1.057876
     27          6           0      -11.364700    0.658146   -1.296829
     28          6           0      -10.095032   -0.061695   -0.935828
     29          6           0      -12.203444    2.983069   -1.246602
     30          6           0      -12.631706   -0.102196   -1.606200
     31          6           0      -12.705757   -0.516779   -3.117796
     32          7           0       -7.496817   -1.169770   -0.129018
     33          6           0       -8.602247   -1.988191   -0.586765
     34          6           0       -8.187345   -3.408044   -0.572124
     35          6           0       -6.846379   -3.399817   -0.074950
     36          6           0       -6.455841   -1.988277    0.074757
     37          6           0       -9.032043   -4.642977   -1.075074
     38          6           0       -5.710655   -4.324651    0.137983
     39          8           0       -5.485389   -5.479519    0.035006
     40          6           0       -4.539418   -3.362190    0.422687
     41          6           0       -3.889509   -3.843576    1.718434
     42          8           0       -4.146128   -3.472252    2.821022
     43          8           0       -3.066974   -4.913644    1.384194
     44          6           0       -2.543733   -5.701054    2.621331
     45          6           0        2.610581   -1.362518   -0.872287
     46          6           0        4.039752   -0.795336   -0.446511
     47          6           0        4.914386   -0.166608   -1.161428
     48          6           0        4.825365    0.405991   -2.569166
     49          6           0        6.289857    0.272685   -0.492224
     50          6           0        7.548559   -0.441515   -0.973882
     51          6           0        8.787023   -0.032599   -0.221877
     52          6           0       10.073745   -0.642767   -0.872524
     53          6           0       10.081895   -2.108872   -1.067943
     54          6           0       11.289132   -0.171133   -0.070867
     55          6           0       12.681470   -0.489528   -0.741312
     56          6           0       13.846359    0.163531    0.053661
     57          6           0       15.231400   -0.093361   -0.526055
     58          6           0       15.524394   -1.554031   -0.752151
     59          6           0       16.383843    0.496578    0.485755
     60          6           0       17.644111    0.848994   -0.258747
     61          6           0       18.752410    1.518379    0.762896
     62          6           0       20.165435    1.654412    0.268004
     63          6           0       20.322582    2.389065   -1.064550
     64          6           0       21.115585    2.221462    1.290609
     65          1           0       -4.343179    3.650760    2.020752
     66          1           0      -10.209338    4.027775   -0.700693
     67          1           0      -10.598936   -2.045351   -1.296821
     68          1           0       -3.017412   -1.301360    2.162760
     69          1           0       -2.521685    1.535065    1.461919
     70          1           0       -2.102899    0.605105    3.736182
     71          1           0       -3.318232    2.015250    3.917092
     72          1           0       -4.075032    0.425967    3.542114
     73          1           0       -2.403299   -1.757210   -0.309886
     74          1           0       -2.351596   -0.101473   -0.538199
     75          1           0       -0.321242    0.149360    1.284400
     76          1           0       -0.401908   -1.623135    1.388320
     77          1           0       -4.240825    5.380722    1.236758
     78          1           0       -5.657485    6.864655    0.966732
     79          1           0       -5.494565    5.876594    2.704147
     80          1           0       -7.809768    7.143209    1.175980
     81          1           0       -9.643482    6.088264   -1.234334
     82          1           0       -9.580572    7.738481   -0.687837
     83          1           0      -12.792092    3.333407   -0.159262
     84          1           0      -11.688059    3.891214   -1.645696
     85          1           0      -13.074005    2.534611   -2.361788
     86          1           0      -12.663210   -1.103703   -1.011063
     87          1           0      -13.513789    0.519049   -1.500814
     88          1           0      -12.957837    0.460262   -3.641576
     89          1           0      -11.658130   -0.804188   -3.423796
     90          1           0      -13.505950   -1.231126   -3.457421
     91          1           0       -9.820489   -5.160409   -0.295405
     92          1           0       -9.560254   -4.314667   -2.107055
     93          1           0       -8.269674   -5.472040   -1.251781
     94          1           0       -3.975161   -3.474381   -0.528243
     95          1           0       -2.084496   -6.592516    2.374820
     96          1           0       -2.102599   -4.931392    3.273977
     97          1           0       -3.445650   -5.966721    3.216656
     98          1           0        2.653932   -2.453916   -1.012242
     99          1           0        2.093560   -1.268284   -1.951764
    100          1           0        4.208576   -1.080734    0.526528
    101          1           0        4.976616    1.598330   -2.563707
    102          1           0        5.603609   -0.172609   -3.094846
    103          1           0        3.941515    0.299312   -3.002623
    104          1           0        6.417454    1.375955   -0.454601
    105          1           0        6.223121   -0.017065    0.532286
    106          1           0        7.298033   -1.418699   -1.058294
    107          1           0        8.003401   -0.401128   -2.176459
    108          1           0        9.002998    1.245592   -0.475350
    109          1           0        8.957823   -0.207054    0.891136
    110          1           0       10.281865   -0.364334   -1.949639
    111          1           0        9.369833   -2.370249   -1.946043
    112          1           0       11.107299   -2.291775   -1.313057
    113          1           0        9.666029   -2.564739   -0.071935
    114          1           0       11.129678    0.955576   -0.046827
    115          1           0       11.243089   -0.525779    0.877333
    116          1           0       12.723787   -1.638266   -0.590836
    117          1           0       12.582214   -0.139363   -1.696494
    118          1           0       13.669445    1.231085   -0.037100
    119          1           0       13.957887   -0.104690    1.201531
    120          1           0       15.472793    0.535731   -1.393926
    121          1           0       14.653209   -2.094060   -1.302562
    122          1           0       16.528787   -1.813660   -1.464841
    123          1           0       15.610007   -1.911005    0.149134
    124          1           0       15.885353    1.526774    0.772158
    125          1           0       16.511865   -0.237985    1.460006
    126          1           0       18.170392   -0.054402   -0.818091
    127          1           0       17.565692    1.602260   -1.195687
    128          1           0       18.572048    2.608173    1.158184
    129          1           0       18.738372    0.853267    1.712714
    130          1           0       20.390249    0.480894   -0.037170
    131          1           0       19.995049    3.576533   -1.048042
    132          1           0       21.424945    2.319225   -1.560567
    133          1           0       19.524413    2.194604   -1.867710
    134          1           0       21.185014    1.804961    2.237443
    135          1           0       22.378412    2.221394    0.894909
    136          1           0       20.769158    3.333627    1.478010
    137          1           0       -7.071069    1.804668    0.249916
    138          1           0       -7.520503   -0.222042   -0.063954
 ---------------------------------------------------------------------

 SCF Done:  E(RB3LYP) =  -2732.92448662     A.U. after   16 cycles

 Excitation energies and oscillator strengths:

 Excited State   1:      Singlet-A      1.9398 eV  639.17 nm  f=0.2373  <S**2>=0.000
     235 -> 238       -0.23927
     236 -> 237        0.66306
 This state for optimization and/or second-order correction.
 Total Energy, E(TD-HF/TD-DFT) =  -2732.85320145
 Copying the excited state density for this state as the 1-particle RhoCI density.

 The electronic state is 1-A.
 Alpha  occ. eigenvalues --  -19.19341 -19.17052 -19.14090 -19.13329 -19.12751
 Alpha  occ. eigenvalues --  -14.37770 -14.37076 -14.33588 -14.30013 -10.32432
 Alpha  occ. eigenvalues --  -10.31780 -10.28034 -10.24892 -10.24655 -10.24616
 Alpha  occ. eigenvalues --  -10.24165 -10.23784 -10.23674 -10.23531 -10.23097
 Alpha  occ. eigenvalues --  -10.22928 -10.22892 -10.22722 -10.22291 -10.21725
 Alpha  occ. eigenvalues --  -10.21663 -10.21268 -10.21213 -10.21099 -10.20933
 Alpha  occ. eigenvalues --  -10.20861 -10.20769 -10.20733 -10.20550 -10.20493
 Alpha  occ. eigenvalues --  -10.20314 -10.20294 -10.20156 -10.20154 -10.20141
 Alpha  occ. eigenvalues --  -10.20096 -10.20008 -10.19927 -10.19868 -10.19774
 Alpha  occ. eigenvalues --  -10.19631 -10.19605 -10.19475 -10.19307 -10.19134
 Alpha  occ. eigenvalues --  -10.19069 -10.19029 -10.18873 -10.18870 -10.18843
 Alpha  occ. eigenvalues --  -10.18769 -10.18726 -10.18632 -10.18333 -10.18225
 Alpha  occ. eigenvalues --  -10.18078 -10.17860 -10.17709 -10.17305  -1.13345
 Alpha  occ. eigenvalues --   -1.07870  -1.05071  -1.04211  -1.00222  -0.99588
 Alpha  occ. eigenvalues --   -0.97769  -0.96221  -0.93720  -0.84498  -0.82713
 Alpha  occ. eigenvalues --   -0.82446  -0.81863  -0.81575  -0.81433  -0.80763
 Alpha  occ. eigenvalues --   -0.80695  -0.79782  -0.79604  -0.78945  -0.77550
 Alpha  occ. eigenvalues --   -0.76486  -0.75780  -0.75311  -0.74300  -0.73609
 Alpha  occ. eigenvalues --   -0.73464  -0.72827  -0.71926  -0.71613  -0.69749
 Alpha  occ. eigenvalues --   -0.69373  -0.69242  -0.68269  -0.67921  -0.67381
 Alpha  occ. eigenvalues --   -0.67183  -0.66474  -0.66234  -0.66099  -0.65436
 Alpha  occ. eigenvalues --   -0.64537  -0.63221  -0.62727  -0.62140  -0.61714
 Alpha  occ. eigenvalues --   -0.60557  -0.58955  -0.58693  -0.58456  -0.58025
 Alpha  occ. eigenvalues --   -0.57654  -0.56633  -0.56027  -0.54992  -0.54863
 Alpha  occ. eigenvalues --   -0.54321  -0.54191  -0.53990  -0.53673  -0.53127
 Alpha  occ. eigenvalues --   -0.52474  -0.51979  -0.51646  -0.51444  -0.51058
 Alpha  occ. eigenvalues --   -0.50585  -0.49371  -0.49058  -0.48979  -0.48306
 Alpha  occ. eigenvalues --   -0.47990  -0.47812  -0.47692  -0.47497  -0.46899
 Alpha  occ. eigenvalues --   -0.46748  -0.46640  -0.46451  -0.45733  -0.45688
 Alpha  occ. eigenvalues --   -0.45529  -0.45212  -0.45076  -0.44988  -0.44737
 Alpha  occ. eigenvalues --   -0.44346  -0.44252  -0.44202  -0.44018  -0.43721
 Alpha  occ. eigenvalues --   -0.43440  -0.43386  -0.43290  -0.42886  -0.42704
 Alpha  occ. eigenvalues --   -0.42314  -0.41815  -0.41668  -0.41448  -0.41171
 Alpha  occ. eigenvalues --   -0.41035  -0.40951  -0.40608  -0.40194  -0.40125
 Alpha  occ. eigenvalues --   -0.40104  -0.39718  -0.39549  -0.39453  -0.39365
 Alpha  occ. eigenvalues --   -0.39270  -0.39029  -0.38909  -0.38466  -0.38438
 Alpha  occ. eigenvalues --   -0.38132  -0.37997  -0.37881  -0.37702  -0.37521
 Alpha  occ. eigenvalues --   -0.37425  -0.37173  -0.37002  -0.36634  -0.36466
 Alpha  occ. eigenvalues --   -0.36282  -0.36223  -0.35968  -0.35836  -0.35532
 Alpha  occ. eigenvalues --   -0.35443  -0.35347  -0.34817  -0.34773  -0.34521
 Alpha  occ. eigenvalues --   -0.34378  -0.34289  -0.34078  -0.33954  -0.33678
 Alpha  occ. eigenvalues --   -0.33662  -0.33061  -0.32809  -0.32402  -0.32245
 Alpha  occ. eigenvalues --   -0.32227  -0.32207  -0.31740  -0.31316  -0.31077
 Alpha  occ. eigenvalues --   -0.30942  -0.30603  -0.30443  -0.30300  -0.30122
 Alpha  occ. eigenvalues --   -0.29728  -0.29392  -0.29048  -0.28809  -0.28288
 Alpha  occ. eigenvalues --   -0.28204  -0.27872  -0.26885  -0.26720  -0.26430
 Alpha  occ. eigenvalues --   -0.26221  -0.25217  -0.23554  -0.23134  -0.20131
 Alpha  occ. eigenvalues --   -0.18265
 Alpha virt. eigenvalues --   -0.10433  -0.07192  -0.04683  -0.02655  -0.00554
 Alpha virt. eigenvalues --    0.00303   0.00481   0.00928   0.01449   0.01708
 Alpha virt. eigenvalues --    0.02744   0.03378   0.03718   0.04213   0.04293

 Mulliken charges:
               1
     1  C   -0.051729
     2  C   -0.061158
     3  C   -0.084704
     4  C   -0.027951
     5  N   -0.176675
     6  C   -0.063507
     7  C   -0.017396
     8  C    0.081873
     9  C   -0.040848
    10  C    0.057192
    11  C    0.077582
    12  C    0.012282
    13  C    0.159510
    14  O   -0.195177
    15  O   -0.241818
    16  N   -0.037005
    17  C   -0.016291
    18  C   -0.118426
    19  C    0.109581
    20  C    0.063520
    21  C   -0.037560
    22  C   -0.095381
    23  C   -0.101414
    24  N   -0.233081
    25  C    0.067092
    26  C   -0.065732
    27  C   -0.071662
    28  C    0.042576
    29  C   -0.070797
    30  C    0.044664
    31  C   -0.042017
    32  N    0.009851
    33  C    0.108170
    34  C   -0.107028
    35  C   -0.078922
    36  C    0.095272
    37  C   -0.013969
    38  C    0.052771
    39  O   -0.119169
    40  C   -0.034875
    41  C    0.224408
    42  O   -0.202795
    43  O   -0.361863
    44  C    0.213683
    45  C    0.127596
    46  C   -0.013905
    47  C   -0.140513
    48  C    0.142760
    49  C    0.104559
    50  C    0.010931
    51  C   -0.008517
    52  C   -0.130300
    53  C    0.029947
    54  C    0.036468
    55  C    0.035171
    56  C    0.035006
    57  C   -0.072293
    58  C    0.048916
    59  C   -0.033916
    60  C   -0.041579
    61  C   -0.020344
    62  C   -0.074750
    63  C   -0.060264
    64  C    0.004447
    65  H    0.010597
    66  H   -0.037458
    67  H   -0.068813
    68  H    0.003810
    69  H   -0.029169
    70  H    0.008122
    71  H    0.030793
    72  H    0.045336
    73  H    0.021363
    74  H   -0.011201
    75  H    0.042199
    76  H    0.024868
    77  H    0.043647
    78  H    0.057030
    79  H    0.058352
    80  H    0.032924
    81  H    0.016260
    82  H    0.036155
    83  H    0.068621
    84  H    0.049082
    85  H    0.038746
    86  H    0.023683
    87  H   -0.001104
    88  H    0.003292
    89  H    0.023653
    90  H    0.026604
    91  H    0.066851
    92  H    0.056898
    93  H    0.054031
    94  H    0.070788
    95  H    0.035234
    96  H    0.036799
    97  H    0.029750
    98  H    0.006753
    99  H    0.046716
   100  H   -0.033780
   101  H    0.036062
   102  H    0.025551
   103  H   -0.035759
   104  H    0.005483
   105  H   -0.022704
   106  H   -0.025799
   107  H    0.007082
   108  H    0.021300
   109  H    0.018469
   110  H   -0.016397
   111  H    0.015707
   112  H   -0.000438
   113  H    0.006769
   114  H   -0.012788
   115  H   -0.037747
   116  H    0.040217
   117  H   -0.021377
   118  H   -0.009697
   119  H    0.013114
   120  H   -0.017675
   121  H    0.021875
   122  H    0.027738
   123  H   -0.040253
   124  H    0.014160
   125  H    0.032921
   126  H    0.016472
   127  H    0.028757
   128  H    0.001620
   129  H    0.009984
   130  H    0.007010
   131  H    0.002192
   132  H    0.041639
   133  H    0.014528
   134  H   -0.002081
   135  H    0.025043
   136  H    0.020519
   137  H    0.191152
   138  H    0.079422
 Sum of Mulliken charges =  -0.00000

 Dipole moment (field-independent basis, Debye):
    X=              1.7872    Y=              1.9951    Z=              1.0174  Tot=              2.8653
 Quadrupole moment (field-independent basis, Debye-Ang):
   XX=           -390.8501   YY=           -387.7808   ZZ=           -395.2950
   XY=            -17.8390   XZ=             10.5681   YZ=             -3.4630

 Normal termination of Gaussian 16 at Mon Aug 12 13:10:45 2019.
