 Gaussian 16, Revision A.03,
 Gaussian 16:  ES64L-G16RevA.03 25-Dec-2016

 --------------------------
 # td=(NStates=1) B3LYP/SVP
 --------------------------

 --
 TD
 --
 Symbolic Z-matrix:
 Charge =  0 Multiplicity = 1

                         Standard orientation:
 ---------------------------------------------------------------------
 Center     Atomic      Atomic             Coordinates (Angstroms)
 Number     Number       Type             X           Y           Z
 ---------------------------------------------------------------------
      1          6           0       -5.071534   -1.904805    0.354564
      2          6           0       -4.714891    2.745169    1.492253
      3          6           0       -9.516033    3.225298   -0.043837
      4          6           0       -9.752018   -1.525720   -1.017120
      5          7           0       -5.212286    0.439477    0.847782
      6          6           0       -4.451483   -0.695521    0.730947
      7          6           0       -3.124885   -0.520820    1.201759
      8          6           0       -3.029387    1.005639    1.676984
      9          6           0       -4.422470    1.406378    1.226500
     10          6           0       -3.033380    0.966991    3.190955
     11          6           0       -2.016876   -0.810586    0.081918
     12          6           0       -0.617327   -0.703591    0.567785
     13          6           0        0.403990   -0.975706   -0.538847
     14          8           0        0.128945   -1.414083   -1.622302
     15          8           0        1.650606   -0.794056   -0.181308
     16          7           0       -7.082849    2.699357    0.466349
     17          6           0       -6.056209    3.314878    1.001894
     18          6           0       -6.347691    4.782677    1.123592
     19          6           0       -7.642572    4.857162    0.523318
     20          6           0       -8.180562    3.642908    0.286289
     21          6           0       -5.454034    5.823620    1.591214
     22          6           0       -8.351583    6.247044    0.384458
     23          6           0       -9.250271    6.560526   -0.506155
     24          7           0       -9.258762    0.766236   -0.508702
     25          6           0       -9.900800    1.906374   -0.408083
     26          6           0      -11.242276    1.738314   -1.024059
     27          6           0      -11.436604    0.451351   -1.288681
     28          6           0      -10.004110   -0.231909   -0.939335
     29          6           0      -12.264021    2.871891   -1.230039
     30          6           0      -12.612894   -0.337034   -1.870912
     31          6           0      -12.432772   -0.568826   -3.346187
     32          7           0       -7.421612   -1.224461   -0.404689
     33          6           0       -8.545443   -2.135990   -0.732702
     34          6           0       -8.163075   -3.384598   -0.665391
     35          6           0       -6.781937   -3.363608   -0.303232
     36          6           0       -6.356212   -2.018373   -0.159346
     37          6           0       -8.886269   -4.698054   -1.018673
     38          6           0       -5.648338   -4.292651    0.025280
     39          8           0       -5.482144   -5.479626   -0.111412
     40          6           0       -4.528975   -3.326158    0.369726
     41          6           0       -4.007379   -3.742325    1.773095
     42          8           0       -4.367811   -3.399773    2.902541
     43          8           0       -3.035042   -4.707558    1.710446
     44          6           0       -2.493115   -5.244133    2.961630
     45          6           0        2.839311   -0.923843   -1.151039
     46          6           0        3.958710   -0.674884   -0.406823
     47          6           0        4.987035    0.206362   -0.957663
     48          6           0        4.882428    0.982934   -2.233741
     49          6           0        6.306578    0.428233   -0.096769
     50          6           0        7.534658   -0.268952   -0.755319
     51          6           0        8.829258   -0.119146    0.093478
     52          6           0       10.021903   -0.615906   -0.569073
     53          6           0        9.921112   -2.155739   -0.722074
     54          6           0       11.332804   -0.328244    0.187332
     55          6           0       12.594832   -0.662310   -0.462823
     56          6           0       13.861873   -0.085225    0.255113
     57          6           0       15.134165   -0.261838   -0.350311
     58          6           0       15.714861   -1.766041   -0.459796
     59          6           0       16.258612    0.607378    0.427327
     60          6           0       17.704756    0.611924   -0.203361
     61          6           0       18.624944    1.623909    0.376326
     62          6           0       20.136201    1.634669   -0.073259
     63          6           0       20.297211    1.940168   -1.596930
     64          6           0       20.987531    2.527302    0.815640
     65          1           0       -4.018094    3.401946    2.036348
     66          1           0      -10.326359    3.849481   -0.094784
     67          1           0      -10.405919   -2.148231   -1.545511
     68          1           0       -2.922121   -1.313797    1.927794
     69          1           0       -2.378316    1.538255    1.375554
     70          1           0       -2.120166    0.378171    3.248117
     71          1           0       -2.975541    2.172453    3.462784
     72          1           0       -3.811096    0.290992    3.634520
     73          1           0       -2.173820   -1.770747   -0.372478
     74          1           0       -2.151873    0.128089   -0.539695
     75          1           0       -0.352004    0.327567    1.153916
     76          1           0       -0.310293   -1.573227    1.288819
     77          1           0       -4.666805    5.900734    0.908198
     78          1           0       -6.006438    6.969463    1.733720
     79          1           0       -5.111278    5.648188    2.653396
     80          1           0       -8.041121    6.836677    1.335980
     81          1           0       -9.682818    5.997901   -1.238081
     82          1           0       -9.578074    7.507117   -0.588404
     83          1           0      -12.698310    3.280492   -0.255407
     84          1           0      -11.715722    3.912423   -1.553119
     85          1           0      -13.012092    2.634269   -2.254406
     86          1           0      -12.784501   -1.297668   -1.063673
     87          1           0      -13.460331    0.286699   -1.709873
     88          1           0      -12.390584    0.267728   -4.102613
     89          1           0      -11.418193   -1.163237   -3.657926
     90          1           0      -13.153034   -1.355226   -3.809186
     91          1           0       -9.811225   -4.798786   -0.503427
     92          1           0       -8.977484   -4.640677   -2.117367
     93          1           0       -8.416389   -5.710038   -0.880567
     94          1           0       -3.682956   -3.390242   -0.351497
     95          1           0       -2.026245   -6.166145    2.679986
     96          1           0       -1.856631   -4.471806    3.293262
     97          1           0       -3.203546   -5.427623    3.906149
     98          1           0        2.823887   -1.781197   -1.733320
     99          1           0        2.576695   -0.427041   -2.119745
    100          1           0        3.973130   -0.945143    0.438827
    101          1           0        5.538706    1.979420   -1.962013
    102          1           0        5.409952    0.264962   -2.966549
    103          1           0        3.885439    1.356475   -2.649840
    104          1           0        6.656665    1.387651   -0.137562
    105          1           0        6.026827    0.199604    1.095160
    106          1           0        7.321652   -1.285407   -0.905478
    107          1           0        7.391569   -0.216175   -1.996253
    108          1           0        8.712107    0.896628    0.086796
    109          1           0        8.734777   -0.364504    1.181135
    110          1           0       10.039092   -0.327471   -1.636967
    111          1           0        8.937199   -2.273311   -1.293792
    112          1           0       10.909300   -2.513817   -1.347083
    113          1           0        9.990858   -2.454897    0.280860
    114          1           0       11.415278    0.770300    0.350428
    115          1           0       11.329323   -0.766204    1.319962
    116          1           0       12.592418   -1.839786   -0.550493
    117          1           0       12.708130   -0.203039   -1.588687
    118          1           0       13.633156    1.023667    0.411508
    119          1           0       13.789628   -0.572442    1.283053
    120          1           0       15.219068    0.139009   -1.436787
    121          1           0       15.275439   -2.377461   -1.461982
    122          1           0       16.939607   -1.674451   -0.552362
    123          1           0       15.384584   -2.342003    0.590519
    124          1           0       15.831288    1.652540    0.312205
    125          1           0       16.263786    0.419153    1.603704
    126          1           0       17.997741   -0.447063   -0.040294
    127          1           0       17.592162    0.617226   -1.412802
    128          1           0       18.235610    2.599504    0.103402
    129          1           0       18.469657    1.494573    1.589312
    130          1           0       20.512771    0.564219    0.017719
    131          1           0       19.701709    2.927710   -1.742770
    132          1           0       21.239615    2.138765   -1.980091
    133          1           0       19.751202    0.965139   -2.234579
    134          1           0       20.794252    2.429158    1.993519
    135          1           0       21.895873    2.484332    0.385730
    136          1           0       20.715902    3.674720    0.567771
    137          1           0       -7.133965    1.817035    0.302077
    138          1           0       -7.742669   -0.094464   -0.080444
 ---------------------------------------------------------------------

 SCF Done:  E(RB3LYP) =  -2732.84311760     A.U. after   17 cycles

 Excitation energies and oscillator strengths:

 Excited State   1:      Singlet-A      2.0238 eV  612.64 nm  f=0.2563  <S**2>=0.000
     235 -> 237       -0.13342
     235 -> 238        0.24419
     236 -> 237        0.64799
 This state for optimization and/or second-order correction.
 Total Energy, E(TD-HF/TD-DFT) =  -2732.76874513
 Copying the excited state density for this state as the 1-particle RhoCI density.

 The electronic state is 1-A.
 Alpha  occ. eigenvalues --  -19.16707 -19.16539 -19.11639 -19.11528 -19.10771
 Alpha  occ. eigenvalues --  -14.36882 -14.34853 -14.31737 -14.31180 -10.31366
 Alpha  occ. eigenvalues --  -10.30437 -10.27109 -10.25133 -10.24414 -10.24167
 Alpha  occ. eigenvalues --  -10.24140 -10.22534 -10.22506 -10.22350 -10.22266
 Alpha  occ. eigenvalues --  -10.22085 -10.22028 -10.21915 -10.21805 -10.21548
 Alpha  occ. eigenvalues --  -10.21525 -10.21521 -10.21446 -10.21409 -10.21395
 Alpha  occ. eigenvalues --  -10.21094 -10.20995 -10.20693 -10.20597 -10.20387
 Alpha  occ. eigenvalues --  -10.20343 -10.20246 -10.19979 -10.19974 -10.19952
 Alpha  occ. eigenvalues --  -10.19939 -10.19921 -10.19894 -10.19797 -10.19739
 Alpha  occ. eigenvalues --  -10.19723 -10.19703 -10.19690 -10.19362 -10.19310
 Alpha  occ. eigenvalues --  -10.19164 -10.19013 -10.18932 -10.18880 -10.18815
 Alpha  occ. eigenvalues --  -10.18672 -10.18658 -10.18612 -10.18467 -10.18309
 Alpha  occ. eigenvalues --  -10.18236 -10.18066 -10.18024 -10.17830  -1.08718
 Alpha  occ. eigenvalues --   -1.07294  -1.02389  -0.99171  -0.99087  -0.97823
 Alpha  occ. eigenvalues --   -0.96092  -0.95654  -0.94603  -0.84608  -0.83460
 Alpha  occ. eigenvalues --   -0.82526  -0.82465  -0.81610  -0.81123  -0.80640
 Alpha  occ. eigenvalues --   -0.79925  -0.79808  -0.79612  -0.79171  -0.78232
 Alpha  occ. eigenvalues --   -0.77702  -0.76678  -0.75960  -0.75418  -0.74605
 Alpha  occ. eigenvalues --   -0.73874  -0.73106  -0.72751  -0.71854  -0.71488
 Alpha  occ. eigenvalues --   -0.69802  -0.68619  -0.68336  -0.67777  -0.66964
 Alpha  occ. eigenvalues --   -0.66942  -0.66353  -0.66199  -0.65785  -0.64580
 Alpha  occ. eigenvalues --   -0.64000  -0.62945  -0.62463  -0.61505  -0.61460
 Alpha  occ. eigenvalues --   -0.61081  -0.59554  -0.59303  -0.58447  -0.57575
 Alpha  occ. eigenvalues --   -0.57373  -0.56903  -0.56796  -0.54991  -0.54827
 Alpha  occ. eigenvalues --   -0.54799  -0.54418  -0.53747  -0.53623  -0.53318
 Alpha  occ. eigenvalues --   -0.52668  -0.52264  -0.51034  -0.50666  -0.50207
 Alpha  occ. eigenvalues --   -0.49715  -0.49299  -0.48940  -0.48623  -0.48335
 Alpha  occ. eigenvalues --   -0.47886  -0.47322  -0.47139  -0.46872  -0.46752
 Alpha  occ. eigenvalues --   -0.46594  -0.46369  -0.46224  -0.45732  -0.45530
 Alpha  occ. eigenvalues --   -0.45493  -0.45238  -0.45063  -0.44834  -0.44725
 Alpha  occ. eigenvalues --   -0.44519  -0.44312  -0.43942  -0.43779  -0.43369
 Alpha  occ. eigenvalues --   -0.43296  -0.43260  -0.43138  -0.43073  -0.42739
 Alpha  occ. eigenvalues --   -0.42557  -0.42348  -0.42245  -0.41916  -0.41724
 Alpha  occ. eigenvalues --   -0.41627  -0.41232  -0.40911  -0.40696  -0.40610
 Alpha  occ. eigenvalues --   -0.40371  -0.40348  -0.40186  -0.39995  -0.39859
 Alpha  occ. eigenvalues --   -0.39582  -0.39432  -0.39265  -0.39063  -0.38845
 Alpha  occ. eigenvalues --   -0.38101  -0.37891  -0.37828  -0.37391  -0.37343
 Alpha  occ. eigenvalues --   -0.37120  -0.36977  -0.36888  -0.36589  -0.36547
 Alpha  occ. eigenvalues --   -0.36261  -0.36007  -0.35687  -0.35534  -0.35479
 Alpha  occ. eigenvalues --   -0.35351  -0.35308  -0.34998  -0.34968  -0.34620
 Alpha  occ. eigenvalues --   -0.34324  -0.34209  -0.33975  -0.33454  -0.33306
 Alpha  occ. eigenvalues --   -0.33118  -0.33049  -0.32860  -0.32657  -0.31934
 Alpha  occ. eigenvalues --   -0.31900  -0.31790  -0.31679  -0.31099  -0.31018
 Alpha  occ. eigenvalues --   -0.30455  -0.30344  -0.29984  -0.29905  -0.29776
 Alpha  occ. eigenvalues --   -0.29330  -0.29152  -0.28086  -0.28012  -0.27012
 Alpha  occ. eigenvalues --   -0.26877  -0.26554  -0.25996  -0.25964  -0.24970
 Alpha  occ. eigenvalues --   -0.24716  -0.24251  -0.23826  -0.23169  -0.19790
 Alpha  occ. eigenvalues --   -0.18917
 Alpha virt. eigenvalues --   -0.10941  -0.06490  -0.03898  -0.02492  -0.01158
 Alpha virt. eigenvalues --   -0.00180   0.00994   0.01530   0.02359   0.02796
 Alpha virt. eigenvalues --    0.03225   0.03381   0.03696   0.04113   0.04133

 Mulliken charges:
               1
     1  C   -0.026427
     2  C   -0.098156
     3  C   -0.036685
     4  C   -0.102314
     5  N   -0.134973
     6  C   -0.009366
     7  C   -0.083123
     8  C    0.096442
     9  C    0.038327
    10  C    0.053344
    11  C    0.068000
    12  C   -0.042981
    13  C    0.149805
    14  O   -0.243704
    15  O   -0.322982
    16  N    0.047895
    17  C    0.044352
    18  C   -0.155195
    19  C   -0.024323
    20  C    0.144087
    21  C    0.044639
    22  C   -0.024842
    23  C    0.049358
    24  N   -0.165908
    25  C    0.047458
    26  C   -0.130590
    27  C   -0.119290
    28  C    0.080466
    29  C   -0.020962
    30  C    0.090382
    31  C   -0.057454
    32  N   -0.217710
    33  C    0.096279
    34  C   -0.110243
    35  C   -0.084365
    36  C    0.128210
    37  C    0.103465
    38  C    0.093857
    39  O   -0.156882
    40  C   -0.010558
    41  C    0.197059
    42  O   -0.253011
    43  O   -0.328008
    44  C    0.186480
    45  C    0.315944
    46  C    0.120627
    47  C   -0.186560
    48  C   -0.005461
    49  C    0.073676
    50  C   -0.082209
    51  C    0.152442
    52  C   -0.050270
    53  C   -0.007894
    54  C    0.018374
    55  C   -0.039138
    56  C    0.046397
    57  C   -0.052580
    58  C   -0.101069
    59  C   -0.056214
    60  C   -0.011105
    61  C    0.031237
    62  C   -0.100360
    63  C   -0.030844
    64  C    0.061020
    65  H   -0.009454
    66  H   -0.074125
    67  H   -0.034590
    68  H    0.008616
    69  H   -0.131749
    70  H    0.001390
    71  H    0.033309
    72  H    0.049189
    73  H    0.017708
    74  H    0.015062
    75  H    0.053254
    76  H    0.040470
    77  H    0.033832
    78  H    0.035705
    79  H    0.043554
    80  H    0.036743
    81  H   -0.005137
    82  H   -0.008755
    83  H    0.043712
    84  H    0.024582
    85  H    0.059383
    86  H    0.044639
    87  H   -0.007115
    88  H    0.033411
    89  H    0.017870
    90  H    0.019359
    91  H    0.011736
    92  H    0.029256
    93  H    0.038656
    94  H    0.064385
    95  H    0.038261
    96  H    0.010220
    97  H    0.054707
    98  H    0.001462
    99  H   -0.002585
   100  H   -0.152624
   101  H    0.045267
   102  H    0.056172
   103  H    0.056047
   104  H   -0.022189
   105  H    0.032902
   106  H   -0.025661
   107  H    0.009658
   108  H   -0.043957
   109  H    0.003710
   110  H   -0.015266
   111  H    0.026133
   112  H    0.036713
   113  H   -0.007638
   114  H   -0.019365
   115  H    0.007307
   116  H    0.017167
   117  H    0.005167
   118  H   -0.000047
   119  H   -0.005330
   120  H    0.003543
   121  H    0.041340
   122  H    0.041394
   123  H    0.031177
   124  H   -0.001996
   125  H    0.015103
   126  H    0.006335
   127  H    0.011409
   128  H   -0.009129
   129  H    0.013383
   130  H    0.001120
   131  H    0.014291
   132  H    0.005454
   133  H    0.040452
   134  H    0.042834
   135  H   -0.022271
   136  H   -0.004265
   137  H    0.028465
   138  H    0.254365
 Sum of Mulliken charges =  -0.00000

 Dipole moment (field-independent basis, Debye):
    X=              2.8243    Y=              6.3255    Z=              0.0690  Tot=              6.9277
 Quadrupole moment (field-independent basis, Debye-Ang):
   XX=           -340.5830   YY=           -389.0976   ZZ=           -393.0728
   XY=            -22.5243   XZ=              9.4931   YZ=              0.3222

 Normal termination of Gaussian 16 at Sun Aug 11 10:49:13 2019.
