 Gaussian 16, Revision A.03,
 Gaussian 16:  ES64L-G16RevA.03 25-Dec-2016

 --------------------------
 # td=(NStates=1) B3LYP/SVP
 --------------------------

 --
 TD
 --
 Symbolic Z-matrix:
 Charge =  0 Multiplicity = 1

                         Standard orientation:
 ---------------------------------------------------------------------
 Center     Atomic      Atomic             Coordinates (Angstroms)
 Number     Number       Type             X           Y           Z
 ---------------------------------------------------------------------
      1          6           0       -5.123332   -1.957207    0.415524
      2          6           0       -4.719485    2.787766    1.484648
      3          6           0       -9.198840    3.403953   -0.189827
      4          6           0       -9.836796   -1.403889   -0.744025
      5          7           0       -5.242962    0.463485    0.802852
      6          6           0       -4.538836   -0.785954    0.780385
      7          6           0       -3.129169   -0.600858    1.311865
      8          6           0       -3.039542    0.795457    1.792775
      9          6           0       -4.432615    1.428263    1.359761
     10          6           0       -2.848600    0.854194    3.359403
     11          6           0       -2.183285   -0.773802    0.089461
     12          6           0       -0.649410   -0.638335    0.435380
     13          6           0        0.316580   -1.097295   -0.659685
     14          8           0        0.056123   -1.592666   -1.690406
     15          8           0        1.588359   -0.855440   -0.261786
     16          7           0       -6.955756    2.814420    0.428871
     17          6           0       -5.891053    3.397527    1.031016
     18          6           0       -6.034034    4.802833    0.900661
     19          6           0       -7.343520    5.033621    0.496213
     20          6           0       -7.940554    3.707680    0.171622
     21          6           0       -5.154066    5.857518    1.401525
     22          6           0       -8.014638    6.282428    0.300948
     23          6           0       -8.926406    6.766581   -0.585856
     24          7           0       -9.159430    0.940726   -0.406778
     25          6           0       -9.725667    2.048652   -0.539921
     26          6           0      -11.188559    2.002014   -0.820537
     27          6           0      -11.380239    0.625533   -1.071728
     28          6           0      -10.148400   -0.065784   -0.749081
     29          6           0      -12.149582    3.161685   -0.937579
     30          6           0      -12.638629   -0.203284   -1.564801
     31          6           0      -12.662281   -0.419364   -3.047169
     32          7           0       -7.519492   -1.258147   -0.170036
     33          6           0       -8.600388   -1.997985   -0.563684
     34          6           0       -8.134815   -3.350482   -0.637184
     35          6           0       -6.819999   -3.416244   -0.151184
     36          6           0       -6.487108   -2.015496    0.034809
     37          6           0       -9.058031   -4.523404   -1.197607
     38          6           0       -5.676800   -4.301736    0.077935
     39          8           0       -5.572909   -5.536904    0.019068
     40          6           0       -4.519683   -3.387044    0.418722
     41          6           0       -3.867872   -3.818703    1.818651
     42          8           0       -4.125309   -3.297977    2.848505
     43          8           0       -3.020714   -4.858094    1.575068
     44          6           0       -2.520995   -5.391520    2.759500
     45          6           0        2.655793   -1.386749   -1.247143
     46          6           0        3.969889   -1.072700   -0.672362
     47          6           0        4.891158   -0.300594   -1.358996
     48          6           0        4.831461    0.333781   -2.701173
     49          6           0        6.207667   -0.038831   -0.538284
     50          6           0        7.466970   -0.535977   -1.149404
     51          6           0        8.690111   -0.110356   -0.417372
     52          6           0       10.053086   -0.747988   -0.912232
     53          6           0       10.025123   -2.244875   -0.941981
     54          6           0       11.089807   -0.188641   -0.032889
     55          6           0       12.483023   -0.509384   -0.528344
     56          6           0       13.698369    0.115900    0.292478
     57          6           0       15.164911   -0.248400   -0.199650
     58          6           0       15.513377   -1.778245   -0.121801
     59          6           0       16.295678    0.569900    0.385239
     60          6           0       17.634336    0.733522   -0.080023
     61          6           0       18.567544    1.665829    0.780429
     62          6           0       20.012283    1.810482    0.186648
     63          6           0       20.060558    2.391105   -1.255266
     64          6           0       20.962086    2.612754    1.165565
     65          1           0       -3.913602    3.537680    1.878783
     66          1           0       -9.785095    4.332411   -0.418841
     67          1           0      -10.736947   -1.927942   -0.943529
     68          1           0       -2.784147   -1.263444    2.158486
     69          1           0       -2.277207    1.471385    1.311175
     70          1           0       -1.810143    0.273481    3.521829
     71          1           0       -2.574507    2.102227    3.699827
     72          1           0       -3.860304    0.366298    3.678006
     73          1           0       -2.378395   -1.688507   -0.521534
     74          1           0       -2.289110    0.005941   -0.629008
     75          1           0       -0.320349    0.360854    0.912837
     76          1           0       -0.417067   -1.253232    1.280907
     77          1           0       -4.324813    5.658026    0.725140
     78          1           0       -5.705756    6.804877    1.191627
     79          1           0       -4.645390    5.635206    2.416436
     80          1           0       -7.731399    7.196152    0.888161
     81          1           0       -9.333808    6.170804   -1.467101
     82          1           0       -9.178451    7.713785   -0.533965
     83          1           0      -12.339858    3.429239    0.029589
     84          1           0      -11.603178    4.237811   -1.382979
     85          1           0      -13.127196    2.749943   -1.645078
     86          1           0      -12.731956   -1.090838   -0.995272
     87          1           0      -13.445485    0.326531   -1.117081
     88          1           0      -12.910652    0.579187   -3.774040
     89          1           0      -11.920023   -1.021602   -3.452447
     90          1           0      -13.524574   -1.206890   -3.159667
     91          1           0       -9.946731   -4.698146   -0.521220
     92          1           0       -9.375547   -4.278963   -2.156496
     93          1           0       -8.501127   -5.483313   -1.134839
     94          1           0       -3.842515   -3.492501   -0.502092
     95          1           0       -1.961297   -6.454680    2.444944
     96          1           0       -2.000864   -4.691741    3.509732
     97          1           0       -3.378076   -5.742716    3.451901
     98          1           0        2.375294   -2.462892   -1.512968
     99          1           0        2.551027   -0.907594   -2.174798
    100          1           0        4.078292   -1.473044    0.368665
    101          1           0        5.149993    1.368373   -2.915876
    102          1           0        5.378490   -0.148284   -3.336677
    103          1           0        3.953342    0.438890   -3.254847
    104          1           0        6.186427    0.931091   -0.314024
    105          1           0        6.099205   -0.398452    0.548783
    106          1           0        7.433756   -1.735054   -1.239489
    107          1           0        7.632115   -0.393123   -2.334789
    108          1           0        8.778562    1.110693   -0.521600
    109          1           0        8.721547   -0.414304    0.535223
    110          1           0       10.261712   -0.494067   -1.951998
    111          1           0        9.064976   -2.766945   -1.570891
    112          1           0       11.076339   -2.410617   -1.311897
    113          1           0       10.005198   -2.770933    0.148654
    114          1           0       10.897536    0.951855   -0.226276
    115          1           0       10.873817   -0.337205    0.957189
    116          1           0       12.571169   -1.369836   -0.673740
    117          1           0       12.447462   -0.096219   -1.762218
    118          1           0       13.459333    1.176502   -0.016182
    119          1           0       13.631370   -0.001348    1.277598
    120          1           0       15.110787   -0.189706   -1.299417
    121          1           0       15.050258   -2.411439   -0.774834
    122          1           0       16.625742   -1.955279   -0.308734
    123          1           0       15.546535   -2.287883    0.883563
    124          1           0       15.912770    1.781106    0.187404
    125          1           0       16.241937    0.387886    1.625233
    126          1           0       18.090614   -0.162132   -0.075970
    127          1           0       17.849915    0.932399   -1.258245
    128          1           0       18.064736    2.500252    0.986447
    129          1           0       18.722501    1.413552    1.815791
    130          1           0       20.424618    0.804404    0.251283
    131          1           0       19.825047    3.548595   -1.173975
    132          1           0       21.048278    2.338070   -1.591812
    133          1           0       19.537004    1.784752   -1.814016
    134          1           0       21.082105    2.177127    2.305799
    135          1           0       22.133197    2.940799    0.630132
    136          1           0       20.427949    3.583898    1.228445
    137          1           0       -7.152156    1.806371    0.830303
    138          1           0       -7.793637   -0.309429   -0.223647
 ---------------------------------------------------------------------

 SCF Done:  E(RB3LYP) =  -2732.92858688     A.U. after   16 cycles

 Excitation energies and oscillator strengths:

 Excited State   1:      Singlet-A      2.1365 eV  580.33 nm  f=0.1749  <S**2>=0.000
     235 -> 237       -0.13109
     235 -> 238        0.26522
     236 -> 237        0.63631
 This state for optimization and/or second-order correction.
 Total Energy, E(TD-HF/TD-DFT) =  -2732.85007352
 Copying the excited state density for this state as the 1-particle RhoCI density.

 The electronic state is 1-A.
 Alpha  occ. eigenvalues --  -19.18951 -19.16038 -19.14256 -19.11784 -19.11256
 Alpha  occ. eigenvalues --  -14.36619 -14.36575 -14.32202 -14.29976 -10.32750
 Alpha  occ. eigenvalues --  -10.30354 -10.27305 -10.26002 -10.23843 -10.23678
 Alpha  occ. eigenvalues --  -10.23388 -10.23241 -10.23184 -10.22578 -10.22404
 Alpha  occ. eigenvalues --  -10.22271 -10.21841 -10.21767 -10.21651 -10.21528
 Alpha  occ. eigenvalues --  -10.21255 -10.21208 -10.21006 -10.20974 -10.20879
 Alpha  occ. eigenvalues --  -10.20714 -10.20679 -10.20553 -10.20231 -10.20187
 Alpha  occ. eigenvalues --  -10.20089 -10.20051 -10.20001 -10.19943 -10.19939
 Alpha  occ. eigenvalues --  -10.19907 -10.19881 -10.19829 -10.19769 -10.19595
 Alpha  occ. eigenvalues --  -10.19414 -10.19390 -10.19276 -10.19250 -10.19087
 Alpha  occ. eigenvalues --  -10.19079 -10.18992 -10.18603 -10.18479 -10.18389
 Alpha  occ. eigenvalues --  -10.18372 -10.18323 -10.18312 -10.18301 -10.18067
 Alpha  occ. eigenvalues --  -10.17844 -10.17680 -10.17254 -10.17168  -1.11116
 Alpha  occ. eigenvalues --   -1.08421  -1.03528  -1.00737  -1.00033  -0.99485
 Alpha  occ. eigenvalues --   -0.99075  -0.94311  -0.91981  -0.84851  -0.83542
 Alpha  occ. eigenvalues --   -0.82774  -0.82025  -0.81461  -0.81411  -0.80562
 Alpha  occ. eigenvalues --   -0.79803  -0.79207  -0.79081  -0.78636  -0.77620
 Alpha  occ. eigenvalues --   -0.76831  -0.76108  -0.75631  -0.75086  -0.74802
 Alpha  occ. eigenvalues --   -0.73754  -0.73170  -0.72629  -0.72540  -0.71054
 Alpha  occ. eigenvalues --   -0.70001  -0.69574  -0.68908  -0.68222  -0.68184
 Alpha  occ. eigenvalues --   -0.67435  -0.66841  -0.66004  -0.65788  -0.64835
 Alpha  occ. eigenvalues --   -0.63602  -0.63231  -0.62798  -0.62367  -0.62149
 Alpha  occ. eigenvalues --   -0.61158  -0.59760  -0.58340  -0.58126  -0.57769
 Alpha  occ. eigenvalues --   -0.57138  -0.56283  -0.56210  -0.55626  -0.55212
 Alpha  occ. eigenvalues --   -0.55067  -0.54505  -0.54407  -0.54076  -0.53920
 Alpha  occ. eigenvalues --   -0.52685  -0.51904  -0.51894  -0.51082  -0.50395
 Alpha  occ. eigenvalues --   -0.49407  -0.48906  -0.48815  -0.48591  -0.48430
 Alpha  occ. eigenvalues --   -0.48314  -0.47856  -0.47639  -0.46964  -0.46741
 Alpha  occ. eigenvalues --   -0.46471  -0.46236  -0.46166  -0.45915  -0.45659
 Alpha  occ. eigenvalues --   -0.45593  -0.45428  -0.45360  -0.45210  -0.44477
 Alpha  occ. eigenvalues --   -0.44352  -0.44131  -0.43898  -0.43500  -0.43316
 Alpha  occ. eigenvalues --   -0.43244  -0.42956  -0.42908  -0.42814  -0.42738
 Alpha  occ. eigenvalues --   -0.42283  -0.42185  -0.41810  -0.41783  -0.41577
 Alpha  occ. eigenvalues --   -0.41352  -0.41109  -0.40886  -0.40786  -0.40488
 Alpha  occ. eigenvalues --   -0.40249  -0.40127  -0.39755  -0.39338  -0.39063
 Alpha  occ. eigenvalues --   -0.38941  -0.38759  -0.38716  -0.38594  -0.38543
 Alpha  occ. eigenvalues --   -0.38350  -0.38086  -0.38030  -0.37879  -0.37704
 Alpha  occ. eigenvalues --   -0.37550  -0.37314  -0.37243  -0.36673  -0.36486
 Alpha  occ. eigenvalues --   -0.36402  -0.36297  -0.36144  -0.36062  -0.35695
 Alpha  occ. eigenvalues --   -0.35493  -0.35244  -0.35071  -0.34846  -0.34781
 Alpha  occ. eigenvalues --   -0.34197  -0.34052  -0.33828  -0.33626  -0.33558
 Alpha  occ. eigenvalues --   -0.33433  -0.32870  -0.32822  -0.32714  -0.32459
 Alpha  occ. eigenvalues --   -0.31848  -0.31785  -0.31564  -0.31509  -0.31357
 Alpha  occ. eigenvalues --   -0.31229  -0.30779  -0.30697  -0.30214  -0.30079
 Alpha  occ. eigenvalues --   -0.29930  -0.29327  -0.29189  -0.28241  -0.28160
 Alpha  occ. eigenvalues --   -0.27807  -0.26956  -0.26490  -0.26109  -0.26019
 Alpha  occ. eigenvalues --   -0.24787  -0.24580  -0.24236  -0.22861  -0.20190
 Alpha  occ. eigenvalues --   -0.18826
 Alpha virt. eigenvalues --   -0.09847  -0.07816  -0.04374  -0.02269  -0.00957
 Alpha virt. eigenvalues --   -0.00243   0.00611   0.01776   0.02417   0.02586
 Alpha virt. eigenvalues --    0.02785   0.03230   0.04079   0.04562   0.04753

 Mulliken charges:
               1
     1  C   -0.068723
     2  C   -0.100381
     3  C   -0.097997
     4  C   -0.011190
     5  N   -0.229504
     6  C   -0.047352
     7  C    0.003895
     8  C   -0.057197
     9  C    0.015458
    10  C   -0.055644
    11  C    0.049640
    12  C    0.015765
    13  C    0.163248
    14  O   -0.199978
    15  O   -0.362125
    16  N   -0.049272
    17  C    0.065598
    18  C   -0.152072
    19  C    0.119081
    20  C    0.058846
    21  C    0.108094
    22  C   -0.132566
    23  C   -0.004507
    24  N   -0.189908
    25  C    0.044172
    26  C   -0.185491
    27  C   -0.090594
    28  C   -0.004578
    29  C    0.044269
    30  C    0.112992
    31  C    0.013448
    32  N    0.108242
    33  C    0.043680
    34  C   -0.163335
    35  C   -0.039703
    36  C    0.109139
    37  C    0.113709
    38  C    0.052567
    39  O   -0.197100
    40  C   -0.004446
    41  C    0.217347
    42  O   -0.179895
    43  O   -0.260075
    44  C    0.103313
    45  C    0.280784
    46  C   -0.098654
    47  C   -0.091779
    48  C    0.164516
    49  C    0.138841
    50  C   -0.036408
    51  C    0.059775
    52  C   -0.089016
    53  C   -0.062083
    54  C    0.077506
    55  C    0.102838
    56  C    0.109621
    57  C   -0.007732
    58  C    0.016631
    59  C   -0.061764
    60  C    0.103485
    61  C    0.088429
    62  C   -0.106095
    63  C    0.133806
    64  C   -0.087179
    65  H   -0.002929
    66  H   -0.033238
    67  H   -0.050774
    68  H    0.026029
    69  H    0.009250
    70  H    0.046008
    71  H    0.035898
    72  H    0.070188
    73  H    0.020295
    74  H   -0.002814
    75  H    0.034083
    76  H    0.003172
    77  H    0.020831
    78  H    0.030123
    79  H    0.048770
    80  H    0.011426
    81  H    0.037555
    82  H   -0.016914
    83  H    0.011374
    84  H    0.043778
    85  H    0.059593
    86  H   -0.014571
    87  H   -0.018431
    88  H    0.048189
    89  H   -0.000677
    90  H    0.004566
    91  H    0.025672
    92  H    0.012711
    93  H    0.035198
    94  H    0.082807
    95  H    0.062661
    96  H    0.041426
    97  H    0.027185
    98  H    0.037414
    99  H   -0.016666
   100  H    0.012464
   101  H    0.005910
   102  H   -0.030297
   103  H   -0.018292
   104  H   -0.038824
   105  H   -0.008942
   106  H    0.002121
   107  H    0.005764
   108  H    0.013505
   109  H   -0.041667
   110  H   -0.019632
   111  H    0.048362
   112  H    0.022434
   113  H    0.013637
   114  H   -0.003119
   115  H   -0.030429
   116  H   -0.131003
   117  H   -0.007281
   118  H    0.007249
   119  H   -0.031854
   120  H   -0.018708
   121  H   -0.006710
   122  H   -0.006592
   123  H   -0.006262
   124  H    0.002595
   125  H    0.019051
   126  H   -0.059652
   127  H    0.007116
   128  H   -0.062425
   129  H   -0.030179
   130  H   -0.005234
   131  H    0.023383
   132  H   -0.016406
   133  H   -0.037441
   134  H    0.041311
   135  H    0.029677
   136  H    0.012964
   137  H    0.201898
   138  H    0.097934
 Sum of Mulliken charges =  -0.00000

 Dipole moment (field-independent basis, Debye):
    X=              2.1364    Y=              4.9643    Z=              0.4970  Tot=              5.4273
 Quadrupole moment (field-independent basis, Debye-Ang):
   XX=           -351.6145   YY=           -386.8866   ZZ=           -391.9187
   XY=            -34.0623   XZ=              1.1396   YZ=             -2.0344

 Normal termination of Gaussian 16 at Wed Aug 14 02:54:04 2019.
