 Gaussian 16, Revision A.03,
 Gaussian 16:  ES64L-G16RevA.03 25-Dec-2016

 --------------------------
 # td=(NStates=1) B3LYP/SVP
 --------------------------

 --
 TD
 --
 Symbolic Z-matrix:
 Charge =  0 Multiplicity = 1

                         Standard orientation:
 ---------------------------------------------------------------------
 Center     Atomic      Atomic             Coordinates (Angstroms)
 Number     Number       Type             X           Y           Z
 ---------------------------------------------------------------------
      1          6           0       -5.183104   -1.974846    0.407354
      2          6           0       -4.544856    2.751418    1.296153
      3          6           0       -9.238403    3.407939   -0.125232
      4          6           0       -9.960849   -1.448527   -0.620682
      5          7           0       -5.124213    0.443772    0.883076
      6          6           0       -4.549298   -0.786909    0.735954
      7          6           0       -3.054068   -0.686740    1.293016
      8          6           0       -2.959548    0.712799    1.892393
      9          6           0       -4.291139    1.286962    1.348232
     10          6           0       -2.756809    0.814083    3.408833
     11          6           0       -2.118310   -0.998169    0.116197
     12          6           0       -0.658043   -1.028442    0.592664
     13          6           0        0.349442   -1.157736   -0.534908
     14          8           0        0.165537   -1.705253   -1.686581
     15          8           0        1.555340   -0.766372   -0.231644
     16          7           0       -6.917658    2.687262    0.459288
     17          6           0       -5.772989    3.336797    0.987936
     18          6           0       -6.035372    4.822741    0.875884
     19          6           0       -7.358896    5.099705    0.479713
     20          6           0       -7.914281    3.721800    0.173691
     21          6           0       -5.067265    5.889732    1.314674
     22          6           0       -7.891654    6.359944    0.200503
     23          6           0       -8.966371    6.634070   -0.779194
     24          7           0       -9.224707    0.807451   -0.348134
     25          6           0       -9.762625    2.104040   -0.352924
     26          6           0      -11.205983    2.057419   -0.785300
     27          6           0      -11.457848    0.757921   -1.048641
     28          6           0      -10.173009   -0.013998   -0.741561
     29          6           0      -12.143112    3.172322   -0.897440
     30          6           0      -12.774721    0.065486   -1.472028
     31          6           0      -12.605751   -0.316940   -2.996368
     32          7           0       -7.585228   -1.231089   -0.124065
     33          6           0       -8.682528   -2.012414   -0.558873
     34          6           0       -8.260847   -3.351539   -0.728235
     35          6           0       -7.036706   -3.366599   -0.197728
     36          6           0       -6.493858   -2.047011    0.007075
     37          6           0       -9.253074   -4.510473   -1.101171
     38          6           0       -5.919599   -4.322186    0.026139
     39          8           0       -5.874720   -5.544527   -0.150631
     40          6           0       -4.654843   -3.381995    0.369193
     41          6           0       -4.006737   -3.924272    1.626683
     42          8           0       -4.277032   -3.611686    2.738952
     43          8           0       -2.951477   -4.759257    1.344112
     44          6           0       -2.402201   -5.319176    2.537240
     45          6           0        2.572307   -1.079760   -1.139312
     46          6           0        3.953018   -0.767365   -0.662379
     47          6           0        4.912938    0.088630   -1.163084
     48          6           0        4.849980    0.756105   -2.416684
     49          6           0        6.181513    0.251670   -0.327867
     50          6           0        7.464123   -0.454778   -0.936579
     51          6           0        8.777604   -0.224062   -0.112727
     52          6           0       10.024792   -0.782598   -0.795660
     53          6           0        9.902578   -2.332760   -1.123649
     54          6           0       11.298687   -0.422708   -0.025338
     55          6           0       12.705483   -0.545205   -0.733988
     56          6           0       13.807680    0.007635    0.114405
     57          6           0       15.255773   -0.098385   -0.518963
     58          6           0       15.560341   -1.570046   -0.556002
     59          6           0       16.271782    0.609905    0.401079
     60          6           0       17.684852    0.771932   -0.122808
     61          6           0       18.592828    1.603621    0.745971
     62          6           0       20.115823    1.728114    0.276939
     63          6           0       20.173209    2.316473   -1.083072
     64          6           0       20.886986    2.498328    1.278112
     65          1           0       -3.826541    3.402078    1.853650
     66          1           0       -9.826118    4.451627   -0.232927
     67          1           0      -10.741225   -2.070677   -1.318984
     68          1           0       -2.819037   -1.447091    1.927194
     69          1           0       -2.102207    1.376474    1.468216
     70          1           0       -1.948109    0.133291    3.554844
     71          1           0       -2.611292    1.834559    3.661954
     72          1           0       -3.692485    0.383759    3.873178
     73          1           0       -2.422700   -1.820417   -0.211037
     74          1           0       -2.278910   -0.204891   -0.550176
     75          1           0       -0.332952   -0.208116    1.112377
     76          1           0       -0.454192   -1.901963    1.188030
     77          1           0       -4.118533    6.085311    0.516974
     78          1           0       -5.413682    6.965875    1.286626
     79          1           0       -4.732852    5.578404    2.476346
     80          1           0       -7.317921    7.362630    0.572696
     81          1           0       -9.380766    6.009902   -1.583806
     82          1           0       -9.333264    7.758939   -0.644826
     83          1           0      -12.441242    3.699085    0.018897
     84          1           0      -11.835694    4.135676   -1.481778
     85          1           0      -13.216989    2.836681   -1.249570
     86          1           0      -13.010558   -0.678643   -0.682247
     87          1           0      -13.459847    0.670265   -1.161435
     88          1           0      -12.662725    0.750400   -3.556487
     89          1           0      -11.812254   -0.864603   -3.387639
     90          1           0      -13.486007   -0.857459   -3.278720
     91          1           0       -9.987150   -4.643812   -0.356679
     92          1           0       -9.646229   -4.477055   -2.271095
     93          1           0       -8.661422   -5.436445   -0.944237
     94          1           0       -4.061314   -3.596879   -0.608280
     95          1           0       -1.797033   -6.221830    2.214952
     96          1           0       -1.625010   -4.561729    3.052531
     97          1           0       -3.299207   -5.624239    3.137793
     98          1           0        2.465636   -2.273964   -1.383852
     99          1           0        2.456005   -0.652722   -2.182571
    100          1           0        4.318005   -1.209002    0.275603
    101          1           0        5.197646    1.802852   -2.477848
    102          1           0        5.551759    0.327593   -2.995903
    103          1           0        3.890676    0.378670   -2.958743
    104          1           0        6.597188    1.345008   -0.116873
    105          1           0        6.369126   -0.242653    0.651705
    106          1           0        7.318952   -1.576706   -1.054547
    107          1           0        7.675552   -0.250079   -2.106706
    108          1           0        8.575158    0.689280    0.151051
    109          1           0        8.493438   -0.927759    0.872845
    110          1           0        9.982742   -0.246498   -1.705370
    111          1           0        9.245371   -2.706553   -1.886740
    112          1           0       11.140768   -2.532887   -1.588447
    113          1           0        9.519561   -2.990538   -0.314999
    114          1           0       11.040759    0.615766    0.368384
    115          1           0       11.369798   -1.008232    0.841627
    116          1           0       12.903657   -1.598133   -0.931329
    117          1           0       12.729519   -0.351953   -1.841940
    118          1           0       13.598060    1.023964    0.541218
    119          1           0       13.762482   -0.597951    1.070183
    120          1           0       15.220705    0.122442   -1.560533
    121          1           0       14.708093   -2.215723   -0.954607
    122          1           0       16.692278   -1.693514   -1.074622
    123          1           0       15.744031   -2.010077    0.464622
    124          1           0       15.979521    1.580153    0.553423
    125          1           0       16.085906   -0.101391    1.429396
    126          1           0       18.100596   -0.152394   -0.344177
    127          1           0       17.505793    1.053387   -1.029028
    128          1           0       18.119942    2.546707    0.749120
    129          1           0       18.659009    1.249237    1.681566
    130          1           0       20.427717    0.652344    0.405776
    131          1           0       19.415462    3.196202   -1.053206
    132          1           0       21.292260    2.683942   -1.413322
    133          1           0       19.734938    1.655695   -1.868962
    134          1           0       20.721170    2.170605    2.259749
    135          1           0       21.868860    2.378649    1.021797
    136          1           0       20.551941    3.512906    1.327722
    137          1           0       -7.055300    1.749998    0.379352
    138          1           0       -7.720104   -0.282493    0.112236
 ---------------------------------------------------------------------

 SCF Done:  E(RB3LYP) =  -2732.99880356     A.U. after   17 cycles

 Excitation energies and oscillator strengths:

 Excited State   1:      Singlet-A      1.9178 eV  646.49 nm  f=0.1889  <S**2>=0.000
     235 -> 237       -0.11264
     235 -> 238        0.25690
     236 -> 237        0.62333
     236 -> 238        0.17074
 This state for optimization and/or second-order correction.
 Total Energy, E(TD-HF/TD-DFT) =  -2732.92832560
 Copying the excited state density for this state as the 1-particle RhoCI density.

 The electronic state is 1-A.
 Alpha  occ. eigenvalues --  -19.19110 -19.17536 -19.13045 -19.12865 -19.10859
 Alpha  occ. eigenvalues --  -14.37151 -14.36424 -14.32566 -14.30602 -10.31792
 Alpha  occ. eigenvalues --  -10.31431 -10.28488 -10.25864 -10.25283 -10.25236
 Alpha  occ. eigenvalues --  -10.24968 -10.23633 -10.23542 -10.23496 -10.23476
 Alpha  occ. eigenvalues --  -10.23183 -10.23146 -10.22586 -10.22530 -10.22501
 Alpha  occ. eigenvalues --  -10.22144 -10.21847 -10.21752 -10.20970 -10.20964
 Alpha  occ. eigenvalues --  -10.20924 -10.20915 -10.20914 -10.20785 -10.20665
 Alpha  occ. eigenvalues --  -10.20618 -10.20244 -10.20239 -10.20228 -10.20057
 Alpha  occ. eigenvalues --  -10.19778 -10.19695 -10.19293 -10.19290 -10.19159
 Alpha  occ. eigenvalues --  -10.19037 -10.19028 -10.18995 -10.18863 -10.18741
 Alpha  occ. eigenvalues --  -10.18650 -10.18630 -10.18610 -10.18581 -10.18567
 Alpha  occ. eigenvalues --  -10.18539 -10.18518 -10.18482 -10.18477 -10.18451
 Alpha  occ. eigenvalues --  -10.17723 -10.16471 -10.15797 -10.15758  -1.11526
 Alpha  occ. eigenvalues --   -1.10011  -1.01844  -1.01440  -0.98156  -0.96433
 Alpha  occ. eigenvalues --   -0.96348  -0.95223  -0.93263  -0.85456  -0.83041
 Alpha  occ. eigenvalues --   -0.82643  -0.82521  -0.82282  -0.81366  -0.81081
 Alpha  occ. eigenvalues --   -0.80373  -0.79970  -0.79435  -0.78539  -0.77876
 Alpha  occ. eigenvalues --   -0.77221  -0.76238  -0.75389  -0.75113  -0.74399
 Alpha  occ. eigenvalues --   -0.73880  -0.72854  -0.72394  -0.72171  -0.71009
 Alpha  occ. eigenvalues --   -0.69738  -0.68926  -0.68346  -0.68135  -0.67991
 Alpha  occ. eigenvalues --   -0.67384  -0.66830  -0.66379  -0.65793  -0.65490
 Alpha  occ. eigenvalues --   -0.64741  -0.63871  -0.63383  -0.62917  -0.62370
 Alpha  occ. eigenvalues --   -0.61114  -0.59427  -0.58789  -0.58051  -0.57836
 Alpha  occ. eigenvalues --   -0.56955  -0.56852  -0.56448  -0.55972  -0.55913
 Alpha  occ. eigenvalues --   -0.55578  -0.55094  -0.54433  -0.53673  -0.53248
 Alpha  occ. eigenvalues --   -0.52800  -0.52118  -0.51699  -0.51272  -0.50949
 Alpha  occ. eigenvalues --   -0.50470  -0.49326  -0.49045  -0.48685  -0.48531
 Alpha  occ. eigenvalues --   -0.48404  -0.48055  -0.47494  -0.47447  -0.47146
 Alpha  occ. eigenvalues --   -0.47103  -0.46876  -0.46276  -0.46140  -0.45917
 Alpha  occ. eigenvalues --   -0.45673  -0.45344  -0.45145  -0.45120  -0.44686
 Alpha  occ. eigenvalues --   -0.44619  -0.44316  -0.43793  -0.43702  -0.43592
 Alpha  occ. eigenvalues --   -0.43501  -0.43446  -0.43219  -0.43168  -0.42730
 Alpha  occ. eigenvalues --   -0.42503  -0.42271  -0.41859  -0.41808  -0.41596
 Alpha  occ. eigenvalues --   -0.41115  -0.40975  -0.40813  -0.40537  -0.40143
 Alpha  occ. eigenvalues --   -0.40067  -0.39829  -0.39514  -0.39385  -0.39353
 Alpha  occ. eigenvalues --   -0.38902  -0.38765  -0.38614  -0.38447  -0.38181
 Alpha  occ. eigenvalues --   -0.38009  -0.37907  -0.37774  -0.37728  -0.37550
 Alpha  occ. eigenvalues --   -0.37463  -0.37247  -0.37099  -0.37056  -0.36891
 Alpha  occ. eigenvalues --   -0.36586  -0.36359  -0.36142  -0.36123  -0.35626
 Alpha  occ. eigenvalues --   -0.35451  -0.35269  -0.35140  -0.35114  -0.34880
 Alpha  occ. eigenvalues --   -0.34783  -0.34695  -0.34338  -0.34120  -0.33944
 Alpha  occ. eigenvalues --   -0.33758  -0.33619  -0.33540  -0.33364  -0.32725
 Alpha  occ. eigenvalues --   -0.32443  -0.32416  -0.31958  -0.31796  -0.31674
 Alpha  occ. eigenvalues --   -0.31138  -0.31003  -0.30587  -0.30415  -0.30230
 Alpha  occ. eigenvalues --   -0.29578  -0.29297  -0.28934  -0.28793  -0.28169
 Alpha  occ. eigenvalues --   -0.27413  -0.27155  -0.26568  -0.26508  -0.26118
 Alpha  occ. eigenvalues --   -0.25164  -0.24010  -0.23318  -0.23089  -0.20599
 Alpha  occ. eigenvalues --   -0.18440
 Alpha virt. eigenvalues --   -0.10496  -0.08728  -0.05874  -0.03373  -0.01064
 Alpha virt. eigenvalues --   -0.00456  -0.00299   0.00129   0.01680   0.02999
 Alpha virt. eigenvalues --    0.03268   0.03841   0.04088   0.04575   0.04696

 Mulliken charges:
               1
     1  C    0.057917
     2  C   -0.037371
     3  C   -0.139013
     4  C   -0.059944
     5  N   -0.103573
     6  C   -0.089163
     7  C   -0.025725
     8  C   -0.085859
     9  C   -0.061908
    10  C    0.122429
    11  C    0.212394
    12  C    0.131871
    13  C    0.145527
    14  O   -0.320295
    15  O   -0.232386
    16  N   -0.094686
    17  C    0.124334
    18  C   -0.102345
    19  C    0.106382
    20  C    0.061050
    21  C   -0.039590
    22  C   -0.135488
    23  C   -0.094034
    24  N   -0.242552
    25  C    0.143987
    26  C   -0.093559
    27  C   -0.155150
    28  C   -0.003484
    29  C    0.033931
    30  C    0.194429
    31  C    0.026138
    32  N   -0.040213
    33  C    0.061890
    34  C   -0.147398
    35  C   -0.011929
    36  C    0.085062
    37  C    0.074833
    38  C    0.075919
    39  O   -0.186816
    40  C   -0.071083
    41  C    0.215306
    42  O   -0.199251
    43  O   -0.315598
    44  C    0.126018
    45  C    0.225537
    46  C   -0.080182
    47  C   -0.131109
    48  C    0.179965
    49  C    0.028591
    50  C   -0.118237
    51  C    0.053780
    52  C    0.010176
    53  C   -0.043160
    54  C    0.066822
    55  C    0.043739
    56  C    0.017171
    57  C   -0.041929
    58  C   -0.046284
    59  C    0.020337
    60  C    0.176959
    61  C    0.084832
    62  C   -0.128539
    63  C   -0.002706
    64  C    0.153639
    65  H   -0.008141
    66  H    0.022935
    67  H    0.033307
    68  H   -0.046566
    69  H    0.009393
    70  H    0.009542
    71  H    0.010474
    72  H    0.027742
    73  H   -0.073889
    74  H   -0.014563
    75  H   -0.014050
    76  H    0.023192
    77  H    0.052149
    78  H    0.023978
    79  H    0.065903
    80  H    0.052471
    81  H    0.065336
    82  H    0.050873
    83  H    0.010071
    84  H    0.021292
    85  H    0.022839
    86  H   -0.003041
    87  H   -0.086638
    88  H    0.029776
    89  H    0.018650
    90  H    0.002190
    91  H    0.025687
    92  H    0.059586
    93  H    0.027899
    94  H    0.093904
    95  H    0.039546
    96  H    0.042592
    97  H    0.054828
    98  H    0.038686
    99  H    0.019067
   100  H   -0.017258
   101  H    0.016806
   102  H   -0.025493
   103  H    0.011044
   104  H    0.020095
   105  H    0.006826
   106  H   -0.000479
   107  H   -0.002736
   108  H   -0.056212
   109  H    0.002232
   110  H   -0.019477
   111  H    0.013062
   112  H    0.027858
   113  H    0.018030
   114  H   -0.000307
   115  H   -0.021871
   116  H   -0.020311
   117  H   -0.018160
   118  H   -0.008217
   119  H   -0.011384
   120  H   -0.015348
   121  H    0.025462
   122  H    0.020122
   123  H   -0.001723
   124  H   -0.034349
   125  H    0.007282
   126  H   -0.051029
   127  H   -0.074611
   128  H   -0.029432
   129  H   -0.044865
   130  H   -0.007953
   131  H    0.011575
   132  H    0.028139
   133  H    0.017870
   134  H   -0.025940
   135  H   -0.015327
   136  H   -0.018288
   137  H    0.093507
   138  H    0.113436
 Sum of Mulliken charges =  -0.00000

 Dipole moment (field-independent basis, Debye):
    X=              1.8829    Y=              5.4422    Z=              0.9619  Tot=              5.8385
 Quadrupole moment (field-independent basis, Debye-Ang):
   XX=           -352.6378   YY=           -384.0415   ZZ=           -397.2091
   XY=            -25.3652   XZ=              9.1388   YZ=             -2.0885

 Normal termination of Gaussian 16 at Fri Aug 16 18:37:59 2019.
