 Gaussian 16, Revision A.03,
 Gaussian 16:  ES64L-G16RevA.03 25-Dec-2016

 --------------------------
 # td=(NStates=1) B3LYP/SVP
 --------------------------

 --
 TD
 --
 Symbolic Z-matrix:
 Charge =  0 Multiplicity = 1

                         Standard orientation:
 ---------------------------------------------------------------------
 Center     Atomic      Atomic             Coordinates (Angstroms)
 Number     Number       Type             X           Y           Z
 ---------------------------------------------------------------------
      1          6           0       -5.156385   -1.948969    0.568178
      2          6           0       -4.622638    2.812192    1.373719
      3          6           0       -9.265367    3.348924   -0.210177
      4          6           0       -9.813872   -1.438849   -0.869706
      5          7           0       -5.182983    0.455919    0.844126
      6          6           0       -4.550569   -0.707351    0.940532
      7          6           0       -3.091133   -0.596438    1.349765
      8          6           0       -3.113931    0.830617    1.959002
      9          6           0       -4.435638    1.430471    1.364585
     10          6           0       -3.079087    0.962356    3.372397
     11          6           0       -2.088593   -0.832653    0.138824
     12          6           0       -0.627795   -0.994180    0.705351
     13          6           0        0.349507   -1.174433   -0.531289
     14          8           0       -0.049618   -1.458895   -1.657188
     15          8           0        1.638979   -1.000306   -0.172512
     16          7           0       -6.911647    2.748823    0.540434
     17          6           0       -5.768469    3.458032    0.962265
     18          6           0       -6.101324    4.847434    1.146764
     19          6           0       -7.371638    5.007384    0.514073
     20          6           0       -7.918468    3.646665    0.240883
     21          6           0       -5.014198    5.845343    1.504322
     22          6           0       -7.994245    6.239590    0.275892
     23          6           0       -8.904562    6.680072   -0.633935
     24          7           0       -9.224563    0.966392   -0.428552
     25          6           0       -9.858742    2.157372   -0.469592
     26          6           0      -11.217658    1.950653   -0.906243
     27          6           0      -11.372690    0.643038   -1.168611
     28          6           0      -10.049894    0.016281   -0.812500
     29          6           0      -12.113322    3.107748   -1.167298
     30          6           0      -12.537583   -0.096802   -1.731175
     31          6           0      -12.366177   -0.378612   -3.213885
     32          7           0       -7.442988   -1.173835   -0.222338
     33          6           0       -8.490880   -1.935584   -0.726223
     34          6           0       -8.169785   -3.326330   -0.746062
     35          6           0       -6.939756   -3.395166   -0.284743
     36          6           0       -6.452073   -2.119967    0.034098
     37          6           0       -9.061553   -4.432871   -1.020991
     38          6           0       -5.811157   -4.268725   -0.005024
     39          8           0       -5.749859   -5.439864   -0.050848
     40          6           0       -4.592617   -3.286520    0.565511
     41          6           0       -3.978709   -3.795332    1.735424
     42          8           0       -4.135178   -3.416543    2.902159
     43          8           0       -3.266311   -4.975422    1.536325
     44          6           0       -2.690260   -5.749005    2.641631
     45          6           0        2.557934   -1.196851   -1.168728
     46          6           0        3.938398   -0.972732   -0.646979
     47          6           0        4.856292   -0.075480   -1.153576
     48          6           0        4.741332    0.525697   -2.509646
     49          6           0        6.149542    0.167603   -0.373312
     50          6           0        7.351023   -0.411315   -1.061416
     51          6           0        8.715191   -0.217367   -0.281555
     52          6           0       10.100983   -0.764162   -0.898737
     53          6           0       10.129799   -2.224863   -1.067267
     54          6           0       11.304460   -0.163273   -0.265719
     55          6           0       12.734847   -0.635307   -0.680508
     56          6           0       13.765881    0.107912   -0.025085
     57          6           0       15.248271   -0.171511   -0.390557
     58          6           0       15.615052   -1.752438   -0.257906
     59          6           0       16.194885    0.798074    0.334665
     60          6           0       17.748239    0.657128    0.032992
     61          6           0       18.499017    1.815748    0.642081
     62          6           0       19.988224    1.726241    0.281711
     63          6           0       20.243948    2.016252   -1.211029
     64          6           0       20.880113    2.617747    1.186084
     65          1           0       -3.958555    3.350317    1.946956
     66          1           0      -10.131173    4.132588   -0.071246
     67          1           0      -10.495088   -1.952895   -1.383894
     68          1           0       -2.707786   -1.372851    2.042599
     69          1           0       -2.260425    1.336196    1.312545
     70          1           0       -2.127757    0.701644    3.728641
     71          1           0       -3.128709    2.091226    3.587670
     72          1           0       -3.929295    0.364220    3.922414
     73          1           0       -2.356482   -1.533292   -0.412699
     74          1           0       -2.257146    0.203453   -0.541425
     75          1           0       -0.414100   -0.077789    1.215798
     76          1           0       -0.610689   -1.801856    1.603488
     77          1           0       -4.111667    5.860012    0.644170
     78          1           0       -5.358127    6.834047    1.597348
     79          1           0       -4.633924    5.364768    2.353561
     80          1           0       -7.597781    7.060358    0.865193
     81          1           0       -9.506811    5.948862   -1.464949
     82          1           0       -9.178891    7.620144   -0.611530
     83          1           0      -12.129646    3.755672   -0.219740
     84          1           0      -11.707453    3.778188   -1.843191
     85          1           0      -13.086601    2.880360   -1.524559
     86          1           0      -12.760370   -1.026334   -1.221726
     87          1           0      -13.576129    0.461355   -1.473077
     88          1           0      -12.521103    0.726345   -3.739422
     89          1           0      -11.476175   -0.957597   -3.658186
     90          1           0      -13.091439   -1.167816   -3.632224
     91          1           0      -10.150088   -4.454813   -0.657470
     92          1           0       -9.165755   -4.360191   -2.122483
     93          1           0       -8.706824   -5.487567   -0.496421
     94          1           0       -3.987071   -3.522132   -0.163434
     95          1           0       -2.031207   -6.483106    2.110581
     96          1           0       -2.209755   -5.111370    3.347796
     97          1           0       -3.538974   -6.309044    2.990488
     98          1           0        2.401741   -2.254046   -1.438755
     99          1           0        2.135719   -0.521590   -1.966595
    100          1           0        4.180915   -1.294344    0.375295
    101          1           0        5.251601    1.566577   -2.251914
    102          1           0        5.245775   -0.195830   -3.342109
    103          1           0        3.672205    0.742848   -2.617660
    104          1           0        6.132999    1.113241    0.114399
    105          1           0        6.223598   -0.477758    0.478114
    106          1           0        7.096573   -1.480844   -1.371356
    107          1           0        7.527435    0.065896   -1.985980
    108          1           0        9.011126    0.757443   -0.180969
    109          1           0        8.692266   -0.503657    0.850697
    110          1           0       10.104127   -0.295708   -2.101516
    111          1           0        9.244833   -2.583585   -1.754830
    112          1           0       11.161065   -2.584142   -1.301356
    113          1           0       10.057753   -2.824674   -0.181290
    114          1           0       11.386194    0.967025   -0.202315
    115          1           0       11.086612   -0.340870    0.921980
    116          1           0       12.745493   -1.824361   -0.465704
    117          1           0       12.691966   -0.553931   -1.746977
    118          1           0       13.443238    1.192643   -0.027582
    119          1           0       13.774991    0.043410    1.030717
    120          1           0       15.460963   -0.012496   -1.480485
    121          1           0       14.846755   -2.299725   -0.784479
    122          1           0       16.636787   -2.120449   -0.621346
    123          1           0       15.493454   -2.076015    0.825852
    124          1           0       15.771154    1.666493    0.072243
    125          1           0       16.111273    0.680519    1.505985
    126          1           0       18.203019   -0.438497    0.383947
    127          1           0       18.052689    0.646429   -1.146939
    128          1           0       17.970823    2.936370    0.436977
    129          1           0       18.350770    1.848321    1.791657
    130          1           0       20.270473    0.677678    0.494201
    131          1           0       19.812290    2.961534   -1.330729
    132          1           0       21.284437    2.084957   -1.377020
    133          1           0       19.737473    1.172703   -1.857795
    134          1           0       20.782379    2.256921    2.262523
    135          1           0       21.768326    2.664188    0.765786
    136          1           0       20.490758    3.559439    1.058816
    137          1           0       -6.974543    1.680864    0.506043
    138          1           0       -7.556367   -0.227853   -0.257943
 ---------------------------------------------------------------------

 SCF Done:  E(RB3LYP) =  -2733.06468775     A.U. after   17 cycles

 Excitation energies and oscillator strengths:

 Excited State   1:      Singlet-A      1.9558 eV  633.95 nm  f=0.1944  <S**2>=0.000
     235 -> 238       -0.28610
     236 -> 237        0.63838
 This state for optimization and/or second-order correction.
 Total Energy, E(TD-HF/TD-DFT) =  -2732.99281509
 Copying the excited state density for this state as the 1-particle RhoCI density.

 The electronic state is 1-A.
 Alpha  occ. eigenvalues --  -19.18248 -19.15419 -19.13740 -19.13315 -19.10875
 Alpha  occ. eigenvalues --  -14.37369 -14.36535 -14.32526 -14.29307 -10.32568
 Alpha  occ. eigenvalues --  -10.30487 -10.28883 -10.24635 -10.24570 -10.23917
 Alpha  occ. eigenvalues --  -10.23731 -10.23411 -10.23383 -10.23320 -10.22486
 Alpha  occ. eigenvalues --  -10.21901 -10.21553 -10.21240 -10.21087 -10.20815
 Alpha  occ. eigenvalues --  -10.20728 -10.20604 -10.20601 -10.20534 -10.20532
 Alpha  occ. eigenvalues --  -10.20434 -10.20362 -10.20330 -10.20297 -10.20266
 Alpha  occ. eigenvalues --  -10.20100 -10.19895 -10.19860 -10.19774 -10.19718
 Alpha  occ. eigenvalues --  -10.19611 -10.19605 -10.19600 -10.19551 -10.19528
 Alpha  occ. eigenvalues --  -10.19521 -10.19357 -10.19036 -10.18967 -10.18953
 Alpha  occ. eigenvalues --  -10.18892 -10.18764 -10.18709 -10.18409 -10.18395
 Alpha  occ. eigenvalues --  -10.18360 -10.18256 -10.18216 -10.18003 -10.17993
 Alpha  occ. eigenvalues --  -10.17939 -10.17795 -10.17485 -10.16203  -1.11042
 Alpha  occ. eigenvalues --   -1.06515  -1.05669  -1.01353  -0.98807  -0.97279
 Alpha  occ. eigenvalues --   -0.96715  -0.95340  -0.94373  -0.86222  -0.82917
 Alpha  occ. eigenvalues --   -0.82790  -0.82135  -0.81492  -0.80966  -0.80843
 Alpha  occ. eigenvalues --   -0.80796  -0.79666  -0.79546  -0.79221  -0.78057
 Alpha  occ. eigenvalues --   -0.77143  -0.76671  -0.75986  -0.75324  -0.74339
 Alpha  occ. eigenvalues --   -0.73667  -0.73427  -0.72793  -0.71893  -0.70734
 Alpha  occ. eigenvalues --   -0.70295  -0.69035  -0.68550  -0.68373  -0.68133
 Alpha  occ. eigenvalues --   -0.68112  -0.66920  -0.66814  -0.66628  -0.65668
 Alpha  occ. eigenvalues --   -0.64525  -0.63367  -0.62682  -0.62035  -0.61321
 Alpha  occ. eigenvalues --   -0.61012  -0.59420  -0.59332  -0.58229  -0.57633
 Alpha  occ. eigenvalues --   -0.56850  -0.56441  -0.56084  -0.55219  -0.55127
 Alpha  occ. eigenvalues --   -0.54524  -0.54442  -0.53825  -0.53429  -0.53196
 Alpha  occ. eigenvalues --   -0.52929  -0.52243  -0.51436  -0.51216  -0.51133
 Alpha  occ. eigenvalues --   -0.50737  -0.50270  -0.49011  -0.48350  -0.48323
 Alpha  occ. eigenvalues --   -0.48121  -0.47950  -0.47621  -0.47505  -0.46729
 Alpha  occ. eigenvalues --   -0.46570  -0.46418  -0.46388  -0.45889  -0.45817
 Alpha  occ. eigenvalues --   -0.45685  -0.45489  -0.45099  -0.44926  -0.44604
 Alpha  occ. eigenvalues --   -0.44568  -0.44221  -0.44138  -0.43993  -0.43798
 Alpha  occ. eigenvalues --   -0.43709  -0.43615  -0.43277  -0.43240  -0.42932
 Alpha  occ. eigenvalues --   -0.42739  -0.42680  -0.42232  -0.42178  -0.42135
 Alpha  occ. eigenvalues --   -0.41695  -0.41513  -0.40916  -0.40812  -0.40682
 Alpha  occ. eigenvalues --   -0.40350  -0.40297  -0.39915  -0.39846  -0.39592
 Alpha  occ. eigenvalues --   -0.39470  -0.39336  -0.39274  -0.39196  -0.39028
 Alpha  occ. eigenvalues --   -0.38773  -0.38510  -0.38172  -0.37887  -0.37626
 Alpha  occ. eigenvalues --   -0.37555  -0.37405  -0.37259  -0.37132  -0.36983
 Alpha  occ. eigenvalues --   -0.36898  -0.36537  -0.36208  -0.36169  -0.35751
 Alpha  occ. eigenvalues --   -0.35663  -0.35331  -0.35240  -0.35156  -0.34534
 Alpha  occ. eigenvalues --   -0.34366  -0.34189  -0.34055  -0.33779  -0.33547
 Alpha  occ. eigenvalues --   -0.33504  -0.33092  -0.33029  -0.32355  -0.32135
 Alpha  occ. eigenvalues --   -0.32076  -0.31713  -0.31489  -0.31430  -0.31265
 Alpha  occ. eigenvalues --   -0.30832  -0.30826  -0.30689  -0.29808  -0.29664
 Alpha  occ. eigenvalues --   -0.29118  -0.28682  -0.28573  -0.28386  -0.28295
 Alpha  occ. eigenvalues --   -0.27344  -0.27046  -0.26647  -0.26152  -0.25646
 Alpha  occ. eigenvalues --   -0.25477  -0.24675  -0.23233  -0.23006  -0.19971
 Alpha  occ. eigenvalues --   -0.18549
 Alpha virt. eigenvalues --   -0.10451  -0.07840  -0.04455  -0.01714  -0.01083
 Alpha virt. eigenvalues --   -0.00846  -0.00516   0.00557   0.02117   0.03691
 Alpha virt. eigenvalues --    0.03783   0.04093   0.04460   0.04769   0.04936

 Mulliken charges:
               1
     1  C    0.146088
     2  C   -0.022486
     3  C   -0.102571
     4  C    0.022637
     5  N   -0.128628
     6  C   -0.072046
     7  C   -0.086649
     8  C   -0.083407
     9  C   -0.031172
    10  C    0.142874
    11  C    0.102406
    12  C    0.003580
    13  C    0.208431
    14  O   -0.246896
    15  O   -0.278343
    16  N   -0.120360
    17  C    0.122854
    18  C   -0.146069
    19  C    0.075143
    20  C    0.122244
    21  C    0.093460
    22  C   -0.089914
    23  C   -0.022231
    24  N   -0.197569
    25  C    0.000201
    26  C   -0.115607
    27  C   -0.082290
    28  C   -0.013801
    29  C    0.154909
    30  C    0.044838
    31  C   -0.061936
    32  N   -0.011976
    33  C    0.048238
    34  C   -0.145383
    35  C    0.088474
    36  C    0.007508
    37  C    0.009352
    38  C    0.012252
    39  O   -0.095567
    40  C    0.048145
    41  C    0.175250
    42  O   -0.257103
    43  O   -0.366402
    44  C    0.216595
    45  C    0.258297
    46  C   -0.045155
    47  C   -0.236242
    48  C    0.048614
    49  C    0.107063
    50  C    0.047531
    51  C    0.054204
    52  C   -0.094349
    53  C    0.049705
    54  C   -0.081004
    55  C    0.069655
    56  C    0.047803
    57  C   -0.054441
    58  C   -0.016482
    59  C    0.084088
    60  C   -0.050745
    61  C   -0.029181
    62  C   -0.140294
    63  C    0.056749
    64  C    0.155564
    65  H   -0.062003
    66  H    0.022481
    67  H   -0.065312
    68  H    0.001799
    69  H    0.008580
    70  H   -0.011296
    71  H    0.001628
    72  H    0.051491
    73  H   -0.064557
    74  H    0.023341
    75  H    0.011435
    76  H    0.062749
    77  H    0.052771
    78  H    0.008822
    79  H    0.024026
    80  H   -0.013316
    81  H    0.050699
    82  H   -0.022518
    83  H    0.018918
    84  H   -0.006377
    85  H   -0.005097
    86  H   -0.004874
    87  H    0.019324
    88  H    0.037575
    89  H    0.030422
    90  H    0.009115
    91  H    0.039183
    92  H    0.039307
    93  H    0.069842
    94  H   -0.020448
    95  H    0.035727
    96  H    0.035172
    97  H    0.027723
    98  H    0.006470
    99  H    0.023560
   100  H   -0.005189
   101  H    0.027901
   102  H    0.078409
   103  H    0.019235
   104  H   -0.000330
   105  H   -0.026463
   106  H    0.014744
   107  H   -0.018138
   108  H   -0.036937
   109  H   -0.005395
   110  H   -0.006450
   111  H    0.028311
   112  H    0.002396
   113  H   -0.018805
   114  H   -0.000903
   115  H   -0.009049
   116  H    0.026925
   117  H   -0.007635
   118  H   -0.018027
   119  H   -0.033198
   120  H   -0.008591
   121  H    0.003607
   122  H    0.028548
   123  H    0.004223
   124  H   -0.035508
   125  H    0.003901
   126  H    0.027324
   127  H    0.011526
   128  H    0.006428
   129  H   -0.004702
   130  H   -0.012955
   131  H   -0.009674
   132  H   -0.004032
   133  H    0.032383
   134  H    0.023457
   135  H   -0.043893
   136  H   -0.032598
   137  H    0.180836
   138  H    0.083504
 Sum of Mulliken charges =  -0.00000

 Dipole moment (field-independent basis, Debye):
    X=              2.4297    Y=              2.9358    Z=              0.3192  Tot=              3.8242
 Quadrupole moment (field-independent basis, Debye-Ang):
   XX=           -354.1035   YY=           -378.6000   ZZ=           -399.7515
   XY=             -7.3853   XZ=             13.8233   YZ=              3.4110

 Normal termination of Gaussian 16 at Tue Aug 13 03:51:17 2019.
