 Gaussian 16, Revision A.03,
 Gaussian 16:  ES64L-G16RevA.03 25-Dec-2016

 --------------------------
 # td=(NStates=1) B3LYP/SVP
 --------------------------

 --
 TD
 --
 Symbolic Z-matrix:
 Charge =  0 Multiplicity = 1

                         Standard orientation:
 ---------------------------------------------------------------------
 Center     Atomic      Atomic             Coordinates (Angstroms)
 Number     Number       Type             X           Y           Z
 ---------------------------------------------------------------------
      1          6           0       -5.212800   -1.890398    0.439855
      2          6           0       -4.723356    2.846741    1.244992
      3          6           0       -9.274200    3.317167   -0.175867
      4          6           0       -9.904576   -1.435667   -0.728517
      5          7           0       -5.158260    0.565305    0.696042
      6          6           0       -4.502121   -0.649342    0.657064
      7          6           0       -3.015274   -0.573712    1.239764
      8          6           0       -3.016879    0.970192    1.739812
      9          6           0       -4.351795    1.443100    1.208595
     10          6           0       -2.778681    0.954377    3.316326
     11          6           0       -2.088483   -0.827035   -0.022839
     12          6           0       -0.641169   -0.833964    0.492726
     13          6           0        0.279769   -1.167550   -0.602940
     14          8           0        0.092734   -1.870783   -1.622576
     15          8           0        1.575914   -0.622825   -0.325977
     16          7           0       -7.004244    2.814396    0.450784
     17          6           0       -5.867833    3.446673    0.860487
     18          6           0       -6.083301    4.932040    0.864194
     19          6           0       -7.434605    5.050208    0.428747
     20          6           0       -8.068635    3.749482    0.245292
     21          6           0       -5.161629    5.899040    1.200594
     22          6           0       -8.150795    6.303434    0.221434
     23          6           0       -9.203706    6.643721   -0.463923
     24          7           0       -9.239690    0.880709   -0.477795
     25          6           0       -9.936936    2.074685   -0.395717
     26          6           0      -11.390150    1.954788   -0.753151
     27          6           0      -11.460475    0.537878   -0.992657
     28          6           0      -10.109968   -0.108621   -0.795771
     29          6           0      -12.393491    2.909506   -0.806514
     30          6           0      -12.713434   -0.300807   -1.352395
     31          6           0      -12.845880   -0.660282   -2.860868
     32          7           0       -7.539448   -1.168116   -0.415260
     33          6           0       -8.647351   -2.046622   -0.580636
     34          6           0       -8.304504   -3.329572   -0.574393
     35          6           0       -6.915602   -3.449854   -0.265342
     36          6           0       -6.477400   -1.974541   -0.132930
     37          6           0       -9.119731   -4.594255   -1.041107
     38          6           0       -5.758418   -4.298886    0.025420
     39          8           0       -5.776487   -5.503115    0.096153
     40          6           0       -4.584310   -3.384483    0.417601
     41          6           0       -3.899608   -3.767885    1.749077
     42          8           0       -3.981507   -3.145206    2.803412
     43          8           0       -3.119718   -4.825552    1.556885
     44          6           0       -2.460924   -5.388863    2.627442
     45          6           0        2.562553   -1.084161   -1.319855
     46          6           0        3.931579   -0.612287   -0.736913
     47          6           0        5.045503   -0.027803   -1.334699
     48          6           0        5.009778    0.410504   -2.805353
     49          6           0        6.256682    0.227902   -0.574156
     50          6           0        7.583695   -0.502208   -1.076101
     51          6           0        8.782015   -0.213518   -0.207271
     52          6           0       10.183608   -0.915769   -0.645656
     53          6           0       10.157432   -2.447295   -0.683390
     54          6           0       11.336447   -0.373183    0.165467
     55          6           0       12.750639   -0.681433   -0.338288
     56          6           0       13.921739   -0.071205    0.397518
     57          6           0       15.289215   -0.301370   -0.124480
     58          6           0       15.696243   -1.752616   -0.314090
     59          6           0       16.428007    0.622787    0.526455
     60          6           0       17.677056    0.822848   -0.198314
     61          6           0       18.595139    1.671858    0.645501
     62          6           0       20.046149    1.833794    0.094972
     63          6           0       20.103058    2.324766   -1.453424
     64          6           0       20.982490    2.687771    1.076923
     65          1           0       -3.871245    3.504011    1.584007
     66          1           0      -10.118338    4.135254   -0.125342
     67          1           0      -10.822998   -2.178969   -0.676478
     68          1           0       -2.903320   -1.178969    2.132810
     69          1           0       -2.151291    1.446554    1.156135
     70          1           0       -1.797598    0.434390    3.561924
     71          1           0       -3.158766    1.890623    3.672194
     72          1           0       -3.426308    0.448467    3.942738
     73          1           0       -2.457593   -1.715063   -0.415143
     74          1           0       -2.336127   -0.243594   -0.794572
     75          1           0       -0.213901    0.289132    0.741618
     76          1           0       -0.455910   -1.452623    1.190786
     77          1           0       -4.125529    5.711981    0.844944
     78          1           0       -5.412966    7.026065    0.778710
     79          1           0       -4.934881    6.048737    2.362648
     80          1           0       -7.676022    7.222266    0.717610
     81          1           0       -9.673990    5.891515   -1.152045
     82          1           0       -9.720677    7.737507   -0.725919
     83          1           0      -12.573263    3.444567    0.313849
     84          1           0      -12.166318    3.621433   -1.760988
     85          1           0      -13.579754    2.532619   -0.918273
     86          1           0      -12.913269   -1.113014   -0.612716
     87          1           0      -13.576103    0.349494   -1.125649
     88          1           0      -12.980715    0.214863   -3.600169
     89          1           0      -12.050911   -1.368256   -3.148302
     90          1           0      -13.779589   -1.363920   -3.028038
     91          1           0       -9.571233   -4.884521   -0.070970
     92          1           0       -9.747536   -4.251176   -1.992382
     93          1           0       -8.331144   -5.422292   -1.480467
     94          1           0       -3.867125   -3.516198   -0.360080
     95          1           0       -1.973037   -6.401447    2.431102
     96          1           0       -1.561077   -4.763808    3.131335
     97          1           0       -3.298663   -5.545602    3.530433
     98          1           0        2.502545   -2.104027   -1.299106
     99          1           0        2.358349   -0.752645   -2.293394
    100          1           0        4.027488   -1.096530    0.334530
    101          1           0        4.945985    1.563223   -2.799282
    102          1           0        6.055105    0.129110   -3.229463
    103          1           0        4.065471    0.034316   -3.448968
    104          1           0        6.250226    1.458442   -0.467667
    105          1           0        6.109839   -0.114772    0.441030
    106          1           0        7.238006   -1.551876   -0.803240
    107          1           0        8.047009   -0.362847   -2.083621
    108          1           0        8.857275    0.798717   -0.110994
    109          1           0        8.614742   -0.742287    0.862322
    110          1           0       10.253037   -0.797658   -1.809494
    111          1           0        9.220931   -2.914172   -1.304929
    112          1           0       11.050747   -2.804241   -1.080789
    113          1           0       10.130845   -2.670198    0.438881
    114          1           0       11.475594    0.851378    0.262143
    115          1           0       11.160076   -0.888606    1.140080
    116          1           0       12.849405   -1.786303   -0.427369
    117          1           0       12.788554   -0.381313   -1.437324
    118          1           0       13.745579    1.063728    0.746949
    119          1           0       13.964306   -0.456369    1.372151
    120          1           0       15.303982    0.044124   -1.230384
    121          1           0       15.032957   -2.485915   -0.977083
    122          1           0       16.823978   -1.909851   -0.530616
    123          1           0       15.787701   -2.213523    0.576756
    124          1           0       15.717644    1.662551    0.520495
    125          1           0       16.537785    0.197172    1.659595
    126          1           0       18.181958   -0.131640   -0.300149
    127          1           0       17.594968    1.290691   -1.209676
    128          1           0       18.215136    2.695174    0.703483
    129          1           0       18.465824    1.448236    1.582071
    130          1           0       20.567050    0.837591    0.254826
    131          1           0       19.813676    3.441511   -1.383071
    132          1           0       21.131747    2.207305   -1.826176
    133          1           0       19.519064    1.842735   -2.046741
    134          1           0       20.635882    2.283669    1.991676
    135          1           0       22.013981    2.652336    0.992601
    136          1           0       20.698016    3.853096    1.017297
    137          1           0       -7.112376    1.792250    0.387706
    138          1           0       -7.873532   -0.259243   -0.302124
 ---------------------------------------------------------------------

 SCF Done:  E(RB3LYP) =  -2733.00958366     A.U. after   17 cycles

 Excitation energies and oscillator strengths:

 Excited State   1:      Singlet-A      2.0924 eV  592.56 nm  f=0.1388  <S**2>=0.000
     235 -> 238       -0.34261
     236 -> 237        0.61334
 This state for optimization and/or second-order correction.
 Total Energy, E(TD-HF/TD-DFT) =  -2732.93269099
 Copying the excited state density for this state as the 1-particle RhoCI density.

 The electronic state is 1-A.
 Alpha  occ. eigenvalues --  -19.19406 -19.16832 -19.13141 -19.13037 -19.11472
 Alpha  occ. eigenvalues --  -14.36402 -14.36102 -14.32664 -14.30390 -10.32714
 Alpha  occ. eigenvalues --  -10.31783 -10.27530 -10.27011 -10.24163 -10.24040
 Alpha  occ. eigenvalues --  -10.24024 -10.23690 -10.23374 -10.23363 -10.22775
 Alpha  occ. eigenvalues --  -10.22387 -10.22117 -10.22076 -10.21793 -10.21708
 Alpha  occ. eigenvalues --  -10.21579 -10.21530 -10.21229 -10.21215 -10.21067
 Alpha  occ. eigenvalues --  -10.20968 -10.20962 -10.20743 -10.20723 -10.20719
 Alpha  occ. eigenvalues --  -10.20518 -10.20483 -10.20444 -10.20397 -10.20279
 Alpha  occ. eigenvalues --  -10.20139 -10.20062 -10.20035 -10.19891 -10.19871
 Alpha  occ. eigenvalues --  -10.19622 -10.19603 -10.19597 -10.19591 -10.19512
 Alpha  occ. eigenvalues --  -10.19326 -10.19256 -10.19210 -10.19187 -10.19026
 Alpha  occ. eigenvalues --  -10.18946 -10.18830 -10.18772 -10.18337 -10.18062
 Alpha  occ. eigenvalues --  -10.18012 -10.17885 -10.17608 -10.16565  -1.11599
 Alpha  occ. eigenvalues --   -1.06179  -1.02680  -1.01134  -0.98360  -0.97614
 Alpha  occ. eigenvalues --   -0.96874  -0.94912  -0.92672  -0.83705  -0.82439
 Alpha  occ. eigenvalues --   -0.82347  -0.82005  -0.81706  -0.81189  -0.80773
 Alpha  occ. eigenvalues --   -0.80346  -0.79492  -0.79340  -0.78322  -0.77519
 Alpha  occ. eigenvalues --   -0.76796  -0.76233  -0.76094  -0.74927  -0.74589
 Alpha  occ. eigenvalues --   -0.73837  -0.73248  -0.72331  -0.71623  -0.70903
 Alpha  occ. eigenvalues --   -0.69783  -0.69300  -0.68268  -0.68034  -0.67539
 Alpha  occ. eigenvalues --   -0.67463  -0.66943  -0.66505  -0.66030  -0.65165
 Alpha  occ. eigenvalues --   -0.64473  -0.63505  -0.62439  -0.61622  -0.61287
 Alpha  occ. eigenvalues --   -0.60891  -0.58785  -0.58582  -0.57383  -0.57140
 Alpha  occ. eigenvalues --   -0.56731  -0.56599  -0.56103  -0.56041  -0.55858
 Alpha  occ. eigenvalues --   -0.54922  -0.54020  -0.53657  -0.53140  -0.52676
 Alpha  occ. eigenvalues --   -0.52110  -0.51639  -0.51386  -0.50890  -0.50175
 Alpha  occ. eigenvalues --   -0.50050  -0.49442  -0.49003  -0.48881  -0.48457
 Alpha  occ. eigenvalues --   -0.48183  -0.47919  -0.47597  -0.47098  -0.47083
 Alpha  occ. eigenvalues --   -0.46622  -0.46306  -0.45860  -0.45598  -0.45411
 Alpha  occ. eigenvalues --   -0.45336  -0.45129  -0.45043  -0.44672  -0.44587
 Alpha  occ. eigenvalues --   -0.44458  -0.43996  -0.43879  -0.43715  -0.43555
 Alpha  occ. eigenvalues --   -0.43350  -0.43104  -0.43043  -0.42965  -0.42721
 Alpha  occ. eigenvalues --   -0.42260  -0.42162  -0.42011  -0.41932  -0.41490
 Alpha  occ. eigenvalues --   -0.41286  -0.41050  -0.41022  -0.40862  -0.40580
 Alpha  occ. eigenvalues --   -0.40133  -0.40063  -0.39982  -0.39597  -0.39214
 Alpha  occ. eigenvalues --   -0.38742  -0.38629  -0.38548  -0.38312  -0.38193
 Alpha  occ. eigenvalues --   -0.38082  -0.37921  -0.37840  -0.37605  -0.37429
 Alpha  occ. eigenvalues --   -0.37285  -0.37173  -0.37075  -0.36825  -0.36699
 Alpha  occ. eigenvalues --   -0.36581  -0.36446  -0.35968  -0.35923  -0.35585
 Alpha  occ. eigenvalues --   -0.35354  -0.35097  -0.34930  -0.34581  -0.34560
 Alpha  occ. eigenvalues --   -0.34296  -0.33896  -0.33811  -0.33599  -0.33379
 Alpha  occ. eigenvalues --   -0.33002  -0.32791  -0.32649  -0.32471  -0.32311
 Alpha  occ. eigenvalues --   -0.32244  -0.32230  -0.31821  -0.31439  -0.31060
 Alpha  occ. eigenvalues --   -0.30731  -0.30305  -0.30205  -0.30036  -0.29973
 Alpha  occ. eigenvalues --   -0.29874  -0.29419  -0.28798  -0.28667  -0.28229
 Alpha  occ. eigenvalues --   -0.28215  -0.27427  -0.26897  -0.26179  -0.25953
 Alpha  occ. eigenvalues --   -0.24759  -0.23880  -0.23705  -0.22337  -0.19935
 Alpha  occ. eigenvalues --   -0.19046
 Alpha virt. eigenvalues --   -0.10101  -0.08115  -0.05087  -0.01744  -0.01279
 Alpha virt. eigenvalues --   -0.00963  -0.00491   0.00353   0.01942   0.03485
 Alpha virt. eigenvalues --    0.03694   0.03740   0.04141   0.04304   0.04418

 Mulliken charges:
               1
     1  C   -0.001052
     2  C   -0.103529
     3  C   -0.089822
     4  C   -0.117466
     5  N   -0.132538
     6  C   -0.058043
     7  C   -0.092516
     8  C   -0.037742
     9  C   -0.060973
    10  C    0.108036
    11  C    0.159749
    12  C    0.147557
    13  C    0.182647
    14  O   -0.268053
    15  O   -0.382087
    16  N   -0.109691
    17  C    0.161192
    18  C   -0.037184
    19  C    0.084222
    20  C    0.122043
    21  C   -0.035180
    22  C   -0.049684
    23  C   -0.114709
    24  N   -0.269057
    25  C    0.013804
    26  C   -0.018435
    27  C   -0.113973
    28  C    0.105138
    29  C   -0.102273
    30  C    0.067895
    31  C   -0.025379
    32  N   -0.013258
    33  C    0.050204
    34  C   -0.156256
    35  C   -0.044974
    36  C    0.107957
    37  C    0.023061
    38  C    0.056339
    39  O   -0.167685
    40  C   -0.025976
    41  C    0.219340
    42  O   -0.234555
    43  O   -0.235591
    44  C    0.082778
    45  C    0.355143
    46  C   -0.135390
    47  C   -0.130897
    48  C    0.005827
    49  C    0.057801
    50  C   -0.005490
    51  C    0.049508
    52  C   -0.114981
    53  C   -0.001252
    54  C    0.015608
    55  C    0.010822
    56  C    0.082807
    57  C   -0.063973
    58  C    0.034565
    59  C   -0.106137
    60  C    0.104472
    61  C    0.097107
    62  C   -0.122181
    63  C    0.078317
    64  C    0.030353
    65  H   -0.019583
    66  H    0.014691
    67  H    0.026013
    68  H    0.028877
    69  H    0.014196
    70  H    0.036567
    71  H   -0.010991
    72  H   -0.008950
    73  H   -0.021545
    74  H   -0.039054
    75  H    0.069561
    76  H   -0.028248
    77  H    0.031504
    78  H    0.048290
    79  H    0.047798
    80  H    0.005964
    81  H    0.024901
    82  H    0.056451
    83  H    0.057375
    84  H    0.062557
    85  H    0.043735
    86  H    0.014887
    87  H   -0.022735
    88  H    0.039006
    89  H    0.014387
    90  H    0.010422
    91  H    0.054140
    92  H    0.052757
    93  H    0.069838
    94  H    0.052247
    95  H    0.053068
    96  H    0.039489
    97  H    0.050436
    98  H   -0.011122
    99  H   -0.007130
   100  H    0.008310
   101  H    0.030772
   102  H    0.036226
   103  H    0.044529
   104  H    0.025062
   105  H   -0.010278
   106  H    0.020208
   107  H    0.023641
   108  H   -0.021357
   109  H   -0.004124
   110  H   -0.010470
   111  H    0.041620
   112  H    0.008166
   113  H    0.001721
   114  H    0.022357
   115  H    0.000032
   116  H   -0.007077
   117  H   -0.005677
   118  H   -0.006019
   119  H   -0.040725
   120  H   -0.013749
   121  H    0.036724
   122  H   -0.000405
   123  H   -0.047663
   124  H    0.018414
   125  H    0.020995
   126  H   -0.013899
   127  H    0.011850
   128  H   -0.031145
   129  H   -0.074743
   130  H   -0.002829
   131  H    0.018922
   132  H    0.009651
   133  H   -0.030512
   134  H   -0.000275
   135  H    0.002401
   136  H    0.008808
   137  H    0.152941
   138  H    0.091487
 Sum of Mulliken charges =  -0.00000

 Dipole moment (field-independent basis, Debye):
    X=              2.4551    Y=              3.5985    Z=              0.9031  Tot=              4.4489
 Quadrupole moment (field-independent basis, Debye-Ang):
   XX=           -346.0169   YY=           -387.8751   ZZ=           -396.2637
   XY=            -31.6698   XZ=              5.6946   YZ=             -3.7746

 Normal termination of Gaussian 16 at Fri Aug 23 23:35:35 2019.
