 Gaussian 16, Revision A.03,
 Gaussian 16:  ES64L-G16RevA.03 25-Dec-2016

 --------------------------
 # td=(NStates=1) B3LYP/SVP
 --------------------------

 --
 TD
 --
 Symbolic Z-matrix:
 Charge =  0 Multiplicity = 1

                         Standard orientation:
 ---------------------------------------------------------------------
 Center     Atomic      Atomic             Coordinates (Angstroms)
 Number     Number       Type             X           Y           Z
 ---------------------------------------------------------------------
      1          6           0       -5.114972   -1.941595    0.450535
      2          6           0       -4.662389    2.733603    1.683594
      3          6           0       -9.144674    3.232218   -0.338723
      4          6           0       -9.829335   -1.479847   -1.041716
      5          7           0       -5.110116    0.416428    0.924719
      6          6           0       -4.510828   -0.753154    0.942522
      7          6           0       -3.018403   -0.611979    1.444808
      8          6           0       -3.121405    0.799455    2.104061
      9          6           0       -4.379093    1.383828    1.539356
     10          6           0       -3.017332    0.826761    3.534118
     11          6           0       -2.174878   -0.655805    0.181772
     12          6           0       -0.653807   -0.710342    0.696226
     13          6           0        0.340065   -0.933878   -0.502355
     14          8           0        0.080077   -1.379923   -1.614186
     15          8           0        1.601821   -0.753598   -0.083127
     16          7           0       -6.946270    2.695744    0.607912
     17          6           0       -5.863426    3.298435    1.193116
     18          6           0       -6.151451    4.739308    1.292937
     19          6           0       -7.382880    4.930985    0.677060
     20          6           0       -7.769133    3.557023    0.098932
     21          6           0       -5.214209    5.768347    1.937641
     22          6           0       -8.176762    6.235575    0.521799
     23          6           0       -8.906678    6.666596   -0.464260
     24          7           0       -9.092810    0.856670   -0.609765
     25          6           0       -9.791847    2.085761   -0.787925
     26          6           0      -11.131536    1.914797   -1.217218
     27          6           0      -11.334908    0.603973   -1.404422
     28          6           0      -10.046541   -0.084058   -0.965217
     29          6           0      -12.238788    3.008089   -1.267210
     30          6           0      -12.512742   -0.127334   -2.016523
     31          6           0      -12.495075   -0.141696   -3.636955
     32          7           0       -7.443279   -1.211466   -0.187901
     33          6           0       -8.627574   -2.067308   -0.765536
     34          6           0       -8.167065   -3.442797   -0.807995
     35          6           0       -6.867515   -3.431518   -0.200797
     36          6           0       -6.408971   -2.050939    0.095217
     37          6           0       -8.950937   -4.543835   -1.180531
     38          6           0       -5.745572   -4.261738    0.050194
     39          8           0       -5.561811   -5.465829   -0.075569
     40          6           0       -4.558741   -3.337131    0.418902
     41          6           0       -4.007614   -3.795774    1.707437
     42          8           0       -4.112646   -3.401798    2.835583
     43          8           0       -3.244247   -4.956727    1.544630
     44          6           0       -2.865906   -5.765750    2.692682
     45          6           0        2.585422   -0.931032   -1.071755
     46          6           0        3.940579   -0.457876   -0.536888
     47          6           0        5.005965    0.142535   -1.224775
     48          6           0        4.837992    0.737242   -2.612889
     49          6           0        6.232641    0.441056   -0.434689
     50          6           0        7.486016   -0.199462   -1.007740
     51          6           0        8.803605   -0.016551   -0.124618
     52          6           0       10.035303   -0.833807   -0.701705
     53          6           0        9.738051   -2.373399   -0.582701
     54          6           0       11.234645   -0.326197    0.067978
     55          6           0       12.575565   -0.656246   -0.481853
     56          6           0       13.800683   -0.114308    0.312692
     57          6           0       15.165697   -0.320429   -0.288222
     58          6           0       15.510777   -1.753892   -0.390181
     59          6           0       16.176679    0.574685    0.365015
     60          6           0       17.558543    0.690871   -0.319123
     61          6           0       18.565311    1.568454    0.518528
     62          6           0       20.094175    1.580306   -0.028516
     63          6           0       20.191899    1.970181   -1.510365
     64          6           0       20.941393    2.657411    0.817005
     65          1           0       -3.908512    3.458388    2.098878
     66          1           0       -9.816158    4.181932   -0.441723
     67          1           0      -10.565867   -2.186724   -1.414150
     68          1           0       -2.762934   -1.550083    2.233977
     69          1           0       -2.407472    1.588676    1.725609
     70          1           0       -2.034479    0.556074    4.048952
     71          1           0       -3.020886    1.823989    3.944594
     72          1           0       -3.844067    0.365891    4.174691
     73          1           0       -2.376795   -1.613982   -0.410606
     74          1           0       -2.249962    0.317993   -0.477626
     75          1           0       -0.244354    0.164979    1.329394
     76          1           0       -0.607508   -1.747523    1.254203
     77          1           0       -4.153843    5.829577    1.317433
     78          1           0       -5.743104    6.677730    1.946075
     79          1           0       -5.003325    5.369625    2.864229
     80          1           0       -8.103320    6.860562    1.309157
     81          1           0       -9.350386    6.181957   -1.438305
     82          1           0       -9.472639    7.657854   -0.217787
     83          1           0      -12.120770    3.897054   -0.552441
     84          1           0      -12.180849    3.719263   -2.077170
     85          1           0      -13.253116    2.583155   -1.376350
     86          1           0      -12.545791   -1.167711   -1.644273
     87          1           0      -13.447764    0.264611   -1.632891
     88          1           0      -12.290194    0.784726   -4.111745
     89          1           0      -11.579872   -0.978513   -4.077037
     90          1           0      -13.299096   -0.615772   -4.189329
     91          1           0       -9.901445   -4.616205   -0.685833
     92          1           0       -9.057651   -4.673626   -2.332991
     93          1           0       -8.388986   -5.449087   -1.143338
     94          1           0       -3.578295   -3.544330   -0.234460
     95          1           0       -2.404759   -6.593198    2.351654
     96          1           0       -2.117853   -5.379905    3.402565
     97          1           0       -3.749258   -6.082567    3.320729
     98          1           0        2.656081   -2.012600   -1.234426
     99          1           0        2.322230   -0.617146   -2.007492
    100          1           0        4.065232   -0.809393    0.546505
    101          1           0        5.558733    1.735672   -2.506285
    102          1           0        5.590573    0.314901   -3.203664
    103          1           0        3.745025    0.923412   -3.086202
    104          1           0        6.524564    1.478214   -0.543328
    105          1           0        5.846487    0.158287    0.522097
    106          1           0        7.265931   -1.159597   -1.123225
    107          1           0        7.527137    0.110179   -2.101586
    108          1           0        9.108578    1.163053   -0.014070
    109          1           0        8.627465   -0.474061    0.818956
    110          1           0       10.251555   -0.439815   -1.706611
    111          1           0        9.058194   -2.825941   -1.185826
    112          1           0       10.759059   -2.792269   -0.825097
    113          1           0        9.766708   -2.603779    0.537657
    114          1           0       11.241727    0.775878    0.059948
    115          1           0       11.002580   -0.544117    1.013700
    116          1           0       12.815274   -1.837349   -0.731466
    117          1           0       12.473047   -0.422799   -1.486644
    118          1           0       13.606999    0.995180    0.327652
    119          1           0       13.865440   -0.409917    1.274250
    120          1           0       14.964773    0.144444   -1.433017
    121          1           0       14.839556   -2.327703   -0.971051
    122          1           0       16.594770   -2.057340   -0.667455
    123          1           0       15.614484   -2.271240    0.540936
    124          1           0       15.599352    1.526268    0.508752
    125          1           0       16.403392    0.340018    1.426587
    126          1           0       18.166807   -0.306332   -0.516646
    127          1           0       17.398257    1.352818   -1.196818
    128          1           0       18.288348    2.651595    0.886588
    129          1           0       18.715052    1.238521    1.626414
    130          1           0       20.458609    0.600418    0.200109
    131          1           0       19.603523    2.966759   -1.918550
    132          1           0       21.184635    1.985338   -1.980902
    133          1           0       19.530561    1.229749   -2.153746
    134          1           0       20.910765    2.461902    1.733256
    135          1           0       22.013586    2.821157    0.256501
    136          1           0       20.435787    3.596414    0.520517
    137          1           0       -6.952324    1.728239    0.485324
    138          1           0       -7.693576   -0.277354   -0.143451
 ---------------------------------------------------------------------

 SCF Done:  E(RB3LYP) =  -2733.06484311     A.U. after   17 cycles

 Excitation energies and oscillator strengths:

 Excited State   1:      Singlet-A      1.9918 eV  622.46 nm  f=0.1879  <S**2>=0.000
     235 -> 238       -0.27279
     236 -> 237        0.64805
 This state for optimization and/or second-order correction.
 Total Energy, E(TD-HF/TD-DFT) =  -2732.99164442
 Copying the excited state density for this state as the 1-particle RhoCI density.

 The electronic state is 1-A.
 Alpha  occ. eigenvalues --  -19.17714 -19.15339 -19.12114 -19.11846 -19.11251
 Alpha  occ. eigenvalues --  -14.38107 -14.35617 -14.32149 -14.30840 -10.31361
 Alpha  occ. eigenvalues --  -10.30792 -10.27093 -10.24652 -10.24059 -10.23929
 Alpha  occ. eigenvalues --  -10.23900 -10.23567 -10.23522 -10.22883 -10.22869
 Alpha  occ. eigenvalues --  -10.22609 -10.22216 -10.21949 -10.21794 -10.21583
 Alpha  occ. eigenvalues --  -10.21501 -10.21381 -10.21321 -10.21253 -10.20765
 Alpha  occ. eigenvalues --  -10.20752 -10.20706 -10.20633 -10.20594 -10.20557
 Alpha  occ. eigenvalues --  -10.20388 -10.20372 -10.20350 -10.20305 -10.20000
 Alpha  occ. eigenvalues --  -10.19923 -10.19919 -10.19748 -10.19735 -10.19634
 Alpha  occ. eigenvalues --  -10.19596 -10.19578 -10.19508 -10.19456 -10.19334
 Alpha  occ. eigenvalues --  -10.19319 -10.19299 -10.19214 -10.19136 -10.18527
 Alpha  occ. eigenvalues --  -10.18527 -10.18419 -10.18369 -10.17971 -10.17918
 Alpha  occ. eigenvalues --  -10.17641 -10.17519 -10.17215 -10.16802  -1.09937
 Alpha  occ. eigenvalues --   -1.07471  -1.01555  -1.00558  -0.99853  -0.98355
 Alpha  occ. eigenvalues --   -0.95576  -0.94438  -0.92268  -0.85322  -0.82841
 Alpha  occ. eigenvalues --   -0.82155  -0.82144  -0.81751  -0.80888  -0.80812
 Alpha  occ. eigenvalues --   -0.80474  -0.79420  -0.79013  -0.78592  -0.77872
 Alpha  occ. eigenvalues --   -0.76975  -0.75997  -0.75350  -0.74925  -0.73932
 Alpha  occ. eigenvalues --   -0.73628  -0.73180  -0.72795  -0.71928  -0.71366
 Alpha  occ. eigenvalues --   -0.70010  -0.69048  -0.68819  -0.68441  -0.68183
 Alpha  occ. eigenvalues --   -0.67788  -0.66988  -0.66512  -0.66402  -0.65031
 Alpha  occ. eigenvalues --   -0.64949  -0.63082  -0.62800  -0.62496  -0.61905
 Alpha  occ. eigenvalues --   -0.60957  -0.59274  -0.58649  -0.58298  -0.58021
 Alpha  occ. eigenvalues --   -0.57513  -0.56587  -0.56346  -0.56142  -0.55270
 Alpha  occ. eigenvalues --   -0.54883  -0.54683  -0.54489  -0.53513  -0.53225
 Alpha  occ. eigenvalues --   -0.52392  -0.52129  -0.50829  -0.50396  -0.49869
 Alpha  occ. eigenvalues --   -0.49665  -0.49501  -0.48688  -0.48357  -0.48137
 Alpha  occ. eigenvalues --   -0.47960  -0.47640  -0.47480  -0.47251  -0.47001
 Alpha  occ. eigenvalues --   -0.46543  -0.46381  -0.46238  -0.45889  -0.45640
 Alpha  occ. eigenvalues --   -0.45553  -0.45256  -0.45063  -0.44923  -0.44724
 Alpha  occ. eigenvalues --   -0.44551  -0.44400  -0.44063  -0.43965  -0.43938
 Alpha  occ. eigenvalues --   -0.43347  -0.43241  -0.42941  -0.42796  -0.42565
 Alpha  occ. eigenvalues --   -0.42306  -0.42075  -0.41636  -0.41455  -0.41383
 Alpha  occ. eigenvalues --   -0.41288  -0.40972  -0.40909  -0.40575  -0.40329
 Alpha  occ. eigenvalues --   -0.40123  -0.39899  -0.39767  -0.39543  -0.39226
 Alpha  occ. eigenvalues --   -0.38966  -0.38846  -0.38606  -0.38586  -0.38402
 Alpha  occ. eigenvalues --   -0.38285  -0.38202  -0.38078  -0.37672  -0.37444
 Alpha  occ. eigenvalues --   -0.37223  -0.36979  -0.36767  -0.36573  -0.36443
 Alpha  occ. eigenvalues --   -0.35996  -0.35920  -0.35740  -0.35708  -0.35661
 Alpha  occ. eigenvalues --   -0.35540  -0.35324  -0.35242  -0.35070  -0.34811
 Alpha  occ. eigenvalues --   -0.34618  -0.34466  -0.34293  -0.34215  -0.33889
 Alpha  occ. eigenvalues --   -0.33863  -0.33244  -0.32717  -0.32709  -0.32544
 Alpha  occ. eigenvalues --   -0.32444  -0.32276  -0.31655  -0.31524  -0.31211
 Alpha  occ. eigenvalues --   -0.30894  -0.30461  -0.30223  -0.30140  -0.29642
 Alpha  occ. eigenvalues --   -0.29123  -0.28938  -0.28936  -0.28605  -0.27965
 Alpha  occ. eigenvalues --   -0.27607  -0.26960  -0.26487  -0.26031  -0.25581
 Alpha  occ. eigenvalues --   -0.24939  -0.24502  -0.23429  -0.23277  -0.20287
 Alpha  occ. eigenvalues --   -0.18821
 Alpha virt. eigenvalues --   -0.10602  -0.08005  -0.04486  -0.01664  -0.00462
 Alpha virt. eigenvalues --   -0.00120   0.00050   0.01005   0.01616   0.03728
 Alpha virt. eigenvalues --    0.03963   0.04104   0.04141   0.04747   0.04816

 Mulliken charges:
               1
     1  C    0.077334
     2  C   -0.105676
     3  C   -0.082979
     4  C   -0.067418
     5  N   -0.141499
     6  C   -0.079036
     7  C   -0.111538
     8  C    0.021883
     9  C    0.010156
    10  C    0.066013
    11  C    0.025616
    12  C   -0.033194
    13  C    0.176280
    14  O   -0.254066
    15  O   -0.288960
    16  N    0.068220
    17  C    0.066322
    18  C   -0.170846
    19  C   -0.035377
    20  C    0.047869
    21  C    0.142960
    22  C    0.024715
    23  C   -0.082400
    24  N   -0.302054
    25  C    0.074297
    26  C   -0.063776
    27  C   -0.107910
    28  C    0.089659
    29  C    0.095196
    30  C    0.093067
    31  C   -0.037644
    32  N   -0.111533
    33  C    0.069273
    34  C   -0.075983
    35  C    0.003039
    36  C    0.123662
    37  C    0.107442
    38  C    0.042679
    39  O   -0.176006
    40  C   -0.082621
    41  C    0.186886
    42  O   -0.209771
    43  O   -0.351119
    44  C    0.234680
    45  C    0.316517
    46  C   -0.143105
    47  C   -0.170234
    48  C    0.077049
    49  C    0.136795
    50  C    0.049204
    51  C    0.021775
    52  C   -0.108651
    53  C    0.089698
    54  C    0.090600
    55  C    0.051389
    56  C    0.086950
    57  C   -0.081501
    58  C    0.075352
    59  C    0.029885
    60  C    0.061226
    61  C   -0.075550
    62  C   -0.073739
    63  C   -0.046900
    64  C    0.077075
    65  H    0.000867
    66  H    0.001421
    67  H   -0.021301
    68  H    0.073718
    69  H   -0.005370
    70  H    0.010074
    71  H   -0.026269
    72  H    0.024879
    73  H    0.041573
    74  H    0.039778
    75  H    0.054908
    76  H    0.054864
    77  H    0.050635
    78  H    0.007754
    79  H    0.013802
    80  H   -0.025752
    81  H    0.051727
    82  H    0.027966
    83  H    0.018218
    84  H   -0.009961
    85  H    0.020122
    86  H   -0.001142
    87  H    0.003019
    88  H    0.022641
    89  H    0.011986
    90  H    0.017200
    91  H    0.041593
    92  H    0.029229
    93  H    0.009697
    94  H    0.088384
    95  H   -0.007124
    96  H    0.010869
    97  H    0.028552
    98  H    0.005627
    99  H   -0.027787
   100  H    0.011387
   101  H    0.001452
   102  H   -0.007265
   103  H    0.072245
   104  H   -0.006564
   105  H   -0.014182
   106  H   -0.056648
   107  H   -0.012282
   108  H    0.013630
   109  H   -0.014720
   110  H   -0.019319
   111  H    0.012621
   112  H   -0.007873
   113  H    0.008943
   114  H   -0.018413
   115  H   -0.060856
   116  H   -0.007088
   117  H   -0.042773
   118  H   -0.011718
   119  H   -0.039559
   120  H   -0.007277
   121  H    0.002492
   122  H   -0.004111
   123  H   -0.024150
   124  H   -0.011835
   125  H   -0.017717
   126  H    0.039668
   127  H    0.016796
   128  H   -0.002135
   129  H   -0.013431
   130  H    0.000064
   131  H    0.020793
   132  H    0.019653
   133  H    0.012609
   134  H   -0.043366
   135  H    0.020918
   136  H    0.007310
   137  H    0.116849
   138  H    0.089785
 Sum of Mulliken charges =  -0.00000

 Dipole moment (field-independent basis, Debye):
    X=              0.0840    Y=              4.3151    Z=              0.6579  Tot=              4.3658
 Quadrupole moment (field-independent basis, Debye-Ang):
   XX=           -334.8652   YY=           -383.1791   ZZ=           -392.9046
   XY=            -27.1087   XZ=             15.1281   YZ=              3.5124

 Normal termination of Gaussian 16 at Fri Aug 23 12:45:27 2019.
