 Gaussian 16, Revision A.03,
 Gaussian 16:  ES64L-G16RevA.03 25-Dec-2016

 --------------------------
 # td=(NStates=1) B3LYP/SVP
 --------------------------

 --
 TD
 --
 Symbolic Z-matrix:
 Charge =  0 Multiplicity = 1

                         Standard orientation:
 ---------------------------------------------------------------------
 Center     Atomic      Atomic             Coordinates (Angstroms)
 Number     Number       Type             X           Y           Z
 ---------------------------------------------------------------------
      1          6           0       -5.071535   -1.956057    0.312501
      2          6           0       -4.642967    2.775005    1.355782
      3          6           0       -9.193986    3.414254   -0.318038
      4          6           0       -9.826805   -1.409012   -0.830258
      5          7           0       -5.133142    0.473485    0.766456
      6          6           0       -4.468447   -0.684562    0.799148
      7          6           0       -2.991324   -0.559840    1.232333
      8          6           0       -3.019359    0.950371    1.790494
      9          6           0       -4.324732    1.473329    1.249613
     10          6           0       -2.896359    0.880650    3.310431
     11          6           0       -2.037076   -0.838098    0.035655
     12          6           0       -0.679217   -0.855847    0.463098
     13          6           0        0.282019   -1.029068   -0.716501
     14          8           0       -0.007768   -1.454984   -1.828347
     15          8           0        1.538085   -0.893539   -0.245616
     16          7           0       -6.891310    2.801944    0.304767
     17          6           0       -5.761067    3.431826    0.955935
     18          6           0       -6.144047    4.870488    0.999187
     19          6           0       -7.518914    4.948778    0.548220
     20          6           0       -7.956417    3.678882    0.112913
     21          6           0       -5.117417    5.947827    1.532174
     22          6           0       -8.185858    6.264638    0.397007
     23          6           0       -9.018610    6.579590   -0.600866
     24          7           0       -9.190416    0.944856   -0.484244
     25          6           0       -9.863609    2.100346   -0.533903
     26          6           0      -11.323394    1.840181   -0.880668
     27          6           0      -11.497909    0.577090   -1.093419
     28          6           0      -10.216151   -0.070855   -0.827358
     29          6           0      -12.375080    2.949140   -0.869314
     30          6           0      -12.719118   -0.231176   -1.530906
     31          6           0      -12.522974   -0.544570   -2.990729
     32          7           0       -7.483940   -1.271653   -0.185768
     33          6           0       -8.621389   -1.979088   -0.523789
     34          6           0       -8.295513   -3.473694   -0.461147
     35          6           0       -6.891685   -3.425111   -0.212494
     36          6           0       -6.429372   -2.097060   -0.101833
     37          6           0       -9.165012   -4.545360   -0.764222
     38          6           0       -5.753413   -4.247939    0.013320
     39          8           0       -5.627955   -5.463929    0.043396
     40          6           0       -4.473930   -3.255340    0.325904
     41          6           0       -3.868352   -3.802298    1.642533
     42          8           0       -4.214983   -3.410200    2.777536
     43          8           0       -3.026378   -4.758471    1.322241
     44          6           0       -2.566331   -5.565340    2.479060
     45          6           0        2.651311   -1.206203   -1.151534
     46          6           0        3.966475   -0.720365   -0.621078
     47          6           0        4.869838    0.144898   -1.157496
     48          6           0        4.883380    0.887756   -2.467367
     49          6           0        6.160261    0.362029   -0.379045
     50          6           0        7.408069   -0.342419   -0.911719
     51          6           0        8.672450   -0.142567   -0.138332
     52          6           0       10.010278   -0.734262   -0.680943
     53          6           0        9.947022   -2.245876   -0.731636
     54          6           0       11.294666   -0.203885    0.109579
     55          6           0       12.627703   -0.604408   -0.510151
     56          6           0       13.727717   -0.060753    0.263345
     57          6           0       15.243268   -0.230383   -0.254095
     58          6           0       15.684672   -1.652876   -0.359234
     59          6           0       16.258802    0.580544    0.481258
     60          6           0       17.694246    0.509790   -0.276951
     61          6           0       18.665298    1.557823    0.581160
     62          6           0       20.075795    1.640584    0.034934
     63          6           0       20.224686    2.258252   -1.326546
     64          6           0       20.929541    2.395195    1.121737
     65          1           0       -3.679672    3.381748    1.694542
     66          1           0       -9.762852    4.296870   -0.240431
     67          1           0      -10.630424   -2.291360   -1.094540
     68          1           0       -2.687677   -1.093796    1.945382
     69          1           0       -2.171801    1.560301    1.190401
     70          1           0       -2.003898    0.324494    3.653420
     71          1           0       -2.731895    1.873738    3.807889
     72          1           0       -3.864994    0.339429    3.633012
     73          1           0       -2.396097   -1.828302   -0.251837
     74          1           0       -2.356512   -0.223242   -0.836591
     75          1           0       -0.607405    0.221841    0.818030
     76          1           0       -0.571995   -1.723339    1.231681
     77          1           0       -4.138908    5.616960    0.974607
     78          1           0       -5.533399    6.932119    1.412495
     79          1           0       -4.743226    5.791822    2.656547
     80          1           0       -7.885214    7.109035    1.211793
     81          1           0       -9.300868    6.005064   -1.409916
     82          1           0       -9.478666    7.603377   -0.509815
     83          1           0      -12.273885    3.577601    0.088526
     84          1           0      -11.986784    3.687110   -1.668393
     85          1           0      -13.379402    2.512079   -0.984222
     86          1           0      -12.774626   -1.244934   -0.997373
     87          1           0      -13.758083    0.273224   -1.430999
     88          1           0      -12.299974    0.226621   -3.617691
     89          1           0      -11.835767   -1.599980   -3.285904
     90          1           0      -13.480232   -1.032166   -3.438749
     91          1           0       -9.700816   -4.876169    0.243775
     92          1           0       -9.758344   -4.454056   -1.663587
     93          1           0       -8.469315   -5.506284   -0.797214
     94          1           0       -3.891961   -3.615482   -0.510853
     95          1           0       -2.113712   -6.567530    1.979338
     96          1           0       -1.956635   -5.043201    3.078979
     97          1           0       -3.489019   -6.141881    3.014615
     98          1           0        2.714320   -2.267782   -1.255381
     99          1           0        2.440347   -0.828210   -2.274860
    100          1           0        4.263328   -1.018448    0.417373
    101          1           0        5.264713    1.941292   -2.459589
    102          1           0        5.647178    0.330645   -3.020476
    103          1           0        3.975953    0.950325   -3.116758
    104          1           0        6.334711    1.375506   -0.326504
    105          1           0        6.065474   -0.098893    0.665741
    106          1           0        7.267806   -1.428207   -1.161918
    107          1           0        7.502378   -0.107771   -1.787078
    108          1           0        8.859836    0.972067   -0.018879
    109          1           0        8.361424   -0.366850    0.912031
    110          1           0       10.047599   -0.289874   -1.606092
    111          1           0        9.274539   -2.462053   -1.737033
    112          1           0       10.943485   -2.559716   -1.196853
    113          1           0        9.621560   -2.775928    0.283670
    114          1           0       11.235564    0.893294    0.216372
    115          1           0       11.146993   -0.587964    1.136580
    116          1           0       12.898775   -1.554876   -0.839178
    117          1           0       12.520684   -0.290499   -1.648408
    118          1           0       13.718534    1.068584    0.469845
    119          1           0       13.727032   -0.252961    1.490671
    120          1           0       15.419697    0.143959   -1.470634
    121          1           0       14.944934   -2.547832   -0.922427
    122          1           0       16.620567   -1.879907   -0.846810
    123          1           0       15.828498   -2.057360    0.583851
    124          1           0       16.109710    1.589976    0.518249
    125          1           0       16.307323    0.216662    1.601327
    126          1           0       18.169472   -0.315153    0.201360
    127          1           0       17.889127    0.781254   -1.265360
    128          1           0       18.173096    2.614334    0.685155
    129          1           0       18.809914    1.084812    1.475649
    130          1           0       20.421547    0.531200    0.008964
    131          1           0       19.946066    3.492637   -1.436422
    132          1           0       21.418359    2.198248   -1.437178
    133          1           0       19.613644    1.612159   -1.982821
    134          1           0       20.800107    1.740861    2.067973
    135          1           0       22.031300    2.398771    0.824158
    136          1           0       20.455875    3.535709    1.295232
    137          1           0       -7.027471    1.804149    0.397227
    138          1           0       -7.487061   -0.299047   -0.254343
 ---------------------------------------------------------------------

 SCF Done:  E(RB3LYP) =  -2733.02627363     A.U. after   17 cycles

 Excitation energies and oscillator strengths:

 Excited State   1:      Singlet-A      1.9805 eV  626.02 nm  f=0.1853  <S**2>=0.000
     235 -> 237       -0.15228
     235 -> 238        0.26967
     236 -> 237        0.61878
     236 -> 238        0.14773
 This state for optimization and/or second-order correction.
 Total Energy, E(TD-HF/TD-DFT) =  -2732.95349139
 Copying the excited state density for this state as the 1-particle RhoCI density.

 The electronic state is 1-A.
 Alpha  occ. eigenvalues --  -19.18854 -19.17639 -19.12280 -19.11629 -19.11452
 Alpha  occ. eigenvalues --  -14.36647 -14.35839 -14.32235 -14.30698 -10.31368
 Alpha  occ. eigenvalues --  -10.31296 -10.27085 -10.25998 -10.25402 -10.24203
 Alpha  occ. eigenvalues --  -10.23409 -10.23338 -10.23024 -10.22988 -10.22303
 Alpha  occ. eigenvalues --  -10.22288 -10.22285 -10.21960 -10.21806 -10.21737
 Alpha  occ. eigenvalues --  -10.21721 -10.20934 -10.20924 -10.20838 -10.20828
 Alpha  occ. eigenvalues --  -10.20821 -10.20811 -10.20562 -10.20561 -10.20196
 Alpha  occ. eigenvalues --  -10.20148 -10.20065 -10.20059 -10.20040 -10.19967
 Alpha  occ. eigenvalues --  -10.19892 -10.19864 -10.19683 -10.19516 -10.19454
 Alpha  occ. eigenvalues --  -10.19421 -10.19317 -10.19298 -10.19105 -10.18898
 Alpha  occ. eigenvalues --  -10.18767 -10.18765 -10.18722 -10.18676 -10.18581
 Alpha  occ. eigenvalues --  -10.18528 -10.18410 -10.18354 -10.18338 -10.18274
 Alpha  occ. eigenvalues --  -10.18082 -10.18065 -10.17778 -10.16474  -1.09244
 Alpha  occ. eigenvalues --   -1.08327  -1.01655  -0.99643  -0.98581  -0.98408
 Alpha  occ. eigenvalues --   -0.95796  -0.93975  -0.91840  -0.84884  -0.82965
 Alpha  occ. eigenvalues --   -0.82309  -0.81821  -0.81724  -0.80887  -0.80818
 Alpha  occ. eigenvalues --   -0.80282  -0.79800  -0.79746  -0.78517  -0.77765
 Alpha  occ. eigenvalues --   -0.77240  -0.76066  -0.75113  -0.75053  -0.74778
 Alpha  occ. eigenvalues --   -0.73810  -0.73383  -0.72411  -0.71969  -0.70762
 Alpha  occ. eigenvalues --   -0.69986  -0.69027  -0.68377  -0.67807  -0.67013
 Alpha  occ. eigenvalues --   -0.66935  -0.66439  -0.65851  -0.65626  -0.65238
 Alpha  occ. eigenvalues --   -0.63222  -0.62471  -0.62362  -0.61514  -0.61038
 Alpha  occ. eigenvalues --   -0.60749  -0.60065  -0.58759  -0.58455  -0.57681
 Alpha  occ. eigenvalues --   -0.57214  -0.56446  -0.56131  -0.55615  -0.55073
 Alpha  occ. eigenvalues --   -0.54661  -0.54511  -0.53450  -0.52838  -0.52576
 Alpha  occ. eigenvalues --   -0.51970  -0.51705  -0.50979  -0.50599  -0.49995
 Alpha  occ. eigenvalues --   -0.49760  -0.49463  -0.48662  -0.48462  -0.48187
 Alpha  occ. eigenvalues --   -0.47827  -0.47797  -0.47501  -0.47145  -0.46869
 Alpha  occ. eigenvalues --   -0.46836  -0.46211  -0.46097  -0.45897  -0.45845
 Alpha  occ. eigenvalues --   -0.45593  -0.45446  -0.45253  -0.44588  -0.44435
 Alpha  occ. eigenvalues --   -0.44166  -0.44085  -0.43871  -0.43646  -0.43285
 Alpha  occ. eigenvalues --   -0.43194  -0.42919  -0.42785  -0.42740  -0.42459
 Alpha  occ. eigenvalues --   -0.42380  -0.42261  -0.41695  -0.41417  -0.41352
 Alpha  occ. eigenvalues --   -0.41046  -0.40832  -0.40754  -0.40210  -0.40138
 Alpha  occ. eigenvalues --   -0.40026  -0.39817  -0.39577  -0.39493  -0.38918
 Alpha  occ. eigenvalues --   -0.38793  -0.38692  -0.38491  -0.38345  -0.37975
 Alpha  occ. eigenvalues --   -0.37900  -0.37796  -0.37638  -0.37539  -0.37410
 Alpha  occ. eigenvalues --   -0.37289  -0.37206  -0.36851  -0.36791  -0.36593
 Alpha  occ. eigenvalues --   -0.36460  -0.36376  -0.36099  -0.36045  -0.35776
 Alpha  occ. eigenvalues --   -0.35335  -0.35071  -0.34919  -0.34867  -0.34580
 Alpha  occ. eigenvalues --   -0.34532  -0.34473  -0.34417  -0.34176  -0.33823
 Alpha  occ. eigenvalues --   -0.33776  -0.33533  -0.33088  -0.32771  -0.32000
 Alpha  occ. eigenvalues --   -0.31958  -0.31569  -0.31183  -0.30907  -0.30709
 Alpha  occ. eigenvalues --   -0.30526  -0.30500  -0.30406  -0.30062  -0.29774
 Alpha  occ. eigenvalues --   -0.29421  -0.28747  -0.28526  -0.28162  -0.27800
 Alpha  occ. eigenvalues --   -0.27150  -0.27079  -0.26817  -0.26259  -0.25622
 Alpha  occ. eigenvalues --   -0.24838  -0.24110  -0.23722  -0.23305  -0.20063
 Alpha  occ. eigenvalues --   -0.18094
 Alpha virt. eigenvalues --   -0.10000  -0.07849  -0.04325  -0.01712  -0.00419
 Alpha virt. eigenvalues --   -0.00211   0.00191   0.00781   0.02197   0.03152
 Alpha virt. eigenvalues --    0.03516   0.03554   0.03852   0.04468   0.04678

 Mulliken charges:
               1
     1  C    0.071292
     2  C   -0.072151
     3  C   -0.047479
     4  C   -0.089425
     5  N   -0.158218
     6  C   -0.043843
     7  C    0.093096
     8  C   -0.105803
     9  C   -0.034780
    10  C    0.063465
    11  C    0.032948
    12  C    0.057946
    13  C    0.188963
    14  O   -0.243061
    15  O   -0.315384
    16  N   -0.124643
    17  C    0.131505
    18  C   -0.112987
    19  C    0.000345
    20  C    0.113755
    21  C    0.049358
    22  C   -0.080469
    23  C   -0.008218
    24  N   -0.274076
    25  C    0.045204
    26  C   -0.158480
    27  C   -0.033502
    28  C    0.063071
    29  C    0.081953
    30  C    0.072741
    31  C   -0.042979
    32  N    0.034811
    33  C    0.010924
    34  C   -0.104179
    35  C    0.055131
    36  C    0.022507
    37  C    0.030670
    38  C   -0.024310
    39  O   -0.187022
    40  C   -0.064746
    41  C    0.209576
    42  O   -0.269909
    43  O   -0.276822
    44  C    0.155707
    45  C    0.278063
    46  C   -0.103536
    47  C   -0.132347
    48  C    0.057533
    49  C    0.074928
    50  C    0.158177
    51  C    0.005890
    52  C   -0.024605
    53  C   -0.009238
    54  C    0.039470
    55  C    0.105433
    56  C    0.000167
    57  C   -0.085584
    58  C    0.020548
    59  C    0.043981
    60  C    0.039125
    61  C   -0.007776
    62  C   -0.132750
    63  C   -0.015982
    64  C   -0.031750
    65  H    0.005292
    66  H   -0.047445
    67  H    0.011896
    68  H   -0.112203
    69  H    0.016609
    70  H    0.018973
    71  H    0.014230
    72  H    0.050967
    73  H   -0.007624
    74  H    0.011507
    75  H    0.026954
    76  H    0.058605
    77  H    0.047067
    78  H    0.026065
    79  H    0.045590
    80  H    0.041474
    81  H    0.011388
    82  H    0.028593
    83  H    0.032719
    84  H    0.029989
    85  H    0.020926
    86  H    0.017369
    87  H    0.022296
    88  H    0.007254
    89  H    0.023981
    90  H    0.004547
    91  H    0.051290
    92  H    0.051349
    93  H    0.049383
    94  H    0.046905
    95  H    0.054044
    96  H    0.025101
    97  H    0.065780
    98  H    0.011439
    99  H    0.041365
   100  H   -0.000312
   101  H    0.021845
   102  H    0.022805
   103  H    0.023160
   104  H   -0.023194
   105  H    0.002471
   106  H   -0.022277
   107  H   -0.129193
   108  H   -0.023508
   109  H   -0.020525
   110  H   -0.035846
   111  H    0.017878
   112  H    0.010936
   113  H    0.051768
   114  H   -0.003244
   115  H   -0.007136
   116  H   -0.030134
   117  H   -0.015751
   118  H   -0.013236
   119  H    0.001577
   120  H    0.001487
   121  H    0.015209
   122  H    0.006523
   123  H   -0.026260
   124  H   -0.025617
   125  H    0.007607
   126  H   -0.000293
   127  H    0.008284
   128  H    0.006485
   129  H   -0.034740
   130  H    0.000297
   131  H    0.033228
   132  H    0.027426
   133  H    0.022488
   134  H    0.020202
   135  H    0.022064
   136  H    0.035161
   137  H    0.146133
   138  H    0.110328
 Sum of Mulliken charges =  -0.00000

 Dipole moment (field-independent basis, Debye):
    X=              2.7015    Y=              3.4103    Z=              0.4611  Tot=              4.3750
 Quadrupole moment (field-independent basis, Debye-Ang):
   XX=           -333.7828   YY=           -377.9574   ZZ=           -397.5279
   XY=            -20.7449   XZ=              9.2805   YZ=             -0.8412

 Normal termination of Gaussian 16 at Fri Aug 16 02:33:19 2019.
