 Gaussian 16, Revision A.03,
 Gaussian 16:  ES64L-G16RevA.03 25-Dec-2016

 --------------------------
 # td=(NStates=1) B3LYP/SVP
 --------------------------

 --
 TD
 --
 Symbolic Z-matrix:
 Charge =  0 Multiplicity = 1

                         Standard orientation:
 ---------------------------------------------------------------------
 Center     Atomic      Atomic             Coordinates (Angstroms)
 Number     Number       Type             X           Y           Z
 ---------------------------------------------------------------------
      1          6           0       -5.135915   -1.906797    0.362901
      2          6           0       -4.754017    2.744949    1.511659
      3          6           0       -9.407623    3.338141   -0.185188
      4          6           0       -9.869782   -1.514155   -0.766760
      5          7           0       -5.140406    0.370455    0.794662
      6          6           0       -4.477831   -0.686516    0.814715
      7          6           0       -3.028171   -0.555416    1.312140
      8          6           0       -2.974598    0.898505    1.741952
      9          6           0       -4.398988    1.427061    1.325300
     10          6           0       -2.798612    0.998993    3.276098
     11          6           0       -1.934284   -0.832977    0.059318
     12          6           0       -0.556234   -0.861555    0.573023
     13          6           0        0.392119   -1.262310   -0.657573
     14          8           0        0.034070   -1.691653   -1.648646
     15          8           0        1.694328   -0.833718   -0.325312
     16          7           0       -7.009580    2.785346    0.517976
     17          6           0       -5.946289    3.387356    1.090687
     18          6           0       -6.198898    4.830733    0.937965
     19          6           0       -7.505880    5.003286    0.437642
     20          6           0       -8.047177    3.676839    0.192469
     21          6           0       -5.371610    5.922171    1.614777
     22          6           0       -8.202096    6.409358    0.180122
     23          6           0       -9.091729    6.544173   -0.939288
     24          7           0       -9.257175    0.818714   -0.464308
     25          6           0       -9.943400    2.035692   -0.459745
     26          6           0      -11.346257    1.799201   -0.815191
     27          6           0      -11.528505    0.452499   -1.044777
     28          6           0      -10.131644   -0.129713   -0.717960
     29          6           0      -12.408600    2.903314   -1.123618
     30          6           0      -12.789413   -0.236072   -1.502449
     31          6           0      -12.960578   -0.373527   -2.958468
     32          7           0       -7.560864   -1.303710   -0.101381
     33          6           0       -8.624297   -2.020411   -0.606253
     34          6           0       -8.218370   -3.389950   -0.589824
     35          6           0       -6.914912   -3.446604   -0.135662
     36          6           0       -6.470843   -2.082838    0.079309
     37          6           0       -9.008240   -4.589879   -1.045435
     38          6           0       -5.695859   -4.272889    0.000739
     39          8           0       -5.642997   -5.492818   -0.053518
     40          6           0       -4.480525   -3.305656    0.348595
     41          6           0       -3.952959   -3.631960    1.788943
     42          8           0       -4.238473   -3.278131    2.856665
     43          8           0       -2.918197   -4.627967    1.665436
     44          6           0       -2.415899   -5.325903    2.837990
     45          6           0        2.662073   -1.133995   -1.342690
     46          6           0        4.009223   -0.681383   -0.724401
     47          6           0        5.065696    0.062240   -1.302163
     48          6           0        5.025603    0.539664   -2.747644
     49          6           0        6.275095    0.241410   -0.521918
     50          6           0        7.559879   -0.340734   -1.017570
     51          6           0        8.897091   -0.081345   -0.293530
     52          6           0       10.202768   -0.869931   -0.846869
     53          6           0       10.062599   -2.299308   -0.999516
     54          6           0       11.335730   -0.318064    0.054365
     55          6           0       12.715467   -0.522537   -0.599873
     56          6           0       13.900714    0.127529    0.161623
     57          6           0       15.293069   -0.130947   -0.337124
     58          6           0       15.678974   -1.634895   -0.431819
     59          6           0       16.229267    0.648030    0.714378
     60          6           0       17.657451    0.715958   -0.022089
     61          6           0       18.630599    1.673183    0.683377
     62          6           0       20.001429    1.593110    0.238569
     63          6           0       20.207722    2.273859   -1.214988
     64          6           0       20.908864    2.401132    1.172084
     65          1           0       -3.970947    3.355461    2.211912
     66          1           0      -10.038146    4.175741   -0.216022
     67          1           0      -10.652240   -2.083726   -1.378109
     68          1           0       -2.996301   -1.179403    2.316247
     69          1           0       -2.224178    1.368019    1.080367
     70          1           0       -1.748283    0.773151    3.455863
     71          1           0       -2.938654    2.090393    3.810210
     72          1           0       -3.483632    0.195231    3.704791
     73          1           0       -2.213680   -1.970505   -0.316077
     74          1           0       -1.821317   -0.273390   -0.733156
     75          1           0       -0.386375    0.451013    0.655865
     76          1           0       -0.540568   -1.366886    1.397630
     77          1           0       -4.720627    6.177949    0.848800
     78          1           0       -6.159934    6.753068    1.801068
     79          1           0       -4.665035    5.577133    2.528414
     80          1           0       -8.177083    7.082327    0.936357
     81          1           0       -9.370948    5.794036   -1.648815
     82          1           0       -9.790230    7.364348   -1.030105
     83          1           0      -12.677449    3.202354   -0.130603
     84          1           0      -12.417174    3.532405   -1.862153
     85          1           0      -13.284890    2.285888   -1.371907
     86          1           0      -12.819311   -1.288126   -0.977485
     87          1           0      -13.528322    0.414272   -1.123207
     88          1           0      -12.740648    0.494799   -3.589207
     89          1           0      -12.066308   -1.043958   -3.202204
     90          1           0      -14.040100   -0.703783   -3.232708
     91          1           0       -9.980262   -4.918291   -0.673294
     92          1           0       -9.239543   -4.589026   -2.181680
     93          1           0       -8.492231   -5.545871   -1.195089
     94          1           0       -3.646069   -3.402012   -0.421142
     95          1           0       -1.602900   -5.921389    2.431954
     96          1           0       -1.933973   -4.723052    3.559934
     97          1           0       -3.110772   -5.942117    3.390818
     98          1           0        2.776926   -2.297969   -1.652406
     99          1           0        2.278238   -0.641674   -2.344047
    100          1           0        4.080522   -1.242886    0.326848
    101          1           0        5.489187    1.589263   -2.935267
    102          1           0        5.628913   -0.066905   -3.326457
    103          1           0        3.935616    0.552203   -3.185308
    104          1           0        6.480671    1.280268   -0.291905
    105          1           0        5.980068   -0.120283    0.540702
    106          1           0        7.472393   -1.305446   -1.031796
    107          1           0        7.693891   -0.021007   -2.078121
    108          1           0        9.145553    0.958839   -0.113682
    109          1           0        8.627848   -0.526645    0.746480
    110          1           0       10.522295   -0.392861   -2.105788
    111          1           0        9.145741   -2.539152   -1.672328
    112          1           0       10.988309   -2.584956   -1.520639
    113          1           0        9.785137   -2.596321    0.014411
    114          1           0       11.138307    0.804243    0.156843
    115          1           0       11.355019   -0.729385    1.071494
    116          1           0       12.855178   -1.570444   -0.830849
    117          1           0       12.685028   -0.317159   -1.684661
    118          1           0       13.712964    1.189881    0.247109
    119          1           0       13.594833   -0.173449    1.206241
    120          1           0       15.375649    0.241565   -1.315429
    121          1           0       14.923419   -2.047211   -1.012001
    122          1           0       16.736125   -1.761594   -0.952790
    123          1           0       15.610847   -2.192809    0.505945
    124          1           0       15.930939    1.620352    0.640353
    125          1           0       16.177755   -0.114488    1.609819
    126          1           0       18.112693   -0.334847   -0.000826
    127          1           0       17.548794    0.996262   -1.050358
    128          1           0       18.422886    2.833629    0.659496
    129          1           0       18.642331    1.230214    1.749991
    130          1           0       20.319626    0.506226    0.161368
    131          1           0       19.825913    3.365021   -1.195068
    132          1           0       21.123674    2.317620   -1.764417
    133          1           0       19.474596    1.956440   -1.844725
    134          1           0       21.021238    1.887188    2.258318
    135          1           0       21.894999    2.671375    0.676022
    136          1           0       20.421552    3.326597    1.461615
    137          1           0       -7.038571    1.840793    0.521749
    138          1           0       -7.801056   -0.288593   -0.040956
 ---------------------------------------------------------------------

 SCF Done:  E(RB3LYP) =  -2733.03795246     A.U. after   16 cycles

 Excitation energies and oscillator strengths:

 Excited State   1:      Singlet-A      2.0690 eV  599.24 nm  f=0.1856  <S**2>=0.000
     235 -> 238        0.28803
     236 -> 237        0.63522
 This state for optimization and/or second-order correction.
 Total Energy, E(TD-HF/TD-DFT) =  -2732.96191699
 Copying the excited state density for this state as the 1-particle RhoCI density.

 The electronic state is 1-A.
 Alpha  occ. eigenvalues --  -19.17495 -19.15334 -19.15133 -19.14055 -19.12503
 Alpha  occ. eigenvalues --  -14.37056 -14.36001 -14.32135 -14.30434 -10.32349
 Alpha  occ. eigenvalues --  -10.32076 -10.28517 -10.26351 -10.24303 -10.23829
 Alpha  occ. eigenvalues --  -10.23426 -10.23226 -10.23056 -10.22958 -10.22890
 Alpha  occ. eigenvalues --  -10.22875 -10.22418 -10.22001 -10.21950 -10.21766
 Alpha  occ. eigenvalues --  -10.21685 -10.21351 -10.21119 -10.21025 -10.20932
 Alpha  occ. eigenvalues --  -10.20898 -10.20886 -10.20776 -10.20706 -10.20611
 Alpha  occ. eigenvalues --  -10.20554 -10.20424 -10.20307 -10.20284 -10.20225
 Alpha  occ. eigenvalues --  -10.19833 -10.19693 -10.19620 -10.19378 -10.19330
 Alpha  occ. eigenvalues --  -10.19153 -10.19056 -10.19032 -10.18926 -10.18823
 Alpha  occ. eigenvalues --  -10.18722 -10.18623 -10.18578 -10.18573 -10.18444
 Alpha  occ. eigenvalues --  -10.18379 -10.18349 -10.18314 -10.17877 -10.17854
 Alpha  occ. eigenvalues --  -10.17819 -10.17545 -10.17255 -10.17108  -1.11592
 Alpha  occ. eigenvalues --   -1.09294  -1.03126  -1.02390  -0.99325  -0.98570
 Alpha  occ. eigenvalues --   -0.98293  -0.96247  -0.93352  -0.84642  -0.82605
 Alpha  occ. eigenvalues --   -0.81815  -0.81641  -0.81039  -0.80882  -0.80429
 Alpha  occ. eigenvalues --   -0.80009  -0.79850  -0.79615  -0.79144  -0.77792
 Alpha  occ. eigenvalues --   -0.76241  -0.75617  -0.75232  -0.74476  -0.74242
 Alpha  occ. eigenvalues --   -0.72711  -0.72358  -0.71960  -0.71719  -0.70475
 Alpha  occ. eigenvalues --   -0.69415  -0.69145  -0.68578  -0.68431  -0.67826
 Alpha  occ. eigenvalues --   -0.67648  -0.67418  -0.66353  -0.65954  -0.64572
 Alpha  occ. eigenvalues --   -0.64371  -0.62630  -0.62273  -0.62039  -0.61258
 Alpha  occ. eigenvalues --   -0.60453  -0.58829  -0.58448  -0.58139  -0.57657
 Alpha  occ. eigenvalues --   -0.57573  -0.56280  -0.56206  -0.55808  -0.55442
 Alpha  occ. eigenvalues --   -0.54799  -0.54406  -0.54258  -0.53811  -0.53016
 Alpha  occ. eigenvalues --   -0.52612  -0.52291  -0.51631  -0.51150  -0.50680
 Alpha  occ. eigenvalues --   -0.49463  -0.49270  -0.49065  -0.48467  -0.48364
 Alpha  occ. eigenvalues --   -0.48219  -0.47878  -0.47332  -0.47054  -0.46917
 Alpha  occ. eigenvalues --   -0.46761  -0.46545  -0.46463  -0.46268  -0.46052
 Alpha  occ. eigenvalues --   -0.45696  -0.45306  -0.45045  -0.44895  -0.44754
 Alpha  occ. eigenvalues --   -0.44721  -0.44243  -0.44150  -0.43975  -0.43886
 Alpha  occ. eigenvalues --   -0.43498  -0.43356  -0.43091  -0.42707  -0.42440
 Alpha  occ. eigenvalues --   -0.42176  -0.42095  -0.41992  -0.41470  -0.41247
 Alpha  occ. eigenvalues --   -0.41131  -0.41025  -0.41008  -0.40553  -0.40390
 Alpha  occ. eigenvalues --   -0.40220  -0.40115  -0.39893  -0.39772  -0.39302
 Alpha  occ. eigenvalues --   -0.39258  -0.39030  -0.38887  -0.38731  -0.38599
 Alpha  occ. eigenvalues --   -0.38497  -0.38196  -0.38001  -0.37915  -0.37828
 Alpha  occ. eigenvalues --   -0.37747  -0.37711  -0.37303  -0.37226  -0.37113
 Alpha  occ. eigenvalues --   -0.36966  -0.36688  -0.36371  -0.36135  -0.35658
 Alpha  occ. eigenvalues --   -0.35583  -0.35397  -0.35327  -0.35279  -0.35191
 Alpha  occ. eigenvalues --   -0.34811  -0.34606  -0.34404  -0.34387  -0.33593
 Alpha  occ. eigenvalues --   -0.33474  -0.33177  -0.33082  -0.32935  -0.32573
 Alpha  occ. eigenvalues --   -0.32163  -0.31912  -0.31712  -0.31523  -0.31435
 Alpha  occ. eigenvalues --   -0.31291  -0.30816  -0.30320  -0.29857  -0.29511
 Alpha  occ. eigenvalues --   -0.29319  -0.28956  -0.28937  -0.28329  -0.27866
 Alpha  occ. eigenvalues --   -0.27634  -0.27035  -0.26839  -0.26480  -0.26279
 Alpha  occ. eigenvalues --   -0.25187  -0.24165  -0.23820  -0.23112  -0.20027
 Alpha  occ. eigenvalues --   -0.18819
 Alpha virt. eigenvalues --   -0.10204  -0.07686  -0.04412  -0.03380  -0.00936
 Alpha virt. eigenvalues --   -0.00702  -0.00161   0.00471   0.02437   0.03211
 Alpha virt. eigenvalues --    0.03279   0.03623   0.03913   0.04507   0.04738

 Mulliken charges:
               1
     1  C   -0.019338
     2  C   -0.065150
     3  C   -0.036779
     4  C   -0.095136
     5  N   -0.096955
     6  C   -0.116070
     7  C   -0.080533
     8  C   -0.011011
     9  C   -0.030417
    10  C    0.005046
    11  C    0.047078
    12  C    0.024679
    13  C    0.187835
    14  O   -0.132243
    15  O   -0.336544
    16  N    0.002039
    17  C    0.046407
    18  C   -0.154383
    19  C   -0.034844
    20  C    0.076490
    21  C    0.075730
    22  C    0.013471
    23  C   -0.033845
    24  N   -0.231860
    25  C    0.077820
    26  C   -0.181841
    27  C   -0.112329
    28  C    0.008596
    29  C    0.214375
    30  C    0.073393
    31  C    0.009373
    32  N   -0.053147
    33  C    0.083324
    34  C   -0.091462
    35  C    0.024694
    36  C    0.102964
    37  C    0.049923
    38  C    0.077677
    39  O   -0.166870
    40  C   -0.071373
    41  C    0.225289
    42  O   -0.152404
    43  O   -0.387323
    44  C    0.222502
    45  C    0.156811
    46  C   -0.116889
    47  C   -0.121440
    48  C    0.054010
    49  C    0.102070
    50  C    0.103625
    51  C   -0.000004
    52  C   -0.204791
    53  C    0.090397
    54  C    0.054707
    55  C    0.021153
    56  C    0.080623
    57  C   -0.088373
    58  C    0.036206
    59  C    0.109466
    60  C   -0.018993
    61  C    0.011371
    62  C   -0.096191
    63  C    0.050869
    64  C    0.034376
    65  H    0.023331
    66  H   -0.039614
    67  H    0.019128
    68  H    0.057790
    69  H    0.006703
    70  H    0.016937
    71  H    0.037090
    72  H    0.049977
    73  H    0.035215
    74  H   -0.031345
    75  H    0.051358
    76  H   -0.014798
    77  H    0.013324
    78  H    0.034590
    79  H    0.048758
    80  H   -0.000402
    81  H    0.035099
    82  H    0.022798
    83  H    0.005558
    84  H   -0.007797
    85  H   -0.036745
    86  H    0.022841
    87  H   -0.010529
    88  H    0.006660
    89  H    0.007995
    90  H    0.033173
    91  H    0.025069
    92  H    0.013292
    93  H    0.016553
    94  H    0.082062
    95  H    0.019724
    96  H   -0.001320
    97  H    0.025639
    98  H    0.046161
    99  H    0.033455
   100  H    0.032774
   101  H    0.020860
   102  H    0.015436
   103  H    0.029059
   104  H   -0.012115
   105  H   -0.010273
   106  H   -0.061142
   107  H   -0.011453
   108  H   -0.006657
   109  H   -0.006650
   110  H   -0.011009
   111  H    0.027586
   112  H    0.024476
   113  H    0.005987
   114  H    0.003270
   115  H   -0.002046
   116  H   -0.031268
   117  H   -0.037374
   118  H   -0.024379
   119  H   -0.019128
   120  H   -0.025338
   121  H   -0.016152
   122  H    0.028826
   123  H    0.002383
   124  H   -0.027904
   125  H    0.032570
   126  H    0.003574
   127  H   -0.009020
   128  H    0.010934
   129  H    0.000281
   130  H    0.000273
   131  H   -0.015837
   132  H    0.011717
   133  H   -0.042290
   134  H    0.009206
   135  H    0.019425
   136  H   -0.008796
   137  H    0.088602
   138  H    0.148018
 Sum of Mulliken charges =  -0.00000

 Dipole moment (field-independent basis, Debye):
    X=              1.2680    Y=              3.8225    Z=             -0.2065  Tot=              4.0327
 Quadrupole moment (field-independent basis, Debye-Ang):
   XX=           -362.7902   YY=           -390.2524   ZZ=           -391.4320
   XY=            -31.5034   XZ=              4.5157   YZ=              0.2471

 Normal termination of Gaussian 16 at Tue Aug 20 01:05:56 2019.
