 Gaussian 16, Revision A.03,
 Gaussian 16:  ES64L-G16RevA.03 25-Dec-2016

 --------------------------
 # td=(NStates=1) B3LYP/SVP
 --------------------------

 --
 TD
 --
 Symbolic Z-matrix:
 Charge =  0 Multiplicity = 1

                         Standard orientation:
 ---------------------------------------------------------------------
 Center     Atomic      Atomic             Coordinates (Angstroms)
 Number     Number       Type             X           Y           Z
 ---------------------------------------------------------------------
      1          6           0       -5.190385   -1.939627    0.565600
      2          6           0       -4.527058    2.661498    1.526101
      3          6           0       -8.982016    3.369263   -0.272107
      4          6           0       -9.751062   -1.283196   -1.097764
      5          7           0       -5.067997    0.413449    0.974642
      6          6           0       -4.504984   -0.757998    1.024870
      7          6           0       -3.102168   -0.713819    1.427623
      8          6           0       -2.884407    0.677525    2.061541
      9          6           0       -4.227828    1.278880    1.396497
     10          6           0       -2.967377    0.636515    3.584221
     11          6           0       -2.129915   -0.872694    0.233465
     12          6           0       -0.612305   -0.933601    0.557888
     13          6           0        0.329557   -1.106714   -0.647412
     14          8           0       -0.060031   -1.273870   -1.796956
     15          8           0        1.590911   -0.899918   -0.220373
     16          7           0       -6.826521    2.633522    0.632909
     17          6           0       -5.674640    3.305645    1.149813
     18          6           0       -5.990493    4.691996    1.206927
     19          6           0       -7.259850    4.898521    0.625882
     20          6           0       -7.703877    3.568617    0.242011
     21          6           0       -5.068085    5.725726    1.752195
     22          6           0       -8.075307    6.232693    0.524777
     23          6           0       -8.863559    6.625071   -0.515960
     24          7           0       -9.135253    0.863862   -0.542125
     25          6           0       -9.702666    2.067439   -0.543385
     26          6           0      -11.010623    2.077895   -1.120947
     27          6           0      -11.345798    0.741899   -1.237447
     28          6           0      -10.137209    0.041586   -0.976092
     29          6           0      -12.007184    3.214115   -1.248308
     30          6           0      -12.544259    0.083308   -1.743314
     31          6           0      -12.668597   -0.094550   -3.270506
     32          7           0       -7.517040   -1.212663   -0.254512
     33          6           0       -8.612711   -1.981550   -0.784463
     34          6           0       -8.188731   -3.422010   -0.791978
     35          6           0       -6.881636   -3.433720   -0.381206
     36          6           0       -6.491421   -2.064562   -0.046589
     37          6           0       -9.237085   -4.480249   -1.245143
     38          6           0       -5.803413   -4.307722   -0.005615
     39          8           0       -5.742601   -5.444563   -0.116555
     40          6           0       -4.659152   -3.341541    0.535982
     41          6           0       -4.101974   -3.906922    1.815539
     42          8           0       -4.235783   -3.412568    2.893163
     43          8           0       -3.171864   -4.900290    1.573840
     44          6           0       -2.602036   -5.513650    2.711166
     45          6           0        2.637231   -1.079766   -1.262444
     46          6           0        3.943842   -0.624210   -0.665931
     47          6           0        4.888424    0.106006   -1.157628
     48          6           0        4.812742    0.811906   -2.574444
     49          6           0        6.210623    0.424001   -0.439083
     50          6           0        7.453006   -0.245294   -1.023893
     51          6           0        8.674899   -0.188279   -0.101106
     52          6           0        9.921942   -0.679571   -0.775204
     53          6           0        9.843249   -2.307197   -1.162754
     54          6           0       11.255251   -0.460085    0.061439
     55          6           0       12.629735   -0.620158   -0.512683
     56          6           0       13.772266   -0.195067    0.224029
     57          6           0       15.176036   -0.378117   -0.356683
     58          6           0       15.564107   -1.824682   -0.530732
     59          6           0       16.236225    0.438214    0.434162
     60          6           0       17.520246    0.626409   -0.118544
     61          6           0       18.528611    1.511915    0.665809
     62          6           0       19.966155    1.749516    0.061635
     63          6           0       19.949962    2.532728   -1.319999
     64          6           0       20.810137    2.538769    1.064131
     65          1           0       -3.608645    3.262095    1.720475
     66          1           0       -9.680719    4.198392   -0.237184
     67          1           0      -10.720191   -1.943070   -1.538574
     68          1           0       -2.793867   -1.249200    2.309141
     69          1           0       -2.072926    1.252917    1.495335
     70          1           0       -2.134639    0.074930    3.920099
     71          1           0       -3.042942    1.713361    4.178878
     72          1           0       -3.983916    0.072625    3.780341
     73          1           0       -2.476870   -1.782584   -0.261483
     74          1           0       -2.374814   -0.026647   -0.452585
     75          1           0       -0.610955    0.385253    0.826866
     76          1           0       -0.519533   -1.723465    1.498413
     77          1           0       -4.528095    5.889298    0.987166
     78          1           0       -5.546219    6.609474    1.968181
     79          1           0       -4.644630    5.524555    2.689344
     80          1           0       -8.078507    6.852646    1.501395
     81          1           0       -8.660324    5.989206   -1.571027
     82          1           0       -9.413506    7.605341   -0.141730
     83          1           0      -11.816670    3.916848   -0.340684
     84          1           0      -11.761516    3.987725   -2.149347
     85          1           0      -13.043589    2.775044   -1.166033
     86          1           0      -12.511234   -0.940754   -1.295516
     87          1           0      -13.525640    0.474796   -1.260158
     88          1           0      -12.606961    0.750335   -3.977737
     89          1           0      -11.569874   -0.628117   -3.719954
     90          1           0      -13.319185   -0.932993   -3.623815
     91          1           0       -9.942695   -4.671721   -0.425670
     92          1           0       -9.896711   -4.228166   -2.133036
     93          1           0       -8.638960   -5.529348   -1.252671
     94          1           0       -3.843195   -3.358424   -0.221894
     95          1           0       -1.796145   -6.089721    2.481337
     96          1           0       -1.985986   -4.843269    3.265724
     97          1           0       -3.629513   -6.006577    3.020771
     98          1           0        2.806374   -2.213995   -1.385321
     99          1           0        2.210241   -0.645118   -2.092941
    100          1           0        4.195003   -0.994591    0.293210
    101          1           0        5.114782    1.875274   -2.532117
    102          1           0        5.567244    0.486198   -3.161658
    103          1           0        3.783920    0.876186   -3.047903
    104          1           0        6.347884    1.622531   -0.567979
    105          1           0        5.910115    0.011446    0.636873
    106          1           0        6.869212   -1.161211   -1.048035
    107          1           0        7.605357   -0.031583   -2.120913
    108          1           0        8.894170    0.939506    0.280451
    109          1           0        8.542662   -0.630635    0.850945
    110          1           0       10.173265   -0.106235   -1.799133
    111          1           0        8.925424   -2.530922   -1.892417
    112          1           0       10.737347   -2.704019   -1.566124
    113          1           0        9.636148   -2.752380   -0.225915
    114          1           0       11.275599    0.694987    0.424560
    115          1           0       11.129910   -0.919936    0.891616
    116          1           0       12.540053   -1.658674   -0.785224
    117          1           0       12.569806    0.022207   -1.429776
    118          1           0       13.479973    1.036281    0.690846
    119          1           0       13.815757   -0.807629    1.209473
    120          1           0       15.135758    0.004965   -1.559946
    121          1           0       14.709780   -2.275171   -1.108048
    122          1           0       16.541999   -2.063220   -1.106268
    123          1           0       15.523697   -2.311809    0.477354
    124          1           0       15.927466    1.445397    0.565430
    125          1           0       16.413801   -0.024472    1.409343
    126          1           0       18.236639   -0.284450   -0.447569
    127          1           0       17.423440    1.345510   -1.184742
    128          1           0       17.897159    2.456556    0.990779
    129          1           0       18.792142    0.883835    1.567524
    130          1           0       20.521617    0.608432    0.081490
    131          1           0       19.644340    3.458145   -1.214407
    132          1           0       20.930343    2.670407   -1.697939
    133          1           0       19.285827    2.058479   -1.990808
    134          1           0       20.889612    1.782931    1.947456
    135          1           0       21.764286    2.910478    0.597403
    136          1           0       20.360919    3.399089    1.318845
    137          1           0       -6.661760    1.577117    0.572389
    138          1           0       -7.592109   -0.154826   -0.200110
 ---------------------------------------------------------------------

 SCF Done:  E(RB3LYP) =  -2732.96561213     A.U. after   17 cycles

 Excitation energies and oscillator strengths:

 Excited State   1:      Singlet-A      2.1350 eV  580.73 nm  f=0.0589  <S**2>=0.000
     235 -> 238        0.40715
     236 -> 237        0.56210
 This state for optimization and/or second-order correction.
 Total Energy, E(TD-HF/TD-DFT) =  -2732.88715362
 Copying the excited state density for this state as the 1-particle RhoCI density.

 The electronic state is 1-A.
 Alpha  occ. eigenvalues --  -19.18283 -19.16331 -19.13077 -19.12536 -19.12268
 Alpha  occ. eigenvalues --  -14.36564 -14.36493 -14.32566 -14.28972 -10.32454
 Alpha  occ. eigenvalues --  -10.31040 -10.27361 -10.25782 -10.23735 -10.23662
 Alpha  occ. eigenvalues --  -10.23636 -10.23604 -10.23372 -10.23188 -10.23051
 Alpha  occ. eigenvalues --  -10.22777 -10.22539 -10.22161 -10.22053 -10.21349
 Alpha  occ. eigenvalues --  -10.21252 -10.21126 -10.21045 -10.20873 -10.20842
 Alpha  occ. eigenvalues --  -10.20831 -10.20761 -10.20738 -10.20712 -10.20638
 Alpha  occ. eigenvalues --  -10.20609 -10.20541 -10.20370 -10.20299 -10.20226
 Alpha  occ. eigenvalues --  -10.20081 -10.20059 -10.19989 -10.19961 -10.19761
 Alpha  occ. eigenvalues --  -10.19745 -10.19554 -10.19448 -10.19337 -10.19302
 Alpha  occ. eigenvalues --  -10.18975 -10.18927 -10.18901 -10.18891 -10.18868
 Alpha  occ. eigenvalues --  -10.18767 -10.17980 -10.17923 -10.17758 -10.17667
 Alpha  occ. eigenvalues --  -10.17631 -10.17504 -10.17146 -10.16040  -1.08902
 Alpha  occ. eigenvalues --   -1.08847  -1.07061  -1.00729  -1.00568  -0.98654
 Alpha  occ. eigenvalues --   -0.97050  -0.96625  -0.94027  -0.84364  -0.83238
 Alpha  occ. eigenvalues --   -0.82821  -0.81888  -0.81270  -0.81047  -0.80486
 Alpha  occ. eigenvalues --   -0.79600  -0.79505  -0.79360  -0.78503  -0.78176
 Alpha  occ. eigenvalues --   -0.76910  -0.76426  -0.75356  -0.74970  -0.74207
 Alpha  occ. eigenvalues --   -0.73596  -0.72999  -0.72305  -0.71845  -0.71736
 Alpha  occ. eigenvalues --   -0.69920  -0.68961  -0.68822  -0.68719  -0.68092
 Alpha  occ. eigenvalues --   -0.67106  -0.67089  -0.66897  -0.66495  -0.65039
 Alpha  occ. eigenvalues --   -0.63851  -0.62454  -0.62123  -0.61598  -0.61116
 Alpha  occ. eigenvalues --   -0.60601  -0.58943  -0.58388  -0.57823  -0.57426
 Alpha  occ. eigenvalues --   -0.56492  -0.56217  -0.55841  -0.55501  -0.54595
 Alpha  occ. eigenvalues --   -0.54101  -0.53825  -0.53339  -0.53234  -0.53025
 Alpha  occ. eigenvalues --   -0.52195  -0.51759  -0.51306  -0.50902  -0.50227
 Alpha  occ. eigenvalues --   -0.49643  -0.49508  -0.49225  -0.48812  -0.48638
 Alpha  occ. eigenvalues --   -0.48047  -0.47798  -0.47735  -0.47517  -0.47194
 Alpha  occ. eigenvalues --   -0.46997  -0.46899  -0.46473  -0.46303  -0.46040
 Alpha  occ. eigenvalues --   -0.45737  -0.45445  -0.44992  -0.44971  -0.44645
 Alpha  occ. eigenvalues --   -0.44547  -0.44319  -0.44148  -0.43970  -0.43662
 Alpha  occ. eigenvalues --   -0.43515  -0.43109  -0.43065  -0.42581  -0.42304
 Alpha  occ. eigenvalues --   -0.42168  -0.41880  -0.41825  -0.41599  -0.41396
 Alpha  occ. eigenvalues --   -0.41318  -0.41166  -0.41035  -0.40537  -0.40310
 Alpha  occ. eigenvalues --   -0.40152  -0.40123  -0.39907  -0.39861  -0.39622
 Alpha  occ. eigenvalues --   -0.39511  -0.39392  -0.39164  -0.38798  -0.38501
 Alpha  occ. eigenvalues --   -0.38426  -0.38123  -0.37962  -0.37923  -0.37666
 Alpha  occ. eigenvalues --   -0.37624  -0.37566  -0.37357  -0.37196  -0.37008
 Alpha  occ. eigenvalues --   -0.36946  -0.36466  -0.36379  -0.36045  -0.35914
 Alpha  occ. eigenvalues --   -0.35692  -0.35516  -0.35266  -0.35156  -0.34779
 Alpha  occ. eigenvalues --   -0.34694  -0.33746  -0.33683  -0.33507  -0.33325
 Alpha  occ. eigenvalues --   -0.33057  -0.32786  -0.32548  -0.32000  -0.31515
 Alpha  occ. eigenvalues --   -0.31399  -0.31321  -0.31246  -0.30998  -0.30787
 Alpha  occ. eigenvalues --   -0.30659  -0.30375  -0.30256  -0.29765  -0.29705
 Alpha  occ. eigenvalues --   -0.29478  -0.29455  -0.28465  -0.28451  -0.28252
 Alpha  occ. eigenvalues --   -0.27899  -0.27759  -0.26925  -0.26840  -0.26461
 Alpha  occ. eigenvalues --   -0.25580  -0.25026  -0.24572  -0.22353  -0.19283
 Alpha  occ. eigenvalues --   -0.18853
 Alpha virt. eigenvalues --   -0.09264  -0.08174  -0.03954  -0.01629  -0.01485
 Alpha virt. eigenvalues --   -0.00327   0.00694   0.00906   0.01994   0.02517
 Alpha virt. eigenvalues --    0.03384   0.03650   0.03847   0.03862   0.04484

 Mulliken charges:
               1
     1  C    0.044078
     2  C   -0.085619
     3  C   -0.109603
     4  C   -0.102640
     5  N   -0.076227
     6  C   -0.058459
     7  C   -0.008999
     8  C   -0.104792
     9  C   -0.103835
    10  C    0.053685
    11  C    0.066779
    12  C   -0.087672
    13  C    0.227173
    14  O   -0.241053
    15  O   -0.327246
    16  N   -0.101725
    17  C    0.115905
    18  C   -0.181005
    19  C   -0.027728
    20  C    0.158045
    21  C    0.292524
    22  C   -0.076072
    23  C   -0.077464
    24  N   -0.228416
    25  C    0.019940
    26  C   -0.151360
    27  C   -0.029700
    28  C    0.023829
    29  C    0.025705
    30  C    0.051836
    31  C   -0.038415
    32  N   -0.089994
    33  C    0.070199
    34  C   -0.103237
    35  C   -0.008270
    36  C    0.040300
    37  C    0.050058
    38  C    0.033185
    39  O   -0.080471
    40  C   -0.093746
    41  C    0.198613
    42  O   -0.201354
    43  O   -0.335803
    44  C    0.227400
    45  C    0.323354
    46  C   -0.075690
    47  C   -0.157326
    48  C    0.100359
    49  C   -0.002225
    50  C    0.022867
    51  C    0.083738
    52  C   -0.108067
    53  C    0.003134
    54  C    0.022724
    55  C    0.113237
    56  C   -0.035418
    57  C   -0.099444
    58  C    0.011555
    59  C    0.174654
    60  C   -0.090630
    61  C   -0.024198
    62  C   -0.164237
    63  C    0.135514
    64  C    0.076857
    65  H   -0.013584
    66  H   -0.015648
    67  H    0.007196
    68  H   -0.012969
    69  H    0.009188
    70  H    0.021227
    71  H    0.042109
    72  H    0.053564
    73  H   -0.000956
    74  H    0.010217
    75  H    0.065571
    76  H    0.071219
    77  H   -0.028791
    78  H   -0.038531
    79  H    0.006347
    80  H    0.041126
    81  H    0.088329
    82  H    0.059950
    83  H    0.030043
    84  H    0.040545
    85  H    0.031917
    86  H   -0.002719
    87  H    0.014852
    88  H    0.029126
    89  H   -0.003252
    90  H    0.024551
    91  H    0.027244
    92  H    0.054344
    93  H    0.052633
    94  H    0.071409
    95  H   -0.011716
    96  H    0.001063
    97  H    0.064835
    98  H    0.040597
    99  H    0.006628
   100  H   -0.031089
   101  H   -0.003527
   102  H   -0.016674
   103  H    0.026105
   104  H    0.020410
   105  H    0.020874
   106  H   -0.003655
   107  H    0.017536
   108  H    0.009103
   109  H   -0.018394
   110  H    0.007670
   111  H    0.030727
   112  H    0.016947
   113  H   -0.002974
   114  H   -0.019338
   115  H   -0.070450
   116  H   -0.010663
   117  H   -0.009572
   118  H    0.012912
   119  H   -0.006973
   120  H   -0.000334
   121  H    0.009201
   122  H    0.041600
   123  H    0.000533
   124  H   -0.022247
   125  H   -0.016954
   126  H    0.008777
   127  H   -0.004107
   128  H    0.007412
   129  H   -0.007874
   130  H    0.014448
   131  H   -0.043543
   132  H   -0.008817
   133  H    0.002765
   134  H    0.020510
   135  H    0.006924
   136  H   -0.028251
   137  H    0.171206
   138  H    0.163000
 Sum of Mulliken charges =  -0.00000

 Dipole moment (field-independent basis, Debye):
    X=              3.0185    Y=              3.4615    Z=              1.1932  Tot=              4.7452
 Quadrupole moment (field-independent basis, Debye-Ang):
   XX=           -374.6309   YY=           -378.5816   ZZ=           -398.4482
   XY=            -22.8168   XZ=              4.4187   YZ=             -0.0007

 Normal termination of Gaussian 16 at Mon Aug 12 03:55:32 2019.
