 Gaussian 16, Revision A.03,
 Gaussian 16:  ES64L-G16RevA.03 25-Dec-2016

 --------------------------
 # td=(NStates=1) B3LYP/SVP
 --------------------------

 --
 TD
 --
 Symbolic Z-matrix:
 Charge =  0 Multiplicity = 1

                         Standard orientation:
 ---------------------------------------------------------------------
 Center     Atomic      Atomic             Coordinates (Angstroms)
 Number     Number       Type             X           Y           Z
 ---------------------------------------------------------------------
      1          6           0       -5.128931   -1.938925    0.394453
      2          6           0       -4.683764    2.805314    1.413711
      3          6           0       -9.182944    3.484286   -0.285895
      4          6           0       -9.817719   -1.353736   -0.818995
      5          7           0       -5.159705    0.400565    0.941071
      6          6           0       -4.492994   -0.757280    0.878402
      7          6           0       -3.065304   -0.561711    1.341354
      8          6           0       -3.115133    0.800324    1.942694
      9          6           0       -4.477427    1.419164    1.376627
     10          6           0       -3.057748    0.804311    3.438404
     11          6           0       -2.131664   -0.733528    0.209968
     12          6           0       -0.676005   -0.845478    0.668032
     13          6           0        0.309250   -1.085691   -0.475159
     14          8           0        0.076756   -1.625199   -1.519904
     15          8           0        1.651442   -0.705882   -0.218214
     16          7           0       -6.955923    2.762986    0.511425
     17          6           0       -5.846596    3.384725    0.902556
     18          6           0       -6.128565    4.820903    0.979675
     19          6           0       -7.430912    4.939935    0.549110
     20          6           0       -7.977326    3.669982    0.178586
     21          6           0       -5.169440    5.861676    1.441559
     22          6           0       -8.057279    6.251038    0.348639
     23          6           0       -8.953045    6.543342   -0.711523
     24          7           0       -9.149220    0.956398   -0.505646
     25          6           0       -9.807876    2.127527   -0.523433
     26          6           0      -11.216861    1.984291   -1.012420
     27          6           0      -11.373349    0.599748   -1.179717
     28          6           0      -10.126541    0.033984   -0.875437
     29          6           0      -12.333578    3.071367   -0.953336
     30          6           0      -12.677214   -0.244835   -1.528135
     31          6           0      -12.725884   -0.582977   -3.024695
     32          7           0       -7.512847   -1.186923   -0.158265
     33          6           0       -8.671960   -1.979663   -0.522272
     34          6           0       -8.109294   -3.356670   -0.731283
     35          6           0       -6.827934   -3.384739   -0.356709
     36          6           0       -6.438559   -2.110624    0.005275
     37          6           0       -8.813961   -4.707413   -0.963081
     38          6           0       -5.739817   -4.214415   -0.129882
     39          8           0       -5.652708   -5.471589   -0.104540
     40          6           0       -4.517526   -3.314468    0.364191
     41          6           0       -3.801926   -3.794369    1.642856
     42          8           0       -4.134299   -3.473344    2.773673
     43          8           0       -3.115623   -4.870308    1.444162
     44          6           0       -2.478087   -5.512424    2.559985
     45          6           0        2.545305   -0.894658   -1.291728
     46          6           0        4.001015   -0.748092   -0.707650
     47          6           0        4.966552    0.036600   -1.207434
     48          6           0        4.916736    0.548295   -2.688637
     49          6           0        6.225098    0.157911   -0.498028
     50          6           0        7.510452   -0.431504   -1.035979
     51          6           0        8.728584   -0.286860   -0.068553
     52          6           0        9.972920   -0.729843   -0.704700
     53          6           0       10.069904   -2.254246   -1.033469
     54          6           0       11.367977   -0.336242    0.056559
     55          6           0       12.587790   -0.570843   -0.657295
     56          6           0       13.736907   -0.049838    0.220947
     57          6           0       15.202712   -0.212438   -0.337752
     58          6           0       15.525167   -1.656992   -0.519447
     59          6           0       16.211887    0.610852    0.577449
     60          6           0       17.645830    0.681483   -0.113969
     61          6           0       18.621308    1.588437    0.698025
     62          6           0       19.986722    1.713924    0.069949
     63          6           0       20.048785    2.482209   -1.283448
     64          6           0       20.921363    2.391519    1.134409
     65          1           0       -4.027787    3.547331    1.877060
     66          1           0       -9.816621    4.334039   -0.356149
     67          1           0      -10.743306   -1.946953   -1.114320
     68          1           0       -2.577434   -1.336105    2.086567
     69          1           0       -2.340061    1.592114    1.645619
     70          1           0       -2.261951    0.298770    3.973161
     71          1           0       -3.134857    1.868101    3.816791
     72          1           0       -4.212546    0.145712    3.710316
     73          1           0       -2.358151   -1.657427   -0.297065
     74          1           0       -2.174006    0.074809   -0.619701
     75          1           0       -0.363598   -0.069146    1.316040
     76          1           0       -0.522361   -1.986132    1.305248
     77          1           0       -4.290964    5.938020    0.659281
     78          1           0       -5.560835    6.785225    1.375475
     79          1           0       -4.700221    5.499115    2.368415
     80          1           0       -7.755078    7.132830    1.055646
     81          1           0       -9.275736    5.676625   -1.521267
     82          1           0       -9.453977    7.626084   -0.716219
     83          1           0      -12.397069    3.427117    0.109045
     84          1           0      -12.006376    3.934183   -1.697423
     85          1           0      -13.273552    2.716464   -1.202419
     86          1           0      -12.724062   -1.126426   -0.978955
     87          1           0      -13.419832    0.571880   -1.261041
     88          1           0      -12.394822    0.428428   -3.624962
     89          1           0      -12.122584   -1.501607   -3.208604
     90          1           0      -13.591791   -0.913594   -3.380231
     91          1           0       -9.758113   -4.839460   -0.331960
     92          1           0       -9.267952   -4.661821   -2.008837
     93          1           0       -8.196405   -5.614049   -0.895861
     94          1           0       -3.894218   -3.363630   -0.493764
     95          1           0       -1.838700   -6.127061    2.064052
     96          1           0       -1.698188   -4.890265    3.171748
     97          1           0       -3.077161   -6.110165    3.372615
     98          1           0        2.269599   -1.997274   -1.532005
     99          1           0        2.454086   -0.382652   -2.123634
    100          1           0        4.157982   -1.112807    0.373800
    101          1           0        4.825270    1.708931   -2.413883
    102          1           0        6.003582    0.400795   -3.316407
    103          1           0        3.868711    0.124714   -3.182464
    104          1           0        6.647857    1.251936   -0.260802
    105          1           0        5.959352   -0.271591    0.547768
    106          1           0        7.197667   -1.495682   -1.016881
    107          1           0        7.739974    0.104221   -2.077058
    108          1           0        9.041742    0.689671    0.262472
    109          1           0        8.343924   -0.705989    0.876331
    110          1           0       10.107650   -0.458696   -1.843850
    111          1           0        9.167851   -2.480945   -1.561276
    112          1           0       10.822462   -2.723116   -1.434948
    113          1           0        9.874316   -2.477121   -0.130620
    114          1           0       11.327011    0.742726    0.437325
    115          1           0       11.460581   -0.799336    1.074598
    116          1           0       12.698154   -1.733941   -0.856386
    117          1           0       12.648293    0.121884   -1.580548
    118          1           0       13.647332    1.065022    0.486293
    119          1           0       13.524635   -0.368422    1.287432
    120          1           0       15.188427    0.369978   -1.222384
    121          1           0       14.771797   -2.258863   -0.965844
    122          1           0       16.577688   -1.733942   -0.731188
    123          1           0       15.712983   -2.212089    0.503049
    124          1           0       15.695761    1.522368    0.743906
    125          1           0       16.297710   -0.014157    1.489843
    126          1           0       18.178683   -0.338200   -0.148099
    127          1           0       17.480065    1.102857   -1.090408
    128          1           0       18.095029    2.611389    1.054581
    129          1           0       18.817702    1.030651    1.673983
    130          1           0       20.393162    0.671107   -0.104196
    131          1           0       19.898153    3.727580   -1.158180
    132          1           0       20.958239    2.424876   -1.852301
    133          1           0       19.211122    2.103151   -2.080369
    134          1           0       20.956244    2.025796    2.190883
    135          1           0       21.968787    2.664954    0.566807
    136          1           0       20.393508    3.398495    1.279865
    137          1           0       -7.023645    2.024329    0.271306
    138          1           0       -7.584429   -0.112107   -0.076438
 ---------------------------------------------------------------------

 SCF Done:  E(RB3LYP) =  -2732.94825322     A.U. after   16 cycles

 Excitation energies and oscillator strengths:

 Excited State   1:      Singlet-A      2.0944 eV  591.99 nm  f=0.0984  <S**2>=0.000
     235 -> 238        0.36239
     236 -> 237        0.60255
 This state for optimization and/or second-order correction.
 Total Energy, E(TD-HF/TD-DFT) =  -2732.87128640
 Copying the excited state density for this state as the 1-particle RhoCI density.

 The electronic state is 1-A.
 Alpha  occ. eigenvalues --  -19.18713 -19.16642 -19.13188 -19.11931 -19.11348
 Alpha  occ. eigenvalues --  -14.36379 -14.35900 -14.31941 -14.30279 -10.32086
 Alpha  occ. eigenvalues --  -10.31359 -10.27819 -10.25270 -10.24600 -10.23931
 Alpha  occ. eigenvalues --  -10.23826 -10.23815 -10.23553 -10.23456 -10.23287
 Alpha  occ. eigenvalues --  -10.22922 -10.22726 -10.22556 -10.22544 -10.22509
 Alpha  occ. eigenvalues --  -10.22163 -10.21102 -10.20925 -10.20806 -10.20799
 Alpha  occ. eigenvalues --  -10.20764 -10.20594 -10.20484 -10.20444 -10.20273
 Alpha  occ. eigenvalues --  -10.20165 -10.20163 -10.20101 -10.20090 -10.20037
 Alpha  occ. eigenvalues --  -10.19979 -10.19973 -10.19948 -10.19845 -10.19815
 Alpha  occ. eigenvalues --  -10.19800 -10.19557 -10.19483 -10.19384 -10.19268
 Alpha  occ. eigenvalues --  -10.19209 -10.19097 -10.18929 -10.18913 -10.18505
 Alpha  occ. eigenvalues --  -10.18494 -10.18458 -10.18419 -10.18215 -10.18203
 Alpha  occ. eigenvalues --  -10.18188 -10.18154 -10.17362 -10.14088  -1.11317
 Alpha  occ. eigenvalues --   -1.08846  -1.01304  -1.00573  -1.00257  -0.99513
 Alpha  occ. eigenvalues --   -0.96269  -0.95437  -0.93123  -0.85930  -0.84329
 Alpha  occ. eigenvalues --   -0.82843  -0.82719  -0.82077  -0.81613  -0.80598
 Alpha  occ. eigenvalues --   -0.80491  -0.79477  -0.79080  -0.78221  -0.77642
 Alpha  occ. eigenvalues --   -0.77060  -0.76539  -0.75460  -0.74894  -0.74623
 Alpha  occ. eigenvalues --   -0.74236  -0.73414  -0.73306  -0.72396  -0.71785
 Alpha  occ. eigenvalues --   -0.70275  -0.69900  -0.68977  -0.67927  -0.67382
 Alpha  occ. eigenvalues --   -0.67001  -0.66185  -0.66118  -0.65662  -0.64963
 Alpha  occ. eigenvalues --   -0.64603  -0.63516  -0.62647  -0.62048  -0.61987
 Alpha  occ. eigenvalues --   -0.60233  -0.59186  -0.58820  -0.58421  -0.57927
 Alpha  occ. eigenvalues --   -0.57059  -0.56388  -0.56320  -0.56052  -0.55871
 Alpha  occ. eigenvalues --   -0.54987  -0.54713  -0.54100  -0.54086  -0.53166
 Alpha  occ. eigenvalues --   -0.52670  -0.52248  -0.50998  -0.50856  -0.50148
 Alpha  occ. eigenvalues --   -0.49895  -0.49448  -0.49110  -0.48881  -0.48268
 Alpha  occ. eigenvalues --   -0.48115  -0.47614  -0.47587  -0.47499  -0.47016
 Alpha  occ. eigenvalues --   -0.46993  -0.46686  -0.46594  -0.46197  -0.45905
 Alpha  occ. eigenvalues --   -0.45875  -0.45724  -0.45286  -0.45081  -0.44808
 Alpha  occ. eigenvalues --   -0.44604  -0.44437  -0.44097  -0.44061  -0.43894
 Alpha  occ. eigenvalues --   -0.43727  -0.43236  -0.43088  -0.42894  -0.42766
 Alpha  occ. eigenvalues --   -0.42013  -0.41984  -0.41777  -0.41580  -0.41389
 Alpha  occ. eigenvalues --   -0.41360  -0.40981  -0.40930  -0.40831  -0.40655
 Alpha  occ. eigenvalues --   -0.40446  -0.40230  -0.40121  -0.40048  -0.39907
 Alpha  occ. eigenvalues --   -0.39435  -0.39274  -0.38807  -0.38603  -0.38362
 Alpha  occ. eigenvalues --   -0.38232  -0.38123  -0.37921  -0.37618  -0.36998
 Alpha  occ. eigenvalues --   -0.36914  -0.36879  -0.36683  -0.36504  -0.36364
 Alpha  occ. eigenvalues --   -0.36089  -0.35967  -0.35863  -0.35827  -0.35527
 Alpha  occ. eigenvalues --   -0.35388  -0.35296  -0.35025  -0.34832  -0.34773
 Alpha  occ. eigenvalues --   -0.34727  -0.34565  -0.34309  -0.34075  -0.33774
 Alpha  occ. eigenvalues --   -0.33643  -0.33248  -0.32896  -0.32788  -0.32368
 Alpha  occ. eigenvalues --   -0.32002  -0.31770  -0.31589  -0.31370  -0.31301
 Alpha  occ. eigenvalues --   -0.30972  -0.30838  -0.30687  -0.30393  -0.29733
 Alpha  occ. eigenvalues --   -0.29117  -0.29081  -0.28638  -0.28124  -0.27561
 Alpha  occ. eigenvalues --   -0.27527  -0.27250  -0.26702  -0.26334  -0.25393
 Alpha  occ. eigenvalues --   -0.24901  -0.24400  -0.24080  -0.22696  -0.20632
 Alpha  occ. eigenvalues --   -0.19058
 Alpha virt. eigenvalues --   -0.09883  -0.09129  -0.05289  -0.02614  -0.01846
 Alpha virt. eigenvalues --   -0.00795  -0.00304   0.00584   0.01979   0.03582
 Alpha virt. eigenvalues --    0.03882   0.03991   0.04263   0.04391   0.04967

 Mulliken charges:
               1
     1  C    0.012860
     2  C   -0.082390
     3  C   -0.108243
     4  C   -0.092031
     5  N   -0.107040
     6  C   -0.063196
     7  C   -0.019743
     8  C   -0.064365
     9  C    0.021459
    10  C   -0.002581
    11  C    0.061349
    12  C   -0.007192
    13  C    0.186793
    14  O   -0.217279
    15  O   -0.353333
    16  N    0.196312
    17  C    0.062174
    18  C   -0.167077
    19  C    0.031702
    20  C    0.161607
    21  C    0.166860
    22  C   -0.093826
    23  C   -0.114991
    24  N   -0.251677
    25  C    0.021034
    26  C   -0.180499
    27  C   -0.101455
    28  C    0.037127
    29  C    0.081125
    30  C    0.101844
    31  C    0.030581
    32  N   -0.177836
    33  C    0.152222
    34  C   -0.146360
    35  C    0.138803
    36  C    0.093728
    37  C    0.051253
    38  C    0.002031
    39  O   -0.216141
    40  C    0.026111
    41  C    0.191210
    42  O   -0.245723
    43  O   -0.236072
    44  C    0.169689
    45  C    0.330969
    46  C   -0.115291
    47  C   -0.081621
    48  C   -0.068611
    49  C   -0.000938
    50  C   -0.008161
    51  C    0.081377
    52  C   -0.100351
    53  C    0.167496
    54  C   -0.013500
    55  C    0.054251
    56  C   -0.074161
    57  C   -0.018409
    58  C    0.089206
    59  C    0.030718
    60  C    0.020509
    61  C   -0.023900
    62  C   -0.054359
    63  C   -0.049487
    64  C   -0.017129
    65  H   -0.022380
    66  H   -0.024543
    67  H   -0.014962
    68  H    0.027889
    69  H   -0.004942
    70  H    0.029027
    71  H    0.015829
    72  H    0.034773
    73  H    0.002421
    74  H    0.022187
    75  H    0.019352
    76  H    0.061902
    77  H    0.033102
    78  H   -0.026090
    79  H    0.041030
    80  H    0.041063
    81  H    0.077885
    82  H    0.054464
    83  H    0.040148
    84  H    0.036484
    85  H   -0.006776
    86  H   -0.004962
    87  H    0.008260
    88  H    0.038501
    89  H    0.003877
    90  H   -0.023668
    91  H    0.034504
    92  H    0.020307
    93  H    0.053173
    94  H    0.034479
    95  H    0.003840
    96  H    0.029390
    97  H    0.065247
    98  H    0.019472
    99  H   -0.049190
   100  H    0.007530
   101  H    0.043132
   102  H    0.069667
   103  H    0.058243
   104  H    0.002166
   105  H   -0.000350
   106  H    0.014914
   107  H    0.026535
   108  H   -0.015385
   109  H   -0.007465
   110  H    0.004150
   111  H   -0.020798
   112  H   -0.024791
   113  H   -0.071775
   114  H   -0.017353
   115  H   -0.015581
   116  H    0.034010
   117  H    0.008503
   118  H   -0.020177
   119  H   -0.022505
   120  H   -0.027610
   121  H    0.010080
   122  H   -0.017167
   123  H   -0.017974
   124  H   -0.012177
   125  H   -0.004365
   126  H    0.018717
   127  H   -0.002713
   128  H    0.012708
   129  H   -0.001812
   130  H    0.004103
   131  H    0.021039
   132  H    0.012504
   133  H    0.027895
   134  H    0.023893
   135  H    0.026532
   136  H    0.002467
   137  H   -0.086508
   138  H    0.189193
 Sum of Mulliken charges =  -0.00000

 Dipole moment (field-independent basis, Debye):
    X=              0.7207    Y=              5.1619    Z=              0.6219  Tot=              5.2489
 Quadrupole moment (field-independent basis, Debye-Ang):
   XX=           -355.1376   YY=           -379.3908   ZZ=           -399.2334
   XY=            -29.8839   XZ=             11.6298   YZ=              0.5207

 Normal termination of Gaussian 16 at Tue Aug 20 09:36:54 2019.
