 Gaussian 16, Revision A.03,
 Gaussian 16:  ES64L-G16RevA.03 25-Dec-2016

 --------------------------
 # td=(NStates=1) B3LYP/SVP
 --------------------------

 --
 TD
 --
 Symbolic Z-matrix:
 Charge =  0 Multiplicity = 1

                         Standard orientation:
 ---------------------------------------------------------------------
 Center     Atomic      Atomic             Coordinates (Angstroms)
 Number     Number       Type             X           Y           Z
 ---------------------------------------------------------------------
      1          6           0       -5.016524   -1.965509    0.317209
      2          6           0       -4.656387    2.772810    1.269210
      3          6           0       -9.387358    3.316393   -0.169638
      4          6           0       -9.985838   -1.552360   -0.799521
      5          7           0       -5.156473    0.429634    0.701378
      6          6           0       -4.408458   -0.677671    0.661990
      7          6           0       -3.004277   -0.471864    1.141106
      8          6           0       -3.030743    0.888173    1.790506
      9          6           0       -4.442339    1.407540    1.230641
     10          6           0       -2.992110    0.997439    3.289130
     11          6           0       -2.015582   -0.734465    0.056493
     12          6           0       -0.528311   -0.640700    0.410980
     13          6           0        0.419965   -1.025491   -0.806239
     14          8           0        0.040481   -1.345404   -1.889323
     15          8           0        1.723108   -0.810247   -0.436968
     16          7           0       -7.066275    2.751425    0.457214
     17          6           0       -5.869942    3.420123    0.941708
     18          6           0       -6.265537    4.780460    1.014857
     19          6           0       -7.529955    4.994579    0.529066
     20          6           0       -8.072645    3.678432    0.204244
     21          6           0       -5.208078    5.862545    1.235864
     22          6           0       -8.152130    6.348765    0.230224
     23          6           0       -9.130331    6.686330   -0.713795
     24          7           0       -9.212826    0.870400   -0.538149
     25          6           0       -9.944613    2.002206   -0.520971
     26          6           0      -11.318141    1.844885   -0.771864
     27          6           0      -11.493113    0.496002   -0.918232
     28          6           0      -10.181086   -0.134547   -0.843807
     29          6           0      -12.405263    2.863682   -0.794352
     30          6           0      -12.703895   -0.359153   -1.310768
     31          6           0      -12.881307   -0.649013   -2.837329
     32          7           0       -7.499955   -1.263676   -0.406755
     33          6           0       -8.598930   -2.069839   -0.583139
     34          6           0       -8.213099   -3.530101   -0.435953
     35          6           0       -6.847883   -3.389875   -0.197395
     36          6           0       -6.420382   -2.132969   -0.073031
     37          6           0       -9.152840   -4.751860   -0.539298
     38          6           0       -5.714505   -4.295808    0.032807
     39          8           0       -5.581685   -5.580360    0.066759
     40          6           0       -4.479642   -3.307796    0.452405
     41          6           0       -3.870817   -3.755043    1.723517
     42          8           0       -4.219077   -3.308049    2.810111
     43          8           0       -2.864484   -4.631028    1.478840
     44          6           0       -2.415567   -5.252467    2.853123
     45          6           0        2.638221   -1.055302   -1.517355
     46          6           0        4.064958   -0.878352   -0.830178
     47          6           0        4.917010    0.028737   -1.151272
     48          6           0        4.865279    1.049905   -2.261460
     49          6           0        6.251499    0.150974   -0.352074
     50          6           0        7.516935   -0.283570   -1.065928
     51          6           0        8.686990   -0.263940   -0.211307
     52          6           0       10.005549   -0.695292   -0.955203
     53          6           0       10.136463   -2.247200   -1.270003
     54          6           0       11.334037   -0.295435    0.005249
     55          6           0       12.801902   -0.458893   -0.746282
     56          6           0       13.892403   -0.050057    0.104388
     57          6           0       15.235126   -0.137739   -0.394652
     58          6           0       15.509709   -1.650715   -0.647024
     59          6           0       16.245214    0.508196    0.580262
     60          6           0       17.708273    0.573301   -0.036240
     61          6           0       18.561581    1.509110    0.893480
     62          6           0       20.064660    1.644532    0.433484
     63          6           0       20.241678    2.027534   -1.003394
     64          6           0       20.851638    2.515007    1.395155
     65          1           0       -3.843828    3.338933    1.906075
     66          1           0      -10.019193    4.154851   -0.410638
     67          1           0      -10.848244   -2.331722   -0.931670
     68          1           0       -2.947120   -1.093248    2.033543
     69          1           0       -2.289079    1.474453    1.257174
     70          1           0       -2.079864    0.459016    3.652678
     71          1           0       -2.780861    2.120872    3.726378
     72          1           0       -3.951450    0.426407    3.555189
     73          1           0       -2.055433   -1.727556   -0.600678
     74          1           0       -2.198953   -0.160380   -0.862323
     75          1           0       -0.103684    0.360165    0.651313
     76          1           0       -0.342153   -1.309069    1.323930
     77          1           0       -4.431817    5.786836    0.308583
     78          1           0       -5.431935    7.089836    1.185167
     79          1           0       -4.796721    5.762636    2.283449
     80          1           0       -7.690035    7.096315    0.725796
     81          1           0       -9.504697    6.072856   -1.182546
     82          1           0       -9.542330    7.669340   -0.843170
     83          1           0      -12.268047    3.567374    0.291762
     84          1           0      -12.236519    3.561524   -1.646009
     85          1           0      -13.572809    2.522476   -0.983798
     86          1           0      -12.677233   -1.282020   -0.759552
     87          1           0      -13.594865    0.307384   -0.977444
     88          1           0      -13.016390    0.187818   -3.665119
     89          1           0      -12.052442   -1.215553   -3.162255
     90          1           0      -13.759094   -1.518748   -2.946759
     91          1           0       -9.715195   -5.124851    0.560679
     92          1           0       -9.688088   -4.629274   -1.468129
     93          1           0       -8.444702   -5.705929   -0.515494
     94          1           0       -3.960104   -3.801301   -0.428220
     95          1           0       -1.902415   -6.167336    2.453742
     96          1           0       -1.604623   -4.491468    3.360401
     97          1           0       -3.354441   -5.273273    3.472700
     98          1           0        2.587897   -2.258715   -1.739891
     99          1           0        2.219209   -0.521602   -2.187508
    100          1           0        4.158969   -1.689921   -0.066360
    101          1           0        5.202079    2.158262   -1.943074
    102          1           0        5.427636    0.823398   -3.214123
    103          1           0        3.820258    1.229377   -2.736017
    104          1           0        6.210418    1.155075    0.132831
    105          1           0        6.153482   -0.405403    0.648614
    106          1           0        7.572587   -1.243738   -1.450855
    107          1           0        7.692279    0.458554   -2.022903
    108          1           0        8.694012    0.883375    0.098363
    109          1           0        8.656377   -0.769455    0.704407
    110          1           0       10.201815   -0.028783   -2.005690
    111          1           0        9.337992   -2.542186   -1.941141
    112          1           0       11.200622   -2.393800   -1.730772
    113          1           0       10.332735   -2.811331   -0.228998
    114          1           0       11.231364    0.778388    0.115513
    115          1           0       11.553564   -0.806604    0.988869
    116          1           0       12.962372   -1.627228   -0.984395
    117          1           0       12.595696    0.180920   -1.605617
    118          1           0       13.735297    1.079336    0.203934
    119          1           0       13.902875   -0.505088    1.132775
    120          1           0       15.187788    0.533409   -1.312695
    121          1           0       14.857648   -2.026476   -1.435473
    122          1           0       16.659801   -1.614482   -0.766699
    123          1           0       15.631721   -2.222986    0.189785
    124          1           0       15.941995    1.463362    0.687285
    125          1           0       16.094021   -0.179577    1.488642
    126          1           0       18.231950   -0.394460   -0.038595
    127          1           0       17.749618    0.806318   -1.109060
    128          1           0       18.055134    2.544648    1.002533
    129          1           0       18.706623    1.194712    1.958267
    130          1           0       20.463327    0.535046    0.605304
    131          1           0       19.563868    2.961799   -1.105324
    132          1           0       21.450052    2.352524   -1.200094
    133          1           0       19.906110    1.280784   -1.748282
    134          1           0       20.867636    1.984504    2.432966
    135          1           0       22.129504    2.377575    1.115797
    136          1           0       20.565732    3.607965    1.506494
    137          1           0       -7.099191    1.773901    0.194142
    138          1           0       -7.615330   -0.290324    0.034738
 ---------------------------------------------------------------------

 SCF Done:  E(RB3LYP) =  -2732.96835668     A.U. after   17 cycles

 Excitation energies and oscillator strengths:

 Excited State   1:      Singlet-A      1.9565 eV  633.70 nm  f=0.1666  <S**2>=0.000
     235 -> 237       -0.17744
     235 -> 238       -0.30043
     236 -> 237        0.59889
     236 -> 238       -0.13246
 This state for optimization and/or second-order correction.
 Total Energy, E(TD-HF/TD-DFT) =  -2732.89645594
 Copying the excited state density for this state as the 1-particle RhoCI density.

 The electronic state is 1-A.
 Alpha  occ. eigenvalues --  -19.17875 -19.17366 -19.13478 -19.12443 -19.12034
 Alpha  occ. eigenvalues --  -14.37158 -14.36788 -14.32568 -14.30261 -10.31739
 Alpha  occ. eigenvalues --  -10.31154 -10.28688 -10.26482 -10.24816 -10.24519
 Alpha  occ. eigenvalues --  -10.24480 -10.24252 -10.23660 -10.23390 -10.22773
 Alpha  occ. eigenvalues --  -10.22562 -10.22486 -10.22349 -10.22333 -10.21965
 Alpha  occ. eigenvalues --  -10.21888 -10.21791 -10.21652 -10.21321 -10.21279
 Alpha  occ. eigenvalues --  -10.21093 -10.21012 -10.20989 -10.20943 -10.20831
 Alpha  occ. eigenvalues --  -10.20764 -10.20545 -10.20485 -10.20361 -10.20147
 Alpha  occ. eigenvalues --  -10.20073 -10.20010 -10.19946 -10.19852 -10.19727
 Alpha  occ. eigenvalues --  -10.19697 -10.19624 -10.19598 -10.19547 -10.19502
 Alpha  occ. eigenvalues --  -10.19217 -10.19081 -10.19081 -10.19073 -10.18867
 Alpha  occ. eigenvalues --  -10.18830 -10.18509 -10.18423 -10.18362 -10.18285
 Alpha  occ. eigenvalues --  -10.18197 -10.18040 -10.17212 -10.17135  -1.09636
 Alpha  occ. eigenvalues --   -1.07287  -1.01894  -0.99045  -0.98786  -0.97132
 Alpha  occ. eigenvalues --   -0.96518  -0.95660  -0.92971  -0.85158  -0.83059
 Alpha  occ. eigenvalues --   -0.82523  -0.81792  -0.81388  -0.80493  -0.80107
 Alpha  occ. eigenvalues --   -0.79802  -0.79179  -0.78821  -0.78108  -0.77192
 Alpha  occ. eigenvalues --   -0.76440  -0.76069  -0.74905  -0.74494  -0.73975
 Alpha  occ. eigenvalues --   -0.72926  -0.72220  -0.71823  -0.71212  -0.69806
 Alpha  occ. eigenvalues --   -0.69599  -0.68193  -0.67854  -0.67583  -0.67366
 Alpha  occ. eigenvalues --   -0.66559  -0.66401  -0.65980  -0.65587  -0.65444
 Alpha  occ. eigenvalues --   -0.64017  -0.63109  -0.61951  -0.61531  -0.61206
 Alpha  occ. eigenvalues --   -0.61032  -0.59267  -0.58290  -0.57772  -0.57292
 Alpha  occ. eigenvalues --   -0.57009  -0.56410  -0.55625  -0.54992  -0.54610
 Alpha  occ. eigenvalues --   -0.54504  -0.54205  -0.54003  -0.53450  -0.53141
 Alpha  occ. eigenvalues --   -0.52205  -0.51912  -0.51295  -0.50824  -0.49692
 Alpha  occ. eigenvalues --   -0.49452  -0.49031  -0.48631  -0.48447  -0.48286
 Alpha  occ. eigenvalues --   -0.47799  -0.47438  -0.47325  -0.47173  -0.46795
 Alpha  occ. eigenvalues --   -0.46521  -0.46149  -0.46031  -0.45954  -0.45651
 Alpha  occ. eigenvalues --   -0.45315  -0.45020  -0.44632  -0.44496  -0.44452
 Alpha  occ. eigenvalues --   -0.44148  -0.44065  -0.43856  -0.43805  -0.43417
 Alpha  occ. eigenvalues --   -0.43249  -0.42584  -0.42515  -0.42284  -0.42102
 Alpha  occ. eigenvalues --   -0.41922  -0.41557  -0.41534  -0.41254  -0.41089
 Alpha  occ. eigenvalues --   -0.40864  -0.40825  -0.40460  -0.40427  -0.40145
 Alpha  occ. eigenvalues --   -0.39963  -0.39799  -0.39620  -0.39441  -0.39144
 Alpha  occ. eigenvalues --   -0.39116  -0.38757  -0.38719  -0.38551  -0.38441
 Alpha  occ. eigenvalues --   -0.38404  -0.38199  -0.37824  -0.37769  -0.37255
 Alpha  occ. eigenvalues --   -0.37164  -0.37046  -0.36946  -0.36692  -0.36413
 Alpha  occ. eigenvalues --   -0.36209  -0.36071  -0.36003  -0.35659  -0.35580
 Alpha  occ. eigenvalues --   -0.35472  -0.34985  -0.34871  -0.34810  -0.34546
 Alpha  occ. eigenvalues --   -0.34417  -0.34121  -0.33952  -0.33766  -0.33314
 Alpha  occ. eigenvalues --   -0.33252  -0.33130  -0.32772  -0.32445  -0.32133
 Alpha  occ. eigenvalues --   -0.32067  -0.31756  -0.31587  -0.31114  -0.30885
 Alpha  occ. eigenvalues --   -0.30827  -0.30562  -0.30505  -0.30432  -0.29972
 Alpha  occ. eigenvalues --   -0.29688  -0.28708  -0.28456  -0.28371  -0.27820
 Alpha  occ. eigenvalues --   -0.27616  -0.27238  -0.26921  -0.26528  -0.26090
 Alpha  occ. eigenvalues --   -0.25683  -0.24546  -0.24103  -0.22667  -0.20113
 Alpha  occ. eigenvalues --   -0.18976
 Alpha virt. eigenvalues --   -0.10802  -0.08595  -0.05121  -0.02515  -0.00468
 Alpha virt. eigenvalues --    0.00195   0.00532   0.00888   0.01627   0.03335
 Alpha virt. eigenvalues --    0.03419   0.03469   0.03619   0.03682   0.04381

 Mulliken charges:
               1
     1  C    0.060956
     2  C   -0.057854
     3  C   -0.057004
     4  C   -0.081366
     5  N   -0.114294
     6  C   -0.124665
     7  C    0.099350
     8  C   -0.070903
     9  C   -0.062153
    10  C    0.039519
    11  C    0.030259
    12  C    0.002840
    13  C    0.169049
    14  O   -0.212396
    15  O   -0.332202
    16  N   -0.136182
    17  C    0.127722
    18  C   -0.083057
    19  C    0.031447
    20  C    0.072072
    21  C   -0.047274
    22  C    0.004177
    23  C    0.156033
    24  N   -0.266312
    25  C    0.062750
    26  C   -0.089491
    27  C   -0.113861
    28  C    0.083073
    29  C   -0.013776
    30  C    0.075915
    31  C   -0.028306
    32  N   -0.092079
    33  C    0.006052
    34  C   -0.122463
    35  C    0.049385
    36  C    0.056521
    37  C    0.000561
    38  C    0.047250
    39  O   -0.245724
    40  C   -0.054006
    41  C    0.231977
    42  O   -0.256909
    43  O   -0.334470
    44  C    0.113755
    45  C    0.284053
    46  C   -0.085069
    47  C   -0.044140
    48  C   -0.005924
    49  C    0.034359
    50  C    0.084305
    51  C    0.039631
    52  C   -0.143473
    53  C    0.002513
    54  C   -0.014437
    55  C   -0.009075
    56  C    0.037481
    57  C   -0.109741
    58  C    0.090329
    59  C    0.086407
    60  C    0.031814
    61  C   -0.008272
    62  C   -0.110767
    63  C   -0.011315
    64  C   -0.046362
    65  H    0.019563
    66  H   -0.039354
    67  H    0.036197
    68  H   -0.009836
    69  H   -0.018992
    70  H    0.020023
    71  H    0.040459
    72  H    0.051976
    73  H    0.039391
    74  H   -0.004775
    75  H    0.032136
    76  H    0.039080
    77  H    0.063843
    78  H    0.043678
    79  H    0.043042
    80  H   -0.052040
    81  H   -0.126952
    82  H    0.026062
    83  H    0.048572
    84  H    0.029340
    85  H    0.048983
    86  H    0.004050
    87  H    0.009618
    88  H    0.042516
    89  H   -0.005065
    90  H    0.017230
    91  H    0.068616
    92  H    0.049191
    93  H    0.057475
    94  H    0.065517
    95  H    0.065183
    96  H    0.060421
    97  H    0.083566
    98  H    0.032817
    99  H   -0.052474
   100  H    0.011835
   101  H    0.034569
   102  H    0.043008
   103  H    0.015090
   104  H    0.006159
   105  H   -0.014175
   106  H   -0.035045
   107  H    0.010486
   108  H   -0.006850
   109  H   -0.014188
   110  H    0.015029
   111  H    0.028793
   112  H    0.025894
   113  H    0.027729
   114  H   -0.004213
   115  H    0.011082
   116  H    0.019092
   117  H   -0.002730
   118  H   -0.027321
   119  H   -0.019563
   120  H   -0.021010
   121  H    0.036493
   122  H   -0.021501
   123  H   -0.034933
   124  H   -0.038760
   125  H    0.008951
   126  H   -0.000055
   127  H    0.005527
   128  H   -0.000472
   129  H   -0.000069
   130  H    0.002400
   131  H    0.013568
   132  H    0.029297
   133  H    0.027920
   134  H    0.021468
   135  H    0.017896
   136  H    0.034941
   137  H    0.139347
   138  H    0.199027
 Sum of Mulliken charges =  -0.00000

 Dipole moment (field-independent basis, Debye):
    X=              2.4617    Y=              3.9421    Z=              1.1547  Tot=              4.7889
 Quadrupole moment (field-independent basis, Debye-Ang):
   XX=           -372.3102   YY=           -382.6922   ZZ=           -396.8977
   XY=            -23.6114   XZ=             11.3345   YZ=             -5.5179

 Normal termination of Gaussian 16 at Thu Aug 15 02:15:31 2019.
