 Gaussian 16, Revision A.03,
 Gaussian 16:  ES64L-G16RevA.03 25-Dec-2016

 --------------------------
 # td=(NStates=1) B3LYP/SVP
 --------------------------

 --
 TD
 --
 Symbolic Z-matrix:
 Charge =  0 Multiplicity = 1

                         Standard orientation:
 ---------------------------------------------------------------------
 Center     Atomic      Atomic             Coordinates (Angstroms)
 Number     Number       Type             X           Y           Z
 ---------------------------------------------------------------------
      1          6           0       -5.041022   -1.843952    0.558276
      2          6           0       -4.788212    2.925280    1.321627
      3          6           0       -9.531780    3.257524   -0.161973
      4          6           0       -9.752150   -1.577993   -0.830775
      5          7           0       -5.169620    0.530146    0.728456
      6          6           0       -4.532624   -0.603407    0.804184
      7          6           0       -3.039844   -0.494306    1.370729
      8          6           0       -2.999636    1.118726    1.748699
      9          6           0       -4.388490    1.548848    1.316646
     10          6           0       -2.940182    1.319148    3.316769
     11          6           0       -2.092008   -0.688784    0.136400
     12          6           0       -0.578816   -0.583439    0.619384
     13          6           0        0.369816   -1.041327   -0.502927
     14          8           0        0.098939   -1.467698   -1.517794
     15          8           0        1.634140   -0.844307    0.009735
     16          7           0       -7.169988    2.734269    0.287694
     17          6           0       -5.938583    3.440142    0.851081
     18          6           0       -6.363130    4.808811    1.007130
     19          6           0       -7.605171    5.013521    0.407914
     20          6           0       -8.178404    3.655617    0.230690
     21          6           0       -5.479413    5.902429    1.327869
     22          6           0       -8.423550    6.226687    0.173333
     23          6           0       -9.460648    6.471493   -0.711682
     24          7           0       -9.306353    0.842740   -0.602394
     25          6           0       -9.980844    1.957003   -0.544451
     26          6           0      -11.460304    1.723675   -0.835242
     27          6           0      -11.476958    0.337957   -1.224178
     28          6           0      -10.123799   -0.265571   -0.857187
     29          6           0      -12.549694    2.729207   -1.084837
     30          6           0      -12.618094   -0.461789   -1.775391
     31          6           0      -12.580460   -0.880928   -3.162684
     32          7           0       -7.466397   -1.327722   -0.144373
     33          6           0       -8.544951   -2.152164   -0.507620
     34          6           0       -8.078917   -3.516903   -0.539444
     35          6           0       -6.722541   -3.462193   -0.213154
     36          6           0       -6.329335   -2.102487    0.019602
     37          6           0       -8.832595   -4.785156   -0.937415
     38          6           0       -5.468614   -4.244289    0.055081
     39          8           0       -5.313730   -5.507241    0.032232
     40          6           0       -4.433762   -3.288042    0.535978
     41          6           0       -3.758368   -3.638659    1.903076
     42          8           0       -4.093853   -3.128249    2.957732
     43          8           0       -3.039612   -4.666626    1.728726
     44          6           0       -2.285245   -5.142146    2.888460
     45          6           0        2.770924   -1.153325   -1.045591
     46          6           0        4.059422   -0.734310   -0.545149
     47          6           0        5.025544    0.136837   -1.076292
     48          6           0        4.906961    0.559385   -2.534773
     49          6           0        6.331477    0.329462   -0.438563
     50          6           0        7.511352   -0.396899   -1.218490
     51          6           0        8.812654   -0.251238   -0.306040
     52          6           0       10.169735   -0.648033   -1.028769
     53          6           0       10.058899   -2.208843   -1.220516
     54          6           0       11.327453   -0.251429   -0.275795
     55          6           0       12.716918   -0.679202   -0.757313
     56          6           0       13.830945   -0.141175    0.225187
     57          6           0       15.273871   -0.249449   -0.284201
     58          6           0       15.555091   -1.729850   -0.446974
     59          6           0       16.256247    0.544560    0.543082
     60          6           0       17.642334    0.748580   -0.123699
     61          6           0       18.452782    1.718261    0.690858
     62          6           0       20.011955    1.717260    0.202556
     63          6           0       19.963015    2.312435   -1.284731
     64          6           0       20.926183    2.487763    1.227358
     65          1           0       -4.028046    3.452540    1.899066
     66          1           0      -10.377683    3.948008   -0.181986
     67          1           0      -10.448037   -2.403715   -1.082731
     68          1           0       -2.682167   -1.262465    2.156082
     69          1           0       -2.084006    1.669293    1.349336
     70          1           0       -2.039539    1.012601    3.731288
     71          1           0       -3.092898    2.362832    3.510310
     72          1           0       -3.853349    0.672268    3.701835
     73          1           0       -2.273501   -1.613711   -0.420872
     74          1           0       -2.478301    0.051728   -0.730189
     75          1           0       -0.331859    0.461056    0.945682
     76          1           0       -0.450404   -1.322994    1.474240
     77          1           0       -4.519386    5.879339    0.815808
     78          1           0       -5.890027    6.875951    1.017987
     79          1           0       -5.280909    5.854432    2.356872
     80          1           0       -8.033546    7.042629    0.783581
     81          1           0       -9.939699    5.553128   -1.107953
     82          1           0       -9.816772    7.587904   -0.711587
     83          1           0      -12.902864    3.115193   -0.128077
     84          1           0      -12.088454    3.427147   -1.809822
     85          1           0      -13.369917    2.021674   -1.610539
     86          1           0      -12.507485   -1.567712   -1.224344
     87          1           0      -13.688589   -0.055860   -1.360228
     88          1           0      -12.550238    0.185415   -3.593747
     89          1           0      -11.535360   -1.425657   -3.397910
     90          1           0      -13.522492   -1.404408   -3.564281
     91          1           0       -9.725853   -4.731948   -0.269670
     92          1           0       -9.323307   -4.617096   -2.068968
     93          1           0       -8.228052   -5.718105   -0.957606
     94          1           0       -3.671928   -3.148205   -0.126297
     95          1           0       -1.912105   -6.101343    2.543453
     96          1           0       -1.442347   -4.502145    3.161591
     97          1           0       -2.910770   -5.478633    3.652985
     98          1           0        2.573532   -2.089104   -1.222106
     99          1           0        2.204449   -0.625678   -1.917718
    100          1           0        4.488691   -1.074847    0.460805
    101          1           0        5.102935    1.677607   -2.384506
    102          1           0        5.756653    0.156944   -3.185971
    103          1           0        4.031311    0.702503   -2.757336
    104          1           0        6.656985    1.455144   -0.322446
    105          1           0        6.329166   -0.097404    0.660381
    106          1           0        7.207440   -1.454710   -1.514117
    107          1           0        7.704415    0.300799   -2.162665
    108          1           0        9.016193    0.839913   -0.225013
    109          1           0        8.791870   -0.912756    0.603985
    110          1           0       10.093594   -0.118651   -1.987869
    111          1           0        9.325528   -2.448520   -1.994441
    112          1           0       11.125736   -2.735802   -1.349973
    113          1           0        9.793634   -2.614967   -0.214082
    114          1           0       11.492851    0.912951    0.131596
    115          1           0       11.284971   -0.679919    0.552906
    116          1           0       12.987404   -1.742778   -0.666981
    117          1           0       12.935282   -0.126201   -1.758808
    118          1           0       13.701016    0.898728    0.295362
    119          1           0       13.713852   -0.694234    1.194314
    120          1           0       15.599249    0.129312   -1.370963
    121          1           0       14.882900   -2.431140   -0.920744
    122          1           0       16.678538   -2.132860   -0.793136
    123          1           0       15.545959   -2.200169    0.493877
    124          1           0       15.858650    1.636631    0.835505
    125          1           0       16.511127    0.130830    1.550219
    126          1           0       18.227432   -0.234307    0.023338
    127          1           0       17.571569    1.143041   -1.098218
    128          1           0       18.089339    2.784921    0.818785
    129          1           0       18.604945    1.377433    1.742501
    130          1           0       20.422370    0.683068    0.278267
    131          1           0       19.745809    3.398259   -1.203526
    132          1           0       21.092966    2.245956   -1.683976
    133          1           0       19.363666    1.652797   -1.929790
    134          1           0       20.581254    1.854713    2.216107
    135          1           0       21.989726    2.366651    0.879334
    136          1           0       20.789596    3.520334    1.267690
    137          1           0       -7.261392    1.711257    0.419568
    138          1           0       -7.684483   -0.167900   -0.120877
 ---------------------------------------------------------------------

 SCF Done:  E(RB3LYP) =  -2733.02801166     A.U. after   16 cycles

 Excitation energies and oscillator strengths:

 Excited State   1:      Singlet-A      1.9796 eV  626.30 nm  f=0.1720  <S**2>=0.000
     235 -> 238        0.29384
     236 -> 237        0.63654
 This state for optimization and/or second-order correction.
 Total Energy, E(TD-HF/TD-DFT) =  -2732.95526123
 Copying the excited state density for this state as the 1-particle RhoCI density.

 The electronic state is 1-A.
 Alpha  occ. eigenvalues --  -19.19403 -19.15306 -19.13191 -19.11860 -19.11334
 Alpha  occ. eigenvalues --  -14.37012 -14.36296 -14.32705 -14.30116 -10.31586
 Alpha  occ. eigenvalues --  -10.30393 -10.27736 -10.25090 -10.24686 -10.24418
 Alpha  occ. eigenvalues --  -10.24310 -10.23598 -10.22827 -10.22693 -10.22435
 Alpha  occ. eigenvalues --  -10.22026 -10.21845 -10.21522 -10.21388 -10.21385
 Alpha  occ. eigenvalues --  -10.21347 -10.21051 -10.21051 -10.21002 -10.20980
 Alpha  occ. eigenvalues --  -10.20909 -10.20836 -10.20793 -10.20674 -10.20620
 Alpha  occ. eigenvalues --  -10.20518 -10.20167 -10.20135 -10.20121 -10.20014
 Alpha  occ. eigenvalues --  -10.19992 -10.19897 -10.19865 -10.19848 -10.19781
 Alpha  occ. eigenvalues --  -10.19623 -10.19596 -10.19355 -10.19259 -10.19211
 Alpha  occ. eigenvalues --  -10.19056 -10.19024 -10.19018 -10.18953 -10.18946
 Alpha  occ. eigenvalues --  -10.18873 -10.18866 -10.18819 -10.18490 -10.18319
 Alpha  occ. eigenvalues --  -10.18263 -10.18244 -10.18081 -10.17502  -1.12261
 Alpha  occ. eigenvalues --   -1.10210  -1.00598  -0.99933  -0.98912  -0.95964
 Alpha  occ. eigenvalues --   -0.95302  -0.93773  -0.92706  -0.84395  -0.83162
 Alpha  occ. eigenvalues --   -0.82463  -0.82352  -0.81346  -0.80528  -0.79564
 Alpha  occ. eigenvalues --   -0.79325  -0.78997  -0.78865  -0.78814  -0.77360
 Alpha  occ. eigenvalues --   -0.76688  -0.76057  -0.75452  -0.74894  -0.74540
 Alpha  occ. eigenvalues --   -0.73683  -0.73372  -0.72265  -0.71962  -0.71046
 Alpha  occ. eigenvalues --   -0.69877  -0.69366  -0.68360  -0.67979  -0.67255
 Alpha  occ. eigenvalues --   -0.66939  -0.66845  -0.66314  -0.65656  -0.64554
 Alpha  occ. eigenvalues --   -0.63826  -0.62201  -0.61476  -0.61250  -0.60565
 Alpha  occ. eigenvalues --   -0.59364  -0.58917  -0.58262  -0.57850  -0.56962
 Alpha  occ. eigenvalues --   -0.56534  -0.56261  -0.56115  -0.55505  -0.54338
 Alpha  occ. eigenvalues --   -0.54286  -0.54056  -0.53646  -0.53291  -0.52930
 Alpha  occ. eigenvalues --   -0.52045  -0.51772  -0.51554  -0.50895  -0.50317
 Alpha  occ. eigenvalues --   -0.49707  -0.49404  -0.49113  -0.48989  -0.48589
 Alpha  occ. eigenvalues --   -0.48026  -0.47868  -0.47798  -0.47566  -0.47405
 Alpha  occ. eigenvalues --   -0.47184  -0.46677  -0.46199  -0.45876  -0.45566
 Alpha  occ. eigenvalues --   -0.45312  -0.45063  -0.44943  -0.44734  -0.44639
 Alpha  occ. eigenvalues --   -0.44289  -0.43864  -0.43750  -0.43671  -0.43654
 Alpha  occ. eigenvalues --   -0.43534  -0.43078  -0.42846  -0.42691  -0.42390
 Alpha  occ. eigenvalues --   -0.42191  -0.42061  -0.41858  -0.41849  -0.41433
 Alpha  occ. eigenvalues --   -0.41178  -0.41106  -0.40934  -0.40897  -0.40472
 Alpha  occ. eigenvalues --   -0.40460  -0.40152  -0.40050  -0.39653  -0.39501
 Alpha  occ. eigenvalues --   -0.39229  -0.38777  -0.38565  -0.38473  -0.38266
 Alpha  occ. eigenvalues --   -0.38239  -0.38182  -0.37747  -0.37696  -0.37611
 Alpha  occ. eigenvalues --   -0.37498  -0.37358  -0.36883  -0.36753  -0.36632
 Alpha  occ. eigenvalues --   -0.36369  -0.36058  -0.35836  -0.35808  -0.35368
 Alpha  occ. eigenvalues --   -0.35258  -0.35209  -0.35095  -0.34965  -0.34602
 Alpha  occ. eigenvalues --   -0.34313  -0.34217  -0.33977  -0.33858  -0.33809
 Alpha  occ. eigenvalues --   -0.33253  -0.33007  -0.32927  -0.32814  -0.32691
 Alpha  occ. eigenvalues --   -0.32126  -0.31956  -0.31832  -0.31475  -0.31246
 Alpha  occ. eigenvalues --   -0.30882  -0.30838  -0.30312  -0.29813  -0.29804
 Alpha  occ. eigenvalues --   -0.29797  -0.29374  -0.28633  -0.28590  -0.28074
 Alpha  occ. eigenvalues --   -0.27551  -0.26812  -0.25942  -0.25331  -0.25142
 Alpha  occ. eigenvalues --   -0.24517  -0.24438  -0.23815  -0.21973  -0.19710
 Alpha  occ. eigenvalues --   -0.18642
 Alpha virt. eigenvalues --   -0.10356  -0.07840  -0.04584  -0.02613  -0.02519
 Alpha virt. eigenvalues --   -0.00644   0.00495   0.01480   0.02355   0.03528
 Alpha virt. eigenvalues --    0.03621   0.03852   0.04252   0.04508   0.04827

 Mulliken charges:
               1
     1  C    0.047039
     2  C   -0.063010
     3  C   -0.072921
     4  C   -0.070768
     5  N   -0.138956
     6  C   -0.086364
     7  C   -0.084523
     8  C   -0.068805
     9  C   -0.033074
    10  C    0.061070
    11  C   -0.033100
    12  C    0.031188
    13  C    0.154341
    14  O   -0.153323
    15  O   -0.401268
    16  N   -0.140797
    17  C    0.226259
    18  C   -0.157805
    19  C    0.022061
    20  C    0.099505
    21  C    0.137041
    22  C   -0.054370
    23  C   -0.029193
    24  N   -0.222474
    25  C    0.014490
    26  C   -0.201884
    27  C   -0.049703
    28  C    0.125271
    29  C    0.075050
    30  C   -0.055247
    31  C   -0.012004
    32  N   -0.178987
    33  C    0.030303
    34  C   -0.137216
    35  C   -0.004678
    36  C    0.035372
    37  C    0.050546
    38  C    0.109196
    39  O   -0.230205
    40  C    0.079823
    41  C    0.158709
    42  O   -0.242264
    43  O   -0.227578
    44  C    0.214460
    45  C    0.327080
    46  C   -0.046933
    47  C   -0.201410
    48  C    0.221955
    49  C    0.007998
    50  C   -0.053047
    51  C    0.001048
    52  C   -0.028274
    53  C   -0.006373
    54  C    0.130045
    55  C   -0.009404
    56  C    0.022179
    57  C   -0.030432
    58  C    0.003605
    59  C   -0.008647
    60  C    0.058919
    61  C   -0.026025
    62  C   -0.150424
    63  C    0.000577
    64  C    0.019236
    65  H   -0.020813
    66  H   -0.021454
    67  H   -0.025414
    68  H    0.039745
    69  H    0.028568
    70  H    0.001144
    71  H   -0.002966
    72  H    0.048940
    73  H    0.012505
    74  H    0.024838
    75  H    0.041921
    76  H    0.034856
    77  H    0.018541
    78  H    0.012715
    79  H    0.009192
    80  H   -0.009315
    81  H    0.034195
    82  H    0.053334
    83  H    0.037478
    84  H    0.045369
    85  H    0.033717
    86  H    0.004344
    87  H    0.035380
    88  H    0.006408
    89  H    0.042749
    90  H    0.037859
    91  H    0.037440
    92  H    0.041585
    93  H    0.060306
    94  H    0.004812
    95  H    0.023237
    96  H    0.045459
    97  H    0.027299
    98  H   -0.035164
    99  H    0.041581
   100  H    0.004729
   101  H   -0.014128
   102  H    0.064265
   103  H   -0.097542
   104  H    0.024619
   105  H    0.015326
   106  H    0.034549
   107  H    0.025293
   108  H    0.005868
   109  H    0.015438
   110  H   -0.021855
   111  H    0.026914
   112  H    0.023248
   113  H   -0.001498
   114  H   -0.000396
   115  H   -0.105153
   116  H    0.014026
   117  H    0.008915
   118  H   -0.023832
   119  H    0.007984
   120  H    0.008259
   121  H    0.008744
   122  H    0.009500
   123  H   -0.037214
   124  H    0.004363
   125  H   -0.012298
   126  H    0.014695
   127  H   -0.001349
   128  H    0.002535
   129  H   -0.021188
   130  H    0.003731
   131  H    0.021105
   132  H    0.007330
   133  H    0.032886
   134  H    0.032529
   135  H    0.015726
   136  H   -0.001940
   137  H    0.159147
   138  H    0.223396
 Sum of Mulliken charges =  -0.00000

 Dipole moment (field-independent basis, Debye):
    X=              4.7757    Y=              3.7367    Z=              1.3589  Tot=              6.2143
 Quadrupole moment (field-independent basis, Debye-Ang):
   XX=           -368.7608   YY=           -379.3968   ZZ=           -399.2125
   XY=            -24.8943   XZ=              6.9147   YZ=             -2.1204

 Normal termination of Gaussian 16 at Tue Aug 13 15:36:52 2019.
