 Gaussian 16, Revision A.03,
 Gaussian 16:  ES64L-G16RevA.03 25-Dec-2016

 --------------------------
 # td=(NStates=1) B3LYP/SVP
 --------------------------

 --
 TD
 --
 Symbolic Z-matrix:
 Charge =  0 Multiplicity = 1

                         Standard orientation:
 ---------------------------------------------------------------------
 Center     Atomic      Atomic             Coordinates (Angstroms)
 Number     Number       Type             X           Y           Z
 ---------------------------------------------------------------------
      1          6           0       -5.155381   -1.988828    0.501422
      2          6           0       -4.802609    2.795249    1.253813
      3          6           0       -9.418269    3.347330   -0.250044
      4          6           0       -9.948779   -1.472106   -0.692199
      5          7           0       -5.261664    0.423706    0.891918
      6          6           0       -4.557772   -0.728688    0.655055
      7          6           0       -3.043868   -0.625337    1.208696
      8          6           0       -2.992904    0.891095    1.691382
      9          6           0       -4.498765    1.419146    1.290957
     10          6           0       -2.813248    0.939243    3.261662
     11          6           0       -2.141102   -0.786420    0.020877
     12          6           0       -0.666463   -0.739535    0.313846
     13          6           0        0.352521   -0.965495   -0.795181
     14          8           0        0.106785   -1.215203   -1.901813
     15          8           0        1.632152   -0.763408   -0.327120
     16          7           0       -7.126758    2.859572    0.301315
     17          6           0       -5.921408    3.475280    0.757313
     18          6           0       -6.229681    4.816656    0.802171
     19          6           0       -7.502108    5.068841    0.473660
     20          6           0       -8.037600    3.737868    0.192433
     21          6           0       -5.163508    5.785490    1.351998
     22          6           0       -8.150297    6.364249    0.321615
     23          6           0       -9.217986    6.706054   -0.448041
     24          7           0       -9.267963    0.889250   -0.311011
     25          6           0       -9.812436    2.048552   -0.411882
     26          6           0      -11.307623    1.774033   -0.813687
     27          6           0      -11.328394    0.429374   -1.028656
     28          6           0      -10.123819   -0.078930   -0.730850
     29          6           0      -12.339335    2.863008   -0.979172
     30          6           0      -12.638223   -0.278827   -1.516616
     31          6           0      -12.641935   -0.455399   -3.006100
     32          7           0       -7.461274   -1.341853   -0.128595
     33          6           0       -8.653004   -1.985249   -0.460094
     34          6           0       -8.293798   -3.428470   -0.450984
     35          6           0       -6.945027   -3.473488   -0.088710
     36          6           0       -6.406350   -2.172007    0.071554
     37          6           0       -8.995971   -4.664008   -0.704571
     38          6           0       -5.775382   -4.406509    0.048713
     39          8           0       -5.601202   -5.587181    0.061413
     40          6           0       -4.555558   -3.427621    0.491161
     41          6           0       -3.796056   -3.739500    1.778565
     42          8           0       -3.949872   -3.183539    2.847899
     43          8           0       -3.132476   -4.810171    1.505103
     44          6           0       -2.442131   -5.482867    2.609888
     45          6           0        2.626922   -0.958148   -1.372731
     46          6           0        3.933991   -0.601179   -0.664272
     47          6           0        5.031411   -0.024714   -1.261530
     48          6           0        4.988257    0.639475   -2.602475
     49          6           0        6.328565    0.260906   -0.511850
     50          6           0        7.529354   -0.557009   -1.063375
     51          6           0        8.859609   -0.428612   -0.214373
     52          6           0       10.134958   -0.680815   -0.890555
     53          6           0       10.150686   -2.260383   -1.185563
     54          6           0       11.319254   -0.257563   -0.095317
     55          6           0       12.642296   -0.435965   -0.703506
     56          6           0       13.817658    0.026866    0.194583
     57          6           0       15.247995   -0.230522   -0.471478
     58          6           0       15.617556   -1.598547   -0.876178
     59          6           0       16.268791    0.449826    0.527807
     60          6           0       17.650252    0.706333   -0.045058
     61          6           0       18.612700    1.446095    0.981762
     62          6           0       20.079526    1.764932    0.423414
     63          6           0       20.227885    2.344887   -0.821429
     64          6           0       20.835631    2.404099    1.491472
     65          1           0       -4.122569    3.473626    1.668136
     66          1           0      -10.015874    4.162096   -0.383962
     67          1           0      -10.714275   -2.081209   -1.237215
     68          1           0       -2.797865   -1.382452    1.830781
     69          1           0       -2.172524    1.511929    1.467775
     70          1           0       -1.819262    0.520773    3.659530
     71          1           0       -2.994593    2.070267    3.402002
     72          1           0       -3.651897    0.438174    3.883267
     73          1           0       -2.460757   -1.879055   -0.268604
     74          1           0       -2.187244    0.140817   -0.682913
     75          1           0       -0.507141    0.228356    0.750707
     76          1           0       -0.220951   -1.399210    1.191275
     77          1           0       -4.266366    5.876316    0.595480
     78          1           0       -5.624875    6.723510    1.468904
     79          1           0       -4.646273    5.459399    2.326384
     80          1           0       -7.868684    7.280675    0.907136
     81          1           0       -9.593402    5.802805   -1.232061
     82          1           0       -9.837507    7.664145   -0.555392
     83          1           0      -12.580521    3.327049    0.144866
     84          1           0      -12.145140    3.629591   -1.617908
     85          1           0      -13.410872    2.401281   -1.145361
     86          1           0      -12.521062   -1.215636   -0.944160
     87          1           0      -13.582922    0.439348   -1.294866
     88          1           0      -12.645685    0.516477   -3.560636
     89          1           0      -11.732625   -1.152269   -3.217720
     90          1           0      -13.615875   -0.931620   -3.177100
     91          1           0       -9.734329   -4.932576    0.086037
     92          1           0       -9.563588   -4.872253   -1.609913
     93          1           0       -8.256314   -5.459666   -0.676819
     94          1           0       -3.799060   -3.641759   -0.202299
     95          1           0       -2.370677   -6.749250    2.096751
     96          1           0       -1.586144   -4.861489    2.959259
     97          1           0       -3.142625   -5.513248    3.656095
     98          1           0        2.412468   -2.071719   -1.389211
     99          1           0        2.512728   -0.061108   -2.186398
    100          1           0        4.170236   -1.145677    0.189729
    101          1           0        5.600851    1.731043   -2.365315
    102          1           0        5.567160    0.006518   -3.335212
    103          1           0        3.991085    0.996100   -2.976708
    104          1           0        6.518956    1.352054   -0.447499
    105          1           0        6.198993    0.080903    0.504669
    106          1           0        7.248044   -1.661881   -1.360670
    107          1           0        7.681906   -0.095143   -2.032724
    108          1           0        8.968952    0.658673    0.080814
    109          1           0        8.684578   -1.020349    0.755608
    110          1           0        9.890489   -0.382386   -2.015302
    111          1           0        9.338265   -2.467919   -1.969803
    112          1           0       11.189796   -2.449938   -1.580476
    113          1           0        9.713855   -2.792216   -0.279297
    114          1           0       11.177067    0.925780    0.093064
    115          1           0       11.144338   -0.934560    0.792933
    116          1           0       12.502105   -1.500776   -0.890418
    117          1           0       12.719639    0.070827   -1.785427
    118          1           0       13.732793    1.054106    0.405866
    119          1           0       14.041676   -0.615498    1.158653
    120          1           0       15.061860    0.402944   -1.450548
    121          1           0       14.954029   -2.118691   -1.331573
    122          1           0       16.457492   -1.752965   -1.597956
    123          1           0       15.928258   -2.059683    0.102241
    124          1           0       16.042470    1.480713    1.071634
    125          1           0       16.108930   -0.317130    1.398750
    126          1           0       18.196377   -0.166112   -0.286205
    127          1           0       17.541040    1.305499   -0.878420
    128          1           0       17.992681    2.291948    1.203172
    129          1           0       18.695108    0.955703    1.983234
    130          1           0       20.654634    0.721543    0.220378
    131          1           0       19.661449    3.352699   -0.765996
    132          1           0       21.139425    2.552392   -1.257457
    133          1           0       20.160533    1.599730   -1.791495
    134          1           0       20.917179    1.825829    2.395966
    135          1           0       21.910514    2.829628    0.979518
    136          1           0       20.356121    3.475361    2.087078
    137          1           0       -7.312954    1.807529    0.061507
    138          1           0       -7.535270   -0.230319    0.086556
 ---------------------------------------------------------------------

 SCF Done:  E(RB3LYP) =  -2732.94073945     A.U. after   17 cycles

 Excitation energies and oscillator strengths:

 Excited State   1:      Singlet-A      1.9688 eV  629.75 nm  f=0.2001  <S**2>=0.000
     235 -> 238        0.26653
     236 -> 237        0.64915
 This state for optimization and/or second-order correction.
 Total Energy, E(TD-HF/TD-DFT) =  -2732.86838743
 Copying the excited state density for this state as the 1-particle RhoCI density.

 The electronic state is 1-A.
 Alpha  occ. eigenvalues --  -19.19383 -19.15802 -19.13232 -19.12327 -19.12119
 Alpha  occ. eigenvalues --  -14.37533 -14.37205 -14.32973 -14.29820 -10.31475
 Alpha  occ. eigenvalues --  -10.30319 -10.28823 -10.28812 -10.25623 -10.24357
 Alpha  occ. eigenvalues --  -10.23982 -10.23537 -10.23327 -10.23212 -10.22476
 Alpha  occ. eigenvalues --  -10.21506 -10.21460 -10.21429 -10.21349 -10.20922
 Alpha  occ. eigenvalues --  -10.20837 -10.20719 -10.20558 -10.20504 -10.20473
 Alpha  occ. eigenvalues --  -10.20386 -10.20363 -10.20257 -10.20175 -10.20164
 Alpha  occ. eigenvalues --  -10.20024 -10.20004 -10.19985 -10.19942 -10.19836
 Alpha  occ. eigenvalues --  -10.19706 -10.19585 -10.19559 -10.19552 -10.19493
 Alpha  occ. eigenvalues --  -10.19300 -10.19254 -10.19213 -10.19101 -10.19071
 Alpha  occ. eigenvalues --  -10.18993 -10.18951 -10.18950 -10.18907 -10.18886
 Alpha  occ. eigenvalues --  -10.18879 -10.18699 -10.18517 -10.18414 -10.18196
 Alpha  occ. eigenvalues --  -10.18135 -10.16985 -10.16920 -10.16852  -1.11546
 Alpha  occ. eigenvalues --   -1.09437  -1.04441  -1.01110  -1.01081  -1.00297
 Alpha  occ. eigenvalues --   -0.97690  -0.95517  -0.93818  -0.84724  -0.83068
 Alpha  occ. eigenvalues --   -0.82970  -0.82146  -0.81650  -0.81237  -0.81018
 Alpha  occ. eigenvalues --   -0.80369  -0.80255  -0.80011  -0.78420  -0.77007
 Alpha  occ. eigenvalues --   -0.76667  -0.75828  -0.75652  -0.74780  -0.74219
 Alpha  occ. eigenvalues --   -0.73974  -0.73749  -0.73160  -0.71477  -0.70622
 Alpha  occ. eigenvalues --   -0.70149  -0.69599  -0.68483  -0.68300  -0.67986
 Alpha  occ. eigenvalues --   -0.67298  -0.66842  -0.66120  -0.65649  -0.64682
 Alpha  occ. eigenvalues --   -0.63508  -0.62032  -0.61869  -0.61551  -0.60383
 Alpha  occ. eigenvalues --   -0.60021  -0.58977  -0.58511  -0.57898  -0.57323
 Alpha  occ. eigenvalues --   -0.56575  -0.56412  -0.55805  -0.55411  -0.54786
 Alpha  occ. eigenvalues --   -0.54447  -0.54050  -0.53863  -0.53504  -0.53140
 Alpha  occ. eigenvalues --   -0.52297  -0.52103  -0.51533  -0.50779  -0.50542
 Alpha  occ. eigenvalues --   -0.50315  -0.49454  -0.49326  -0.48979  -0.48698
 Alpha  occ. eigenvalues --   -0.48497  -0.48316  -0.47676  -0.47595  -0.47434
 Alpha  occ. eigenvalues --   -0.46872  -0.46401  -0.46306  -0.45864  -0.45595
 Alpha  occ. eigenvalues --   -0.45514  -0.45354  -0.45213  -0.44936  -0.44649
 Alpha  occ. eigenvalues --   -0.44558  -0.44405  -0.44362  -0.44036  -0.43939
 Alpha  occ. eigenvalues --   -0.43688  -0.43595  -0.43428  -0.42901  -0.42810
 Alpha  occ. eigenvalues --   -0.42545  -0.42502  -0.42312  -0.42190  -0.41817
 Alpha  occ. eigenvalues --   -0.41676  -0.41497  -0.40969  -0.40794  -0.40665
 Alpha  occ. eigenvalues --   -0.40543  -0.40065  -0.40013  -0.39781  -0.39600
 Alpha  occ. eigenvalues --   -0.39401  -0.39180  -0.38922  -0.38535  -0.38439
 Alpha  occ. eigenvalues --   -0.38335  -0.38165  -0.38078  -0.37749  -0.37490
 Alpha  occ. eigenvalues --   -0.37295  -0.37087  -0.37030  -0.36929  -0.36855
 Alpha  occ. eigenvalues --   -0.36310  -0.36032  -0.35965  -0.35500  -0.35413
 Alpha  occ. eigenvalues --   -0.35311  -0.35122  -0.34911  -0.34830  -0.34689
 Alpha  occ. eigenvalues --   -0.34323  -0.33666  -0.33640  -0.33576  -0.33425
 Alpha  occ. eigenvalues --   -0.33412  -0.33098  -0.32613  -0.32356  -0.32014
 Alpha  occ. eigenvalues --   -0.31600  -0.31577  -0.31298  -0.31206  -0.31059
 Alpha  occ. eigenvalues --   -0.31050  -0.30529  -0.29964  -0.29613  -0.29298
 Alpha  occ. eigenvalues --   -0.28819  -0.28790  -0.28528  -0.28033  -0.27709
 Alpha  occ. eigenvalues --   -0.27549  -0.27212  -0.26362  -0.26035  -0.25537
 Alpha  occ. eigenvalues --   -0.25262  -0.24473  -0.24452  -0.22742  -0.20190
 Alpha  occ. eigenvalues --   -0.18733
 Alpha virt. eigenvalues --   -0.10631  -0.07811  -0.04696  -0.01868  -0.01020
 Alpha virt. eigenvalues --   -0.00359   0.00870   0.01715   0.02208   0.02390
 Alpha virt. eigenvalues --    0.03493   0.03722   0.04035   0.04418   0.04575

 Mulliken charges:
               1
     1  C    0.094489
     2  C    0.011563
     3  C   -0.063093
     4  C   -0.132864
     5  N   -0.146409
     6  C   -0.051448
     7  C    0.041801
     8  C   -0.050330
     9  C   -0.002921
    10  C   -0.024301
    11  C    0.034734
    12  C    0.006330
    13  C    0.150419
    14  O   -0.173743
    15  O   -0.367775
    16  N   -0.047037
    17  C    0.085618
    18  C   -0.104220
    19  C    0.071551
    20  C   -0.041348
    21  C    0.078958
    22  C   -0.056470
    23  C   -0.130414
    24  N   -0.198046
    25  C    0.117872
    26  C   -0.164068
    27  C   -0.087202
    28  C    0.072534
    29  C    0.075600
    30  C    0.011648
    31  C    0.024940
    32  N   -0.121804
    33  C    0.110651
    34  C   -0.103791
    35  C   -0.061223
    36  C    0.067057
    37  C    0.075097
    38  C    0.117045
    39  O   -0.137036
    40  C   -0.079271
    41  C    0.175757
    42  O   -0.233097
    43  O   -0.245721
    44  C    0.064641
    45  C    0.266972
    46  C   -0.056461
    47  C   -0.161207
    48  C   -0.003037
    49  C    0.111664
    50  C   -0.020009
    51  C    0.032303
    52  C   -0.136408
    53  C   -0.029693
    54  C    0.043724
    55  C    0.028544
    56  C    0.054637
    57  C   -0.127122
    58  C    0.148522
    59  C   -0.055072
    60  C    0.135351
    61  C    0.000349
    62  C   -0.035838
    63  C    0.029755
    64  C   -0.045081
    65  H   -0.055993
    66  H   -0.080732
    67  H    0.015914
    68  H   -0.035081
    69  H   -0.010077
    70  H    0.037277
    71  H    0.004516
    72  H    0.036210
    73  H    0.019127
    74  H    0.025642
    75  H    0.004086
    76  H    0.020065
    77  H    0.036906
    78  H   -0.001893
    79  H    0.044820
    80  H    0.016302
    81  H    0.041973
    82  H    0.053564
    83  H    0.031935
    84  H    0.016111
    85  H    0.012620
    86  H    0.015455
    87  H    0.019806
    88  H    0.023178
    89  H    0.023144
    90  H    0.013392
    91  H    0.025415
    92  H    0.016364
    93  H    0.023888
    94  H    0.028158
    95  H    0.097403
    96  H    0.056172
    97  H    0.069106
    98  H    0.033512
    99  H    0.054169
   100  H   -0.032978
   101  H    0.026273
   102  H    0.051538
   103  H    0.033948
   104  H    0.006215
   105  H   -0.037820
   106  H    0.023510
   107  H   -0.013819
   108  H   -0.012528
   109  H    0.006991
   110  H    0.004212
   111  H    0.014709
   112  H    0.032977
   113  H    0.012685
   114  H    0.003922
   115  H    0.008593
   116  H   -0.014373
   117  H    0.010279
   118  H   -0.008828
   119  H   -0.000997
   120  H   -0.015661
   121  H   -0.051713
   122  H    0.008254
   123  H   -0.006206
   124  H    0.005588
   125  H   -0.000253
   126  H   -0.019543
   127  H   -0.014578
   128  H   -0.020929
   129  H   -0.003437
   130  H   -0.001744
   131  H    0.012071
   132  H   -0.021880
   133  H    0.005462
   134  H    0.012083
   135  H    0.025463
   136  H    0.004454
   137  H    0.185333
   138  H    0.203708
 Sum of Mulliken charges =  -0.00000

 Dipole moment (field-independent basis, Debye):
    X=              2.0697    Y=              2.6205    Z=             -0.1105  Tot=              3.3411
 Quadrupole moment (field-independent basis, Debye-Ang):
   XX=           -347.0551   YY=           -376.0697   ZZ=           -401.0514
   XY=            -25.2634   XZ=              3.8782   YZ=             -3.1884

 Normal termination of Gaussian 16 at Wed Aug 28 08:19:52 2019.
