 Gaussian 16, Revision A.03,
 Gaussian 16:  ES64L-G16RevA.03 25-Dec-2016

 --------------------------
 # td=(NStates=1) B3LYP/SVP
 --------------------------

 --
 TD
 --
 Symbolic Z-matrix:
 Charge =  0 Multiplicity = 1

                         Standard orientation:
 ---------------------------------------------------------------------
 Center     Atomic      Atomic             Coordinates (Angstroms)
 Number     Number       Type             X           Y           Z
 ---------------------------------------------------------------------
      1          6           0       -5.113995   -1.946742    0.550733
      2          6           0       -4.702568    2.833148    1.515251
      3          6           0       -9.238148    3.386028   -0.322986
      4          6           0       -9.826580   -1.417929   -0.901267
      5          7           0       -5.144293    0.451800    0.876998
      6          6           0       -4.507819   -0.812694    0.893157
      7          6           0       -3.034590   -0.613423    1.319562
      8          6           0       -3.081102    0.836880    1.827855
      9          6           0       -4.350570    1.407461    1.312094
     10          6           0       -2.902475    0.811476    3.381565
     11          6           0       -2.044963   -0.723080    0.243325
     12          6           0       -0.537875   -0.751360    0.578710
     13          6           0        0.301936   -0.988559   -0.581754
     14          8           0        0.032147   -1.379919   -1.638461
     15          8           0        1.679175   -0.829694   -0.252275
     16          7           0       -6.925578    2.835703    0.525166
     17          6           0       -5.796820    3.386919    1.057189
     18          6           0       -6.050332    4.849794    1.047783
     19          6           0       -7.461782    5.045070    0.559241
     20          6           0       -8.013088    3.633162    0.226952
     21          6           0       -5.163420    5.828357    1.533803
     22          6           0       -8.192061    6.313994    0.494475
     23          6           0       -9.058378    6.646540   -0.473103
     24          7           0       -9.123637    0.910064   -0.572371
     25          6           0       -9.843886    2.133425   -0.656726
     26          6           0      -11.138495    1.952760   -1.124058
     27          6           0      -11.274474    0.636227   -1.355672
     28          6           0      -10.035313   -0.010709   -0.948513
     29          6           0      -12.078599    3.064916   -1.347738
     30          6           0      -12.572508   -0.205581   -1.662417
     31          6           0      -12.583601   -0.769511   -3.256313
     32          7           0       -7.420544   -1.194633   -0.389283
     33          6           0       -8.540228   -2.060381   -0.542525
     34          6           0       -8.220169   -3.398678   -0.690260
     35          6           0       -6.899304   -3.420800   -0.161925
     36          6           0       -6.450202   -2.038492    0.085386
     37          6           0       -9.183968   -4.589958   -0.946679
     38          6           0       -5.828112   -4.307851    0.265961
     39          8           0       -5.683821   -5.483112    0.261780
     40          6           0       -4.495708   -3.362460    0.552330
     41          6           0       -3.883707   -3.781924    1.769611
     42          8           0       -4.049282   -3.320843    2.895427
     43          8           0       -3.089645   -4.810743    1.544578
     44          6           0       -2.601475   -5.501367    2.736156
     45          6           0        2.704510   -1.106494   -1.210866
     46          6           0        4.062243   -0.770684   -0.687075
     47          6           0        4.903247    0.072879   -1.257668
     48          6           0        4.800609    0.832056   -2.549036
     49          6           0        6.317254    0.248618   -0.480470
     50          6           0        7.520894   -0.436514   -1.106918
     51          6           0        8.762801   -0.314205   -0.211658
     52          6           0        9.941665   -0.835559   -0.865518
     53          6           0        9.886103   -2.314103   -1.019093
     54          6           0       11.268827   -0.522870   -0.098427
     55          6           0       12.619598   -0.726235   -0.776168
     56          6           0       13.816692   -0.188375    0.123098
     57          6           0       15.210329   -0.277440   -0.554195
     58          6           0       15.697026   -1.717322   -0.685552
     59          6           0       16.129414    0.623315    0.343437
     60          6           0       17.608568    0.677571    0.025640
     61          6           0       18.519300    1.711421    0.820263
     62          6           0       19.875338    1.844802    0.361831
     63          6           0       20.114266    2.288075   -1.215750
     64          6           0       20.741131    2.728540    1.242678
     65          1           0       -3.909785    3.322161    2.147520
     66          1           0       -9.767073    4.450233   -0.416447
     67          1           0      -10.861541   -2.016347   -0.938059
     68          1           0       -2.736728   -1.272559    2.219767
     69          1           0       -2.251856    1.585180    1.494593
     70          1           0       -2.082740    0.366801    3.526942
     71          1           0       -2.932136    1.971912    3.863166
     72          1           0       -3.822494    0.389865    3.896661
     73          1           0       -2.112162   -1.854774   -0.368854
     74          1           0       -2.134294   -0.109601   -0.608574
     75          1           0       -0.136046    0.418190    1.061133
     76          1           0       -0.259765   -1.409841    1.680054
     77          1           0       -4.069451    5.985490    1.034445
     78          1           0       -5.699747    6.630196    1.351790
     79          1           0       -4.811430    5.694867    2.597684
     80          1           0       -7.961770    6.886184    1.201825
     81          1           0       -9.432418    6.168974   -1.369386
     82          1           0       -9.687348    7.604806   -0.319225
     83          1           0      -12.134948    3.582294   -0.331726
     84          1           0      -11.912921    3.970214   -1.972535
     85          1           0      -13.113728    2.621815   -1.697189
     86          1           0      -12.606388   -0.992493   -0.982095
     87          1           0      -13.368499    0.418002   -1.413186
     88          1           0      -12.669902    0.317410   -3.900333
     89          1           0      -11.693290   -1.473159   -3.350225
     90          1           0      -13.549884   -1.410037   -3.409285
     91          1           0      -10.269656   -4.033258   -0.533681
     92          1           0       -9.072471   -4.564353   -2.177516
     93          1           0       -8.922716   -5.629787   -0.332680
     94          1           0       -3.849782   -3.758487   -0.299315
     95          1           0       -2.280582   -6.454532    2.382598
     96          1           0       -2.087212   -5.039525    3.393836
     97          1           0       -3.804459   -5.696615    3.387134
     98          1           0        2.668508   -2.250175   -1.801528
     99          1           0        2.641361   -0.528917   -2.093890
    100          1           0        4.130499   -1.012107    0.226161
    101          1           0        5.161304    1.726539   -2.341054
    102          1           0        5.525530    0.422467   -3.432517
    103          1           0        3.815881    0.918732   -2.825389
    104          1           0        6.352849    1.480507   -0.505909
    105          1           0        6.082559   -0.151574    0.589066
    106          1           0        7.262324   -1.575231   -1.136844
    107          1           0        7.658949   -0.093219   -2.082338
    108          1           0        8.936900    0.764582    0.017309
    109          1           0        8.401884   -0.884374    0.706109
    110          1           0       10.108869   -0.589823   -1.876949
    111          1           0        9.108960   -2.752276   -1.605443
    112          1           0       10.620188   -2.809004   -1.560345
    113          1           0        9.841683   -3.034238   -0.173491
    114          1           0       11.274973    0.462716    0.169100
    115          1           0       11.110753   -1.029593    0.934010
    116          1           0       12.703388   -1.868565   -0.918750
    117          1           0       12.530650   -0.379509   -1.817692
    118          1           0       13.694585    0.971947    0.239388
    119          1           0       13.662273   -0.689315    1.258239
    120          1           0       15.140092   -0.081484   -1.562003
    121          1           0       14.855499   -2.429778   -1.183474
    122          1           0       16.648058   -1.864398   -1.354498
    123          1           0       15.766714   -2.213817    0.359880
    124          1           0       15.513912    1.481879    0.361683
    125          1           0       16.063209    0.331650    1.457602
    126          1           0       18.019814   -0.393950   -0.163835
    127          1           0       17.498666    1.047257   -1.120715
    128          1           0       18.129264    2.740077    0.925001
    129          1           0       18.719393    1.441131    1.991627
    130          1           0       20.319670    0.866842    0.451828
    131          1           0       19.634455    3.394227   -1.200923
    132          1           0       21.192566    1.993434   -1.533677
    133          1           0       19.442053    1.728656   -1.821605
    134          1           0       20.642144    2.746609    2.553730
    135          1           0       21.991540    2.534715    1.398700
    136          1           0       20.440846    3.818366    0.861801
    137          1           0       -7.133902    1.610059    0.649407
    138          1           0       -7.556504   -0.239105   -0.495081
 ---------------------------------------------------------------------

 SCF Done:  E(RB3LYP) =  -2732.80915217     A.U. after   17 cycles

 Excitation energies and oscillator strengths:

 Excited State   1:      Singlet-A      2.0631 eV  600.95 nm  f=0.1715  <S**2>=0.000
     235 -> 237       -0.12777
     235 -> 238        0.24745
     236 -> 237        0.63467
     236 -> 238        0.12092
 This state for optimization and/or second-order correction.
 Total Energy, E(TD-HF/TD-DFT) =  -2732.73333350
 Copying the excited state density for this state as the 1-particle RhoCI density.

 The electronic state is 1-A.
 Alpha  occ. eigenvalues --  -19.17618 -19.15749 -19.13528 -19.12304 -19.10835
 Alpha  occ. eigenvalues --  -14.37502 -14.37303 -14.32521 -14.30118 -10.31732
 Alpha  occ. eigenvalues --  -10.30009 -10.27911 -10.24771 -10.24668 -10.24599
 Alpha  occ. eigenvalues --  -10.24451 -10.24261 -10.24249 -10.23986 -10.23733
 Alpha  occ. eigenvalues --  -10.23542 -10.22992 -10.22346 -10.22078 -10.22002
 Alpha  occ. eigenvalues --  -10.21843 -10.21780 -10.21493 -10.21388 -10.21146
 Alpha  occ. eigenvalues --  -10.20978 -10.20818 -10.20815 -10.20810 -10.20736
 Alpha  occ. eigenvalues --  -10.20572 -10.20547 -10.20537 -10.20439 -10.20426
 Alpha  occ. eigenvalues --  -10.20257 -10.20242 -10.19856 -10.19778 -10.19733
 Alpha  occ. eigenvalues --  -10.19585 -10.19576 -10.19561 -10.19539 -10.19458
 Alpha  occ. eigenvalues --  -10.19447 -10.18930 -10.18876 -10.18780 -10.18682
 Alpha  occ. eigenvalues --  -10.18479 -10.18407 -10.18283 -10.18282 -10.18213
 Alpha  occ. eigenvalues --  -10.17992 -10.17244 -10.16407 -10.16002  -1.09724
 Alpha  occ. eigenvalues --   -1.09470  -1.04379  -1.00492  -0.98747  -0.98196
 Alpha  occ. eigenvalues --   -0.96344  -0.94394  -0.93483  -0.84411  -0.82994
 Alpha  occ. eigenvalues --   -0.81994  -0.81628  -0.81584  -0.81471  -0.81160
 Alpha  occ. eigenvalues --   -0.80886  -0.80096  -0.79545  -0.78167  -0.77646
 Alpha  occ. eigenvalues --   -0.77171  -0.76426  -0.76174  -0.74722  -0.74023
 Alpha  occ. eigenvalues --   -0.73754  -0.72990  -0.72095  -0.71696  -0.70572
 Alpha  occ. eigenvalues --   -0.69487  -0.68994  -0.68316  -0.68100  -0.67699
 Alpha  occ. eigenvalues --   -0.66783  -0.66506  -0.66146  -0.65539  -0.64759
 Alpha  occ. eigenvalues --   -0.64654  -0.63298  -0.62921  -0.62003  -0.61597
 Alpha  occ. eigenvalues --   -0.60762  -0.58968  -0.58279  -0.57926  -0.57265
 Alpha  occ. eigenvalues --   -0.56878  -0.56390  -0.56247  -0.55657  -0.55391
 Alpha  occ. eigenvalues --   -0.55286  -0.54577  -0.54207  -0.53208  -0.52970
 Alpha  occ. eigenvalues --   -0.52245  -0.52194  -0.51633  -0.51282  -0.50392
 Alpha  occ. eigenvalues --   -0.49760  -0.48979  -0.48751  -0.48638  -0.48353
 Alpha  occ. eigenvalues --   -0.47916  -0.47521  -0.47283  -0.47205  -0.46989
 Alpha  occ. eigenvalues --   -0.46717  -0.46486  -0.46280  -0.46005  -0.45492
 Alpha  occ. eigenvalues --   -0.45323  -0.45004  -0.44717  -0.44646  -0.44270
 Alpha  occ. eigenvalues --   -0.44063  -0.43972  -0.43800  -0.43534  -0.43256
 Alpha  occ. eigenvalues --   -0.43114  -0.43052  -0.42801  -0.42639  -0.42495
 Alpha  occ. eigenvalues --   -0.42336  -0.42113  -0.41910  -0.41690  -0.41423
 Alpha  occ. eigenvalues --   -0.41368  -0.40816  -0.40694  -0.40396  -0.40087
 Alpha  occ. eigenvalues --   -0.39924  -0.39672  -0.39647  -0.39390  -0.39364
 Alpha  occ. eigenvalues --   -0.39095  -0.38947  -0.38773  -0.38569  -0.38384
 Alpha  occ. eigenvalues --   -0.38181  -0.37984  -0.37619  -0.37529  -0.37211
 Alpha  occ. eigenvalues --   -0.37098  -0.36971  -0.36890  -0.36659  -0.36618
 Alpha  occ. eigenvalues --   -0.36160  -0.36001  -0.35858  -0.35479  -0.35400
 Alpha  occ. eigenvalues --   -0.34955  -0.34800  -0.34726  -0.34575  -0.34520
 Alpha  occ. eigenvalues --   -0.34170  -0.34132  -0.34092  -0.33864  -0.33537
 Alpha  occ. eigenvalues --   -0.33485  -0.33356  -0.33120  -0.33063  -0.32153
 Alpha  occ. eigenvalues --   -0.32010  -0.31773  -0.31536  -0.31008  -0.30624
 Alpha  occ. eigenvalues --   -0.30466  -0.30298  -0.29941  -0.29724  -0.29527
 Alpha  occ. eigenvalues --   -0.29010  -0.28904  -0.28599  -0.28258  -0.28048
 Alpha  occ. eigenvalues --   -0.27771  -0.27026  -0.26843  -0.26558  -0.25873
 Alpha  occ. eigenvalues --   -0.24541  -0.24397  -0.23195  -0.23060  -0.20544
 Alpha  occ. eigenvalues --   -0.19063
 Alpha virt. eigenvalues --   -0.10540  -0.08179  -0.05094  -0.02342  -0.01923
 Alpha virt. eigenvalues --   -0.00210   0.00429   0.00637   0.01475   0.02604
 Alpha virt. eigenvalues --    0.02849   0.03613   0.03992   0.04182   0.04390

 Mulliken charges:
               1
     1  C    0.064450
     2  C   -0.165131
     3  C   -0.121082
     4  C   -0.095114
     5  N   -0.183361
     6  C   -0.073836
     7  C    0.032410
     8  C   -0.107485
     9  C   -0.016114
    10  C    0.089475
    11  C    0.039006
    12  C   -0.146616
    13  C    0.224397
    14  O   -0.155796
    15  O   -0.369989
    16  N   -0.176281
    17  C    0.268847
    18  C   -0.123604
    19  C   -0.035413
    20  C    0.100143
    21  C    0.094987
    22  C    0.057224
    23  C   -0.045434
    24  N   -0.275334
    25  C    0.102598
    26  C   -0.084691
    27  C   -0.103434
    28  C    0.030179
    29  C    0.047196
    30  C    0.091248
    31  C   -0.081662
    32  N   -0.027935
    33  C    0.069768
    34  C   -0.114767
    35  C   -0.014218
    36  C    0.122394
    37  C   -0.055423
    38  C    0.034925
    39  O   -0.136119
    40  C   -0.076717
    41  C    0.186767
    42  O   -0.260858
    43  O   -0.289047
    44  C    0.205988
    45  C    0.275531
    46  C   -0.002618
    47  C   -0.170332
    48  C    0.179826
    49  C   -0.029088
    50  C    0.039613
    51  C    0.069344
    52  C    0.020776
    53  C    0.038924
    54  C    0.044478
    55  C    0.034482
    56  C   -0.062474
    57  C   -0.007580
    58  C   -0.068971
    59  C    0.063644
    60  C   -0.001021
    61  C    0.045611
    62  C   -0.062215
    63  C   -0.007183
    64  C   -0.112126
    65  H   -0.001744
    66  H    0.008765
    67  H    0.033581
    68  H    0.039819
    69  H    0.011571
    70  H   -0.028797
    71  H    0.013879
    72  H    0.041096
    73  H    0.039158
    74  H    0.000101
    75  H    0.057541
    76  H    0.085319
    77  H    0.035146
    78  H   -0.029612
    79  H    0.033583
    80  H   -0.069938
    81  H    0.038222
    82  H    0.029519
    83  H    0.022759
    84  H    0.025424
    85  H    0.026193
    86  H   -0.011760
    87  H   -0.021648
    88  H    0.056880
    89  H    0.045222
    90  H    0.034391
    91  H    0.064509
    92  H    0.080465
    93  H    0.096899
    94  H    0.076312
    95  H    0.039051
    96  H   -0.004191
    97  H    0.038387
    98  H    0.024373
    99  H   -0.035424
   100  H   -0.092329
   101  H   -0.038405
   102  H    0.044057
   103  H   -0.010766
   104  H    0.013208
   105  H    0.012940
   106  H    0.017573
   107  H   -0.026033
   108  H   -0.006233
   109  H    0.006494
   110  H   -0.035617
   111  H   -0.029991
   112  H   -0.039254
   113  H   -0.017674
   114  H   -0.052594
   115  H   -0.009849
   116  H    0.007726
   117  H   -0.006528
   118  H    0.015220
   119  H    0.035167
   120  H   -0.026463
   121  H    0.016183
   122  H    0.033888
   123  H    0.012942
   124  H   -0.029292
   125  H   -0.008696
   126  H    0.024645
   127  H    0.005896
   128  H   -0.013189
   129  H    0.012730
   130  H   -0.016940
   131  H    0.025288
   132  H    0.042972
   133  H   -0.001098
   134  H    0.019011
   135  H    0.040009
   136  H    0.027321
   137  H    0.237892
   138  H    0.099578
 Sum of Mulliken charges =  -0.00000

 Dipole moment (field-independent basis, Debye):
    X=             -0.1555    Y=              4.2754    Z=              0.0988  Tot=              4.2793
 Quadrupole moment (field-independent basis, Debye-Ang):
   XX=           -358.1432   YY=           -383.1131   ZZ=           -396.8516
   XY=            -29.8528   XZ=             -1.9587   YZ=              2.7901

 Normal termination of Gaussian 16 at Thu Aug 29 09:40:54 2019.
