 Gaussian 16, Revision A.03,
 Gaussian 16:  ES64L-G16RevA.03 25-Dec-2016

 --------------------------
 # td=(NStates=1) B3LYP/SVP
 --------------------------

 --
 TD
 --
 Symbolic Z-matrix:
 Charge =  0 Multiplicity = 1

                         Standard orientation:
 ---------------------------------------------------------------------
 Center     Atomic      Atomic             Coordinates (Angstroms)
 Number     Number       Type             X           Y           Z
 ---------------------------------------------------------------------
      1          6           0       -5.024468   -1.969781    0.492973
      2          6           0       -4.768493    2.739368    1.362293
      3          6           0       -9.355083    3.414071   -0.173325
      4          6           0       -9.782834   -1.397774   -0.866990
      5          7           0       -5.115846    0.416915    0.795708
      6          6           0       -4.537029   -0.761105    0.838049
      7          6           0       -3.026247   -0.689882    1.169537
      8          6           0       -3.102182    0.675278    1.868147
      9          6           0       -4.349887    1.419791    1.262779
     10          6           0       -3.137416    0.666327    3.449510
     11          6           0       -2.132375   -0.610494   -0.091694
     12          6           0       -0.633979   -0.597751    0.307085
     13          6           0        0.363189   -1.055522   -0.787488
     14          8           0        0.165266   -1.422295   -1.916359
     15          8           0        1.678062   -0.934476   -0.249040
     16          7           0       -7.040933    2.823676    0.452554
     17          6           0       -5.937638    3.418672    0.955771
     18          6           0       -6.098441    4.798207    1.111961
     19          6           0       -7.321563    5.076700    0.657392
     20          6           0       -7.998313    3.799268    0.274966
     21          6           0       -4.977861    5.815682    1.415607
     22          6           0       -7.968825    6.367830    0.439393
     23          6           0       -9.027185    6.675960   -0.402224
     24          7           0       -9.138493    0.942884   -0.444072
     25          6           0       -9.770898    2.076581   -0.533866
     26          6           0      -11.154130    1.863067   -0.914838
     27          6           0      -11.333226    0.545463   -1.120159
     28          6           0      -10.030223    0.055975   -0.827301
     29          6           0      -12.213812    2.991658   -1.130983
     30          6           0      -12.557555   -0.080895   -1.618562
     31          6           0      -12.607315   -0.351674   -3.118084
     32          7           0       -7.448540   -1.214206   -0.223135
     33          6           0       -8.516325   -2.006916   -0.600658
     34          6           0       -8.143718   -3.364164   -0.684493
     35          6           0       -6.803873   -3.298363   -0.318219
     36          6           0       -6.402727   -2.105729   -0.027343
     37          6           0       -9.017862   -4.436568   -1.077122
     38          6           0       -5.689216   -4.313010   -0.020171
     39          8           0       -5.631424   -5.510352   -0.186055
     40          6           0       -4.534616   -3.413326    0.531423
     41          6           0       -4.067213   -3.828234    1.901256
     42          8           0       -4.311957   -3.281955    2.943746
     43          8           0       -3.345573   -4.977873    1.873897
     44          6           0       -2.865159   -5.477033    3.037132
     45          6           0        2.620541   -1.273586   -1.299147
     46          6           0        3.962802   -0.727770   -0.677241
     47          6           0        4.919789   -0.098430   -1.315655
     48          6           0        4.893949    0.233210   -2.730136
     49          6           0        6.291849    0.245807   -0.433632
     50          6           0        7.496016   -0.376906   -0.984530
     51          6           0        8.742218   -0.318505   -0.185900
     52          6           0       10.006246   -0.736677   -0.849788
     53          6           0       10.047730   -2.367070   -0.912899
     54          6           0       11.214781   -0.173511   -0.137193
     55          6           0       12.609033   -0.478459   -0.624537
     56          6           0       13.764890    0.111861    0.159299
     57          6           0       15.139721   -0.035298   -0.412685
     58          6           0       15.476092   -1.499284   -0.724000
     59          6           0       16.239972    0.620079    0.423537
     60          6           0       17.632430    0.700761   -0.125218
     61          6           0       18.613970    1.391542    0.829564
     62          6           0       20.124986    1.633320    0.278360
     63          6           0       20.308023    2.561659   -0.985125
     64          6           0       20.900307    2.119780    1.424401
     65          1           0       -3.804588    3.306552    1.541560
     66          1           0       -9.995287    4.118837   -0.431781
     67          1           0      -10.482275   -2.048506   -1.270381
     68          1           0       -2.646048   -1.449697    1.736095
     69          1           0       -2.026466    1.363190    1.528755
     70          1           0       -2.152597    0.141326    3.791881
     71          1           0       -3.299781    1.725707    3.946960
     72          1           0       -3.838589   -0.035447    3.826411
     73          1           0       -2.320855   -1.525946   -0.627674
     74          1           0       -2.506025    0.320066   -0.614156
     75          1           0       -0.275088    0.320215    0.748443
     76          1           0       -0.553889   -1.261098    1.214609
     77          1           0       -4.231231    5.714573    0.778221
     78          1           0       -5.351248    6.784956    1.650563
     79          1           0       -4.538465    5.443670    2.469115
     80          1           0       -7.695632    7.140904    1.076189
     81          1           0       -9.410202    5.990086   -1.053666
     82          1           0       -9.523151    7.681658   -0.338114
     83          1           0      -12.447854    3.508286   -0.136076
     84          1           0      -11.827795    3.635589   -1.832108
     85          1           0      -13.175208    2.466867   -1.322037
     86          1           0      -12.704916   -1.050359   -1.156541
     87          1           0      -13.453459    0.255214   -1.224904
     88          1           0      -12.770032    0.665711   -3.758388
     89          1           0      -11.651342   -0.628844   -3.527518
     90          1           0      -13.473205   -0.868798   -3.471522
     91          1           0      -10.063340   -4.394770   -0.566856
     92          1           0       -9.380028   -4.470598   -2.149497
     93          1           0       -8.678879   -5.466588   -0.770045
     94          1           0       -3.579903   -3.619490    0.030364
     95          1           0       -2.061069   -6.138256    2.802962
     96          1           0       -2.201456   -4.935895    3.610040
     97          1           0       -3.609692   -6.285725    3.541780
     98          1           0        2.771393   -2.499493   -1.182986
     99          1           0        2.342976   -0.929972   -2.319304
    100          1           0        4.117612   -1.023486    0.394399
    101          1           0        5.176408    1.281974   -2.870037
    102          1           0        5.393308   -0.582641   -3.297097
    103          1           0        3.712816    0.029639   -3.166987
    104          1           0        6.372982    1.192124   -0.210437
    105          1           0        5.838320   -0.135655    0.503419
    106          1           0        7.325055   -1.437528   -1.192648
    107          1           0        7.828114    0.093668   -1.934475
    108          1           0        8.787648    0.765023    0.246251
    109          1           0        8.540923   -0.786817    0.731046
    110          1           0       10.123561   -0.280906   -1.985187
    111          1           0        9.243101   -2.626645   -1.588459
    112          1           0       10.963112   -2.414852   -1.702157
    113          1           0       10.001026   -2.748442    0.166919
    114          1           0       11.000041    1.036535   -0.153537
    115          1           0       11.024607   -0.520995    0.868811
    116          1           0       12.902959   -1.433501   -0.596659
    117          1           0       12.448556    0.008150   -1.513917
    118          1           0       13.441622    1.253766   -0.017108
    119          1           0       13.621751   -0.186836    1.269457
    120          1           0       15.144251    0.710712   -1.364860
    121          1           0       14.781341   -1.989715   -1.548880
    122          1           0       16.459087   -1.367413   -1.267530
    123          1           0       15.373100   -2.199167    0.199007
    124          1           0       15.867268    1.712575    0.848119
    125          1           0       16.209394    0.121748    1.171523
    126          1           0       18.161386   -0.282124   -0.322465
    127          1           0       17.655306    1.150340   -1.267387
    128          1           0       18.110576    2.545258    1.079245
    129          1           0       18.757328    0.735101    1.805148
    130          1           0       20.614142    0.526712   -0.047600
    131          1           0       20.068735    3.730186   -0.627412
    132          1           0       21.343583    2.423577   -1.378932
    133          1           0       19.710577    2.367636   -1.983582
    134          1           0       20.753432    1.596204    2.399342
    135          1           0       21.964305    2.264813    1.222852
    136          1           0       20.664309    3.091802    1.792401
    137          1           0       -7.397850    1.849340    0.306082
    138          1           0       -7.601964   -0.258553   -0.179339
 ---------------------------------------------------------------------

 SCF Done:  E(RB3LYP) =  -2733.00648854     A.U. after   16 cycles

 Excitation energies and oscillator strengths:

 Excited State   1:      Singlet-A      2.0680 eV  599.55 nm  f=0.1317  <S**2>=0.000
     235 -> 237       -0.31178
     235 -> 238        0.26850
     236 -> 237        0.53284
     236 -> 238        0.20767
 This state for optimization and/or second-order correction.
 Total Energy, E(TD-HF/TD-DFT) =  -2732.93049224
 Copying the excited state density for this state as the 1-particle RhoCI density.

 The electronic state is 1-A.
 Alpha  occ. eigenvalues --  -19.18014 -19.17029 -19.13856 -19.13462 -19.12570
 Alpha  occ. eigenvalues --  -14.37666 -14.35913 -14.31317 -14.30612 -10.32142
 Alpha  occ. eigenvalues --  -10.31908 -10.29118 -10.25517 -10.24611 -10.24483
 Alpha  occ. eigenvalues --  -10.23904 -10.22991 -10.22711 -10.22648 -10.22198
 Alpha  occ. eigenvalues --  -10.22165 -10.22054 -10.22001 -10.21586 -10.21169
 Alpha  occ. eigenvalues --  -10.21129 -10.20993 -10.20906 -10.20685 -10.20546
 Alpha  occ. eigenvalues --  -10.20514 -10.20496 -10.20411 -10.20376 -10.20372
 Alpha  occ. eigenvalues --  -10.20368 -10.20317 -10.19948 -10.19847 -10.19844
 Alpha  occ. eigenvalues --  -10.19843 -10.19830 -10.19659 -10.19622 -10.19539
 Alpha  occ. eigenvalues --  -10.19497 -10.19435 -10.19095 -10.19036 -10.18983
 Alpha  occ. eigenvalues --  -10.18929 -10.18785 -10.18649 -10.18407 -10.18383
 Alpha  occ. eigenvalues --  -10.18138 -10.18049 -10.17739 -10.17727 -10.17590
 Alpha  occ. eigenvalues --  -10.17357 -10.17083 -10.16960 -10.16034  -1.11012
 Alpha  occ. eigenvalues --   -1.08208  -1.03705  -1.01615  -1.00469  -0.99433
 Alpha  occ. eigenvalues --   -0.98847  -0.97235  -0.94966  -0.85473  -0.82991
 Alpha  occ. eigenvalues --   -0.82934  -0.82061  -0.81565  -0.81126  -0.80885
 Alpha  occ. eigenvalues --   -0.80571  -0.80258  -0.79266  -0.78695  -0.77709
 Alpha  occ. eigenvalues --   -0.77362  -0.76323  -0.75727  -0.74862  -0.74713
 Alpha  occ. eigenvalues --   -0.73902  -0.73586  -0.72402  -0.71587  -0.71384
 Alpha  occ. eigenvalues --   -0.70546  -0.69853  -0.68841  -0.68073  -0.67653
 Alpha  occ. eigenvalues --   -0.66926  -0.66814  -0.66502  -0.66417  -0.64643
 Alpha  occ. eigenvalues --   -0.64288  -0.63511  -0.62646  -0.62352  -0.62008
 Alpha  occ. eigenvalues --   -0.61078  -0.59021  -0.58757  -0.58632  -0.58006
 Alpha  occ. eigenvalues --   -0.57279  -0.57190  -0.56345  -0.55609  -0.55170
 Alpha  occ. eigenvalues --   -0.54761  -0.54313  -0.54103  -0.53989  -0.53381
 Alpha  occ. eigenvalues --   -0.53197  -0.52442  -0.51722  -0.50992  -0.50830
 Alpha  occ. eigenvalues --   -0.49724  -0.49520  -0.49211  -0.49153  -0.48387
 Alpha  occ. eigenvalues --   -0.48308  -0.48243  -0.47861  -0.47390  -0.46984
 Alpha  occ. eigenvalues --   -0.46874  -0.46805  -0.46327  -0.46146  -0.45684
 Alpha  occ. eigenvalues --   -0.45653  -0.45359  -0.45268  -0.45061  -0.44597
 Alpha  occ. eigenvalues --   -0.44541  -0.44152  -0.43883  -0.43785  -0.43715
 Alpha  occ. eigenvalues --   -0.43675  -0.43525  -0.43318  -0.43211  -0.43106
 Alpha  occ. eigenvalues --   -0.42888  -0.42437  -0.42282  -0.42044  -0.41822
 Alpha  occ. eigenvalues --   -0.41710  -0.41383  -0.41377  -0.41156  -0.41030
 Alpha  occ. eigenvalues --   -0.40520  -0.40333  -0.40260  -0.39818  -0.39648
 Alpha  occ. eigenvalues --   -0.39372  -0.39328  -0.39196  -0.39127  -0.38811
 Alpha  occ. eigenvalues --   -0.38616  -0.38514  -0.38163  -0.38103  -0.37923
 Alpha  occ. eigenvalues --   -0.37699  -0.37531  -0.37243  -0.37013  -0.36924
 Alpha  occ. eigenvalues --   -0.36894  -0.36806  -0.36399  -0.36177  -0.35942
 Alpha  occ. eigenvalues --   -0.35441  -0.35372  -0.35102  -0.34890  -0.34844
 Alpha  occ. eigenvalues --   -0.34505  -0.34435  -0.34038  -0.33845  -0.33807
 Alpha  occ. eigenvalues --   -0.33374  -0.32960  -0.32478  -0.31873  -0.31601
 Alpha  occ. eigenvalues --   -0.31493  -0.31096  -0.31046  -0.30542  -0.30521
 Alpha  occ. eigenvalues --   -0.30418  -0.30292  -0.29983  -0.29885  -0.29657
 Alpha  occ. eigenvalues --   -0.29535  -0.29130  -0.28708  -0.28563  -0.28397
 Alpha  occ. eigenvalues --   -0.28297  -0.27948  -0.26886  -0.25954  -0.25897
 Alpha  occ. eigenvalues --   -0.25265  -0.24830  -0.24570  -0.24040  -0.19903
 Alpha  occ. eigenvalues --   -0.19464
 Alpha virt. eigenvalues --   -0.10754  -0.08147  -0.04065  -0.02396  -0.00765
 Alpha virt. eigenvalues --   -0.00471   0.00185   0.02268   0.02899   0.03532
 Alpha virt. eigenvalues --    0.03753   0.04297   0.04502   0.04565   0.04948

 Mulliken charges:
               1
     1  C    0.061209
     2  C   -0.076826
     3  C    0.009437
     4  C   -0.040797
     5  N   -0.107637
     6  C   -0.109268
     7  C   -0.032058
     8  C   -0.137685
     9  C   -0.038498
    10  C    0.066348
    11  C    0.122934
    12  C    0.018156
    13  C    0.206148
    14  O   -0.206189
    15  O   -0.358345
    16  N   -0.044848
    17  C    0.139264
    18  C   -0.156129
    19  C    0.076514
    20  C    0.021074
    21  C    0.172473
    22  C   -0.050153
    23  C   -0.004018
    24  N   -0.163653
    25  C    0.031362
    26  C   -0.190178
    27  C   -0.078883
    28  C    0.032385
    29  C    0.146609
    30  C    0.129345
    31  C    0.013185
    32  N   -0.015034
    33  C    0.022559
    34  C   -0.097897
    35  C   -0.036929
    36  C    0.099669
    37  C    0.033248
    38  C    0.133654
    39  O   -0.140426
    40  C   -0.004689
    41  C    0.159349
    42  O   -0.205758
    43  O   -0.270543
    44  C    0.201409
    45  C    0.207258
    46  C   -0.087007
    47  C   -0.186894
    48  C    0.046413
    49  C    0.155874
    50  C    0.067483
    51  C    0.046114
    52  C   -0.147077
    53  C    0.015381
    54  C   -0.006545
    55  C    0.166870
    56  C   -0.043757
    57  C   -0.075854
    58  C   -0.026167
    59  C    0.161856
    60  C    0.006005
    61  C   -0.072017
    62  C   -0.104492
    63  C   -0.046437
    64  C    0.084045
    65  H   -0.000713
    66  H   -0.115727
    67  H   -0.053147
    68  H   -0.054543
    69  H    0.002555
    70  H    0.014743
    71  H    0.039251
    72  H    0.015652
    73  H    0.001206
    74  H    0.022721
    75  H    0.027641
    76  H    0.026322
    77  H    0.004709
    78  H    0.013304
    79  H    0.026796
    80  H   -0.026554
    81  H   -0.000320
    82  H    0.036282
    83  H    0.023328
    84  H    0.016124
    85  H    0.010553
    86  H   -0.028149
    87  H   -0.030400
    88  H   -0.003744
    89  H    0.013370
    90  H    0.010152
    91  H    0.022014
    92  H    0.038329
    93  H    0.041428
    94  H    0.037823
    95  H   -0.016595
    96  H   -0.001335
    97  H    0.043906
    98  H    0.037139
    99  H    0.054572
   100  H    0.003657
   101  H    0.034703
   102  H    0.039925
   103  H    0.007158
   104  H   -0.048232
   105  H   -0.029461
   106  H   -0.011813
   107  H   -0.010801
   108  H   -0.024441
   109  H   -0.039215
   110  H   -0.001391
   111  H    0.006768
   112  H    0.031898
   113  H    0.043442
   114  H    0.008100
   115  H   -0.030822
   116  H   -0.035797
   117  H   -0.035088
   118  H   -0.008004
   119  H    0.004372
   120  H   -0.000226
   121  H    0.030782
   122  H    0.024501
   123  H    0.032878
   124  H    0.003442
   125  H   -0.117901
   126  H    0.003933
   127  H    0.007672
   128  H    0.017521
   129  H    0.027003
   130  H    0.011483
   131  H    0.031780
   132  H    0.021675
   133  H    0.030194
   134  H   -0.001198
   135  H   -0.004219
   136  H   -0.023441
   137  H    0.169312
   138  H    0.090219
 Sum of Mulliken charges =  -0.00000

 Dipole moment (field-independent basis, Debye):
    X=              0.3255    Y=              3.3453    Z=              0.5623  Tot=              3.4078
 Quadrupole moment (field-independent basis, Debye-Ang):
   XX=           -334.0617   YY=           -381.8795   ZZ=           -397.4711
   XY=            -26.1637   XZ=             11.2538   YZ=             -2.1964

 Normal termination of Gaussian 16 at Thu Aug 15 21:15:02 2019.
