 Gaussian 16, Revision A.03,
 Gaussian 16:  ES64L-G16RevA.03 25-Dec-2016

 --------------------------
 # td=(NStates=1) B3LYP/SVP
 --------------------------

 --
 TD
 --
 Symbolic Z-matrix:
 Charge =  0 Multiplicity = 1

                         Standard orientation:
 ---------------------------------------------------------------------
 Center     Atomic      Atomic             Coordinates (Angstroms)
 Number     Number       Type             X           Y           Z
 ---------------------------------------------------------------------
      1          6           0       -5.176878   -1.865436    0.524115
      2          6           0       -4.748327    2.907517    1.239831
      3          6           0       -9.448118    3.181057   -0.135592
      4          6           0       -9.805125   -1.548311   -1.039134
      5          7           0       -5.251830    0.473576    0.842485
      6          6           0       -4.522981   -0.631722    0.831381
      7          6           0       -3.099089   -0.514386    1.326733
      8          6           0       -3.101219    0.971702    1.830351
      9          6           0       -4.388212    1.467199    1.208602
     10          6           0       -3.128883    1.096945    3.317814
     11          6           0       -2.154021   -0.599127    0.088353
     12          6           0       -0.713422   -0.649008    0.552158
     13          6           0        0.382756   -0.818701   -0.430248
     14          8           0        0.150923   -1.297202   -1.554787
     15          8           0        1.603900   -0.729935   -0.004952
     16          7           0       -7.136468    2.749165    0.338092
     17          6           0       -5.990638    3.454947    0.862766
     18          6           0       -6.328552    4.821984    0.921348
     19          6           0       -7.598973    4.962195    0.330218
     20          6           0       -8.145487    3.596426    0.019993
     21          6           0       -5.470922    5.884839    1.441734
     22          6           0       -8.307477    6.275226    0.207699
     23          6           0       -9.278109    6.528874   -0.616248
     24          7           0       -9.304540    0.802803   -0.401649
     25          6           0       -9.948278    2.029097   -0.463647
     26          6           0      -11.241717    1.863850   -0.937429
     27          6           0      -11.425078    0.501278   -1.239949
     28          6           0      -10.139317   -0.159980   -0.857968
     29          6           0      -12.411832    2.897714   -0.977862
     30          6           0      -12.540694   -0.402653   -1.728078
     31          6           0      -12.464250   -0.837434   -3.195336
     32          7           0       -7.516649   -1.319829   -0.183079
     33          6           0       -8.621627   -2.155974   -0.752295
     34          6           0       -8.128516   -3.490639   -0.663342
     35          6           0       -6.851621   -3.364203   -0.176726
     36          6           0       -6.468548   -2.008356    0.047562
     37          6           0       -8.929787   -4.747739   -0.994592
     38          6           0       -5.631586   -4.244772   -0.029098
     39          8           0       -5.489230   -5.430110   -0.115333
     40          6           0       -4.497674   -3.218860    0.515694
     41          6           0       -3.926230   -3.701752    1.853421
     42          8           0       -4.025412   -3.127278    2.914564
     43          8           0       -3.104692   -4.757958    1.648105
     44          6           0       -2.608767   -5.230549    2.886111
     45          6           0        2.634313   -1.039418   -1.025184
     46          6           0        4.003267   -0.710929   -0.474052
     47          6           0        5.037588   -0.094550   -1.183436
     48          6           0        5.015039    0.368356   -2.588003
     49          6           0        6.371427    0.212188   -0.514576
     50          6           0        7.621774   -0.595562   -0.934600
     51          6           0        8.886160   -0.378278   -0.142419
     52          6           0       10.250251   -0.857046   -0.776078
     53          6           0       10.127139   -2.445127   -0.851170
     54          6           0       11.378850   -0.416745    0.179462
     55          6           0       12.791429   -0.522957   -0.547886
     56          6           0       13.937980    0.200433    0.219303
     57          6           0       15.270616   -0.197203   -0.360797
     58          6           0       15.632946   -1.708238   -0.434870
     59          6           0       16.239810    0.761385    0.312973
     60          6           0       17.736873    0.515875   -0.103920
     61          6           0       18.606729    1.776048    0.513480
     62          6           0       20.169366    1.774396    0.096745
     63          6           0       20.266229    2.071049   -1.410326
     64          6           0       20.863333    2.678462    1.039788
     65          1           0       -3.950621    3.618665    1.476699
     66          1           0      -10.247571    4.081844   -0.188610
     67          1           0      -10.644070   -2.121157   -1.463639
     68          1           0       -2.698122   -1.292158    2.073794
     69          1           0       -2.223929    1.398420    1.356728
     70          1           0       -2.205526    0.691561    4.138091
     71          1           0       -3.115462    2.340233    3.549388
     72          1           0       -4.201636    0.511338    3.667524
     73          1           0       -2.407300   -1.694368   -0.539980
     74          1           0       -2.403445    0.133302   -0.697279
     75          1           0       -0.589578    0.179510    1.271591
     76          1           0       -0.598819   -1.503915    1.231695
     77          1           0       -4.674158    5.981003    0.878437
     78          1           0       -5.971950    6.968801    1.179533
     79          1           0       -5.088331    5.819288    2.420286
     80          1           0       -7.962181    7.105907    1.030856
     81          1           0       -9.674234    5.567746   -1.198742
     82          1           0       -9.746606    7.286330   -0.747968
     83          1           0      -12.489353    3.502280   -0.102621
     84          1           0      -12.094537    3.664932   -1.894210
     85          1           0      -13.486781    2.629641   -1.023574
     86          1           0      -12.553783   -1.312755   -1.057642
     87          1           0      -13.550618    0.049017   -1.465841
     88          1           0      -12.347649    0.008981   -3.996813
     89          1           0      -11.576272   -1.453810   -3.373301
     90          1           0      -13.190751   -1.440922   -3.572921
     91          1           0       -9.691119   -4.752320   -0.163186
     92          1           0       -9.471601   -4.659516   -1.916258
     93          1           0       -7.961645   -5.469924   -1.141775
     94          1           0       -3.727911   -3.097900   -0.285524
     95          1           0       -1.991774   -6.121938    2.596470
     96          1           0       -1.792685   -4.559449    3.419711
     97          1           0       -3.430770   -5.674251    3.519519
     98          1           0        2.476310   -2.181178   -1.140312
     99          1           0        2.295014   -0.757540   -1.997316
    100          1           0        4.054857   -1.086232    0.512048
    101          1           0        5.172543    1.504970   -2.598880
    102          1           0        5.753467   -0.347618   -3.137120
    103          1           0        4.041694    0.314641   -2.930811
    104          1           0        6.681018    1.251889   -0.559899
    105          1           0        6.342780    0.082462    0.580817
    106          1           0        7.361855   -1.697932   -0.784442
    107          1           0        7.623436   -0.202074   -2.062265
    108          1           0        8.852696    0.725965   -0.095138
    109          1           0        8.917985   -0.555217    0.966588
    110          1           0       10.285512   -0.442345   -1.777158
    111          1           0        9.091000   -2.706751   -1.237453
    112          1           0       11.020577   -2.797722   -1.667435
    113          1           0       10.147192   -2.791197    0.214045
    114          1           0       11.113055    0.617953    0.580136
    115          1           0       11.274045   -1.002196    1.112958
    116          1           0       12.982414   -1.677868   -0.462066
    117          1           0       12.727772   -0.166468   -1.604150
    118          1           0       13.897009    1.214726    0.430597
    119          1           0       13.854774   -0.169953    1.296307
    120          1           0       15.241066    0.068236   -1.352504
    121          1           0       14.907027   -2.482480   -0.651147
    122          1           0       16.636274   -1.957256   -0.895723
    123          1           0       15.869668   -2.127377    0.568664
    124          1           0       16.007140    1.897867    0.436462
    125          1           0       16.198864    0.476278    1.429055
    126          1           0       18.292658   -0.377936    0.163658
    127          1           0       17.857299    0.787036   -1.285974
    128          1           0       18.051869    2.685004    0.093119
    129          1           0       18.450510    1.797138    1.664219
    130          1           0       20.352340    0.698764    0.386386
    131          1           0       19.737399    3.000345   -1.506730
    132          1           0       21.342122    2.393935   -1.659820
    133          1           0       19.976279    1.202761   -1.839286
    134          1           0       21.032286    2.373162    2.100670
    135          1           0       21.802652    3.050772    0.456691
    136          1           0       20.327918    3.565482    1.003492
    137          1           0       -7.027066    1.763987    0.456310
    138          1           0       -7.771562   -0.390923   -0.155383
 ---------------------------------------------------------------------

 SCF Done:  E(RB3LYP) =  -2733.06129023     A.U. after   17 cycles

 Excitation energies and oscillator strengths:

 Excited State   1:      Singlet-A      2.0182 eV  614.34 nm  f=0.1175  <S**2>=0.000
     235 -> 237       -0.12203
     235 -> 238        0.29725
     236 -> 237        0.61536
     236 -> 238        0.12654
 This state for optimization and/or second-order correction.
 Total Energy, E(TD-HF/TD-DFT) =  -2732.98712374
 Copying the excited state density for this state as the 1-particle RhoCI density.

 The electronic state is 1-A.
 Alpha  occ. eigenvalues --  -19.18406 -19.18367 -19.13192 -19.12989 -19.10721
 Alpha  occ. eigenvalues --  -14.36509 -14.35771 -14.33183 -14.29056 -10.31905
 Alpha  occ. eigenvalues --  -10.31053 -10.28500 -10.25220 -10.25217 -10.23967
 Alpha  occ. eigenvalues --  -10.23920 -10.23467 -10.23418 -10.23351 -10.23176
 Alpha  occ. eigenvalues --  -10.23123 -10.21655 -10.21379 -10.21378 -10.21334
 Alpha  occ. eigenvalues --  -10.21167 -10.21050 -10.21010 -10.20998 -10.20879
 Alpha  occ. eigenvalues --  -10.20749 -10.20713 -10.20649 -10.20533 -10.20080
 Alpha  occ. eigenvalues --  -10.20011 -10.20008 -10.19994 -10.19905 -10.19870
 Alpha  occ. eigenvalues --  -10.19832 -10.19830 -10.19813 -10.19650 -10.19420
 Alpha  occ. eigenvalues --  -10.19402 -10.19362 -10.19201 -10.19081 -10.19076
 Alpha  occ. eigenvalues --  -10.18903 -10.18853 -10.18776 -10.18755 -10.18723
 Alpha  occ. eigenvalues --  -10.18532 -10.18510 -10.18234 -10.18120 -10.18041
 Alpha  occ. eigenvalues --  -10.17788 -10.17609 -10.17584 -10.17394  -1.10546
 Alpha  occ. eigenvalues --   -1.10341  -1.04157  -1.01179  -0.98821  -0.98234
 Alpha  occ. eigenvalues --   -0.96958  -0.95804  -0.92799  -0.84321  -0.82551
 Alpha  occ. eigenvalues --   -0.82088  -0.81923  -0.81689  -0.81505  -0.80793
 Alpha  occ. eigenvalues --   -0.80234  -0.79748  -0.79377  -0.78095  -0.77964
 Alpha  occ. eigenvalues --   -0.76884  -0.76370  -0.75660  -0.74650  -0.73951
 Alpha  occ. eigenvalues --   -0.73253  -0.73183  -0.72493  -0.71329  -0.70875
 Alpha  occ. eigenvalues --   -0.70415  -0.68701  -0.68580  -0.68450  -0.67927
 Alpha  occ. eigenvalues --   -0.67240  -0.67058  -0.66066  -0.65347  -0.64955
 Alpha  occ. eigenvalues --   -0.64478  -0.62749  -0.62454  -0.61757  -0.61504
 Alpha  occ. eigenvalues --   -0.60634  -0.58915  -0.58146  -0.57958  -0.57381
 Alpha  occ. eigenvalues --   -0.57090  -0.56615  -0.56007  -0.55620  -0.55453
 Alpha  occ. eigenvalues --   -0.55425  -0.54663  -0.54542  -0.54101  -0.53830
 Alpha  occ. eigenvalues --   -0.52900  -0.52454  -0.51537  -0.51227  -0.50952
 Alpha  occ. eigenvalues --   -0.49775  -0.49433  -0.49137  -0.48793  -0.48137
 Alpha  occ. eigenvalues --   -0.47834  -0.47693  -0.47305  -0.47043  -0.47013
 Alpha  occ. eigenvalues --   -0.46813  -0.46792  -0.46741  -0.46052  -0.45512
 Alpha  occ. eigenvalues --   -0.45486  -0.45307  -0.45270  -0.44761  -0.44531
 Alpha  occ. eigenvalues --   -0.44423  -0.44163  -0.44078  -0.43736  -0.43395
 Alpha  occ. eigenvalues --   -0.43208  -0.43102  -0.43044  -0.42723  -0.42591
 Alpha  occ. eigenvalues --   -0.42316  -0.42116  -0.41903  -0.41828  -0.41408
 Alpha  occ. eigenvalues --   -0.41234  -0.41066  -0.41041  -0.40830  -0.40549
 Alpha  occ. eigenvalues --   -0.40383  -0.39932  -0.39856  -0.39618  -0.39467
 Alpha  occ. eigenvalues --   -0.39221  -0.38906  -0.38734  -0.38692  -0.38280
 Alpha  occ. eigenvalues --   -0.38252  -0.38099  -0.37828  -0.37698  -0.37501
 Alpha  occ. eigenvalues --   -0.37471  -0.37065  -0.36857  -0.36793  -0.36619
 Alpha  occ. eigenvalues --   -0.36254  -0.36034  -0.35911  -0.35585  -0.35482
 Alpha  occ. eigenvalues --   -0.35203  -0.35099  -0.34919  -0.34840  -0.34789
 Alpha  occ. eigenvalues --   -0.34684  -0.34411  -0.34350  -0.34065  -0.33748
 Alpha  occ. eigenvalues --   -0.33522  -0.33408  -0.33179  -0.32978  -0.32739
 Alpha  occ. eigenvalues --   -0.32020  -0.31905  -0.31715  -0.31278  -0.31065
 Alpha  occ. eigenvalues --   -0.30863  -0.30679  -0.30476  -0.30072  -0.29674
 Alpha  occ. eigenvalues --   -0.29419  -0.29318  -0.28983  -0.28709  -0.28403
 Alpha  occ. eigenvalues --   -0.27251  -0.26976  -0.26700  -0.26108  -0.25384
 Alpha  occ. eigenvalues --   -0.24973  -0.24505  -0.23968  -0.21927  -0.20129
 Alpha  occ. eigenvalues --   -0.18579
 Alpha virt. eigenvalues --   -0.10023  -0.08226  -0.04114  -0.01505  -0.01457
 Alpha virt. eigenvalues --   -0.00543  -0.00028   0.00481   0.01676   0.03615
 Alpha virt. eigenvalues --    0.03937   0.04139   0.04480   0.04634   0.04781

 Mulliken charges:
               1
     1  C   -0.045831
     2  C   -0.064423
     3  C   -0.154515
     4  C   -0.060779
     5  N   -0.143527
     6  C   -0.025714
     7  C   -0.100464
     8  C    0.062516
     9  C   -0.035838
    10  C   -0.069816
    11  C   -0.058116
    12  C    0.089282
    13  C    0.181456
    14  O   -0.293985
    15  O   -0.280374
    16  N   -0.080090
    17  C    0.095289
    18  C   -0.133912
    19  C   -0.014019
    20  C    0.114453
    21  C    0.172556
    22  C   -0.072678
    23  C    0.072681
    24  N   -0.247456
    25  C    0.136325
    26  C   -0.113902
    27  C   -0.069376
    28  C   -0.007869
    29  C    0.040012
    30  C    0.037130
    31  C    0.042506
    32  N    0.018991
    33  C    0.107907
    34  C   -0.141300
    35  C   -0.090842
    36  C    0.120372
    37  C    0.080529
    38  C    0.090490
    39  O   -0.143822
    40  C   -0.068676
    41  C    0.229619
    42  O   -0.224304
    43  O   -0.275261
    44  C    0.137744
    45  C    0.217506
    46  C   -0.016614
    47  C   -0.146956
    48  C    0.119138
    49  C    0.062604
    50  C   -0.027104
    51  C   -0.001431
    52  C   -0.066411
    53  C   -0.022956
    54  C    0.025052
    55  C    0.022453
    56  C    0.056325
    57  C    0.036433
    58  C    0.015738
    59  C   -0.031565
    60  C   -0.009075
    61  C   -0.101801
    62  C   -0.127510
    63  C    0.102414
    64  C    0.093928
    65  H   -0.019256
    66  H    0.017392
    67  H   -0.016929
    68  H    0.041937
    69  H   -0.010650
    70  H    0.052947
    71  H    0.032166
    72  H    0.065572
    73  H    0.041316
    74  H    0.022888
    75  H    0.007028
    76  H    0.024735
    77  H   -0.027072
    78  H    0.018276
    79  H    0.014974
    80  H    0.037123
    81  H    0.043128
    82  H   -0.092082
    83  H    0.012505
    84  H    0.033957
    85  H    0.021579
    86  H    0.012346
    87  H   -0.001101
    88  H    0.021100
    89  H   -0.008529
    90  H   -0.016365
    91  H    0.052811
    92  H    0.017463
    93  H    0.084145
    94  H    0.067246
    95  H    0.019948
    96  H    0.046898
    97  H    0.046190
    98  H    0.024867
    99  H    0.020347
   100  H   -0.016972
   101  H    0.032102
   102  H    0.063934
   103  H   -0.026447
   104  H   -0.008511
   105  H   -0.021783
   106  H    0.015804
   107  H    0.018112
   108  H   -0.025362
   109  H   -0.005053
   110  H   -0.012575
   111  H    0.022689
   112  H    0.041415
   113  H    0.011807
   114  H   -0.009289
   115  H   -0.009386
   116  H    0.024649
   117  H    0.010256
   118  H   -0.033898
   119  H   -0.021999
   120  H   -0.033813
   121  H    0.011092
   122  H    0.017709
   123  H   -0.022833
   124  H    0.020643
   125  H   -0.011246
   126  H    0.016547
   127  H    0.013220
   128  H    0.000175
   129  H    0.005961
   130  H   -0.008621
   131  H    0.000255
   132  H    0.009059
   133  H    0.008290
   134  H    0.027206
   135  H   -0.010782
   136  H   -0.028947
   137  H    0.134828
   138  H    0.079736
 Sum of Mulliken charges =  -0.00000

 Dipole moment (field-independent basis, Debye):
    X=              2.5281    Y=              3.4557    Z=              0.9647  Tot=              4.3891
 Quadrupole moment (field-independent basis, Debye-Ang):
   XX=           -360.6131   YY=           -384.3108   ZZ=           -396.6439
   XY=            -10.4730   XZ=              8.1426   YZ=             -1.4183

 Normal termination of Gaussian 16 at Thu Aug 15 02:30:00 2019.
