 Gaussian 16, Revision A.03,
 Gaussian 16:  ES64L-G16RevA.03 25-Dec-2016

 --------------------------
 # td=(NStates=1) B3LYP/SVP
 --------------------------

 --
 TD
 --
 Symbolic Z-matrix:
 Charge =  0 Multiplicity = 1

                         Standard orientation:
 ---------------------------------------------------------------------
 Center     Atomic      Atomic             Coordinates (Angstroms)
 Number     Number       Type             X           Y           Z
 ---------------------------------------------------------------------
      1          6           0       -5.027968   -2.023206    0.388014
      2          6           0       -4.727120    2.584926    1.400833
      3          6           0       -9.180047    3.439964   -0.292597
      4          6           0       -9.770212   -1.327065   -0.893936
      5          7           0       -5.176669    0.329832    0.777685
      6          6           0       -4.477699   -0.832559    0.832660
      7          6           0       -3.021716   -0.574742    1.312096
      8          6           0       -3.020268    0.828736    1.845778
      9          6           0       -4.434292    1.294903    1.357542
     10          6           0       -3.133017    0.835219    3.328211
     11          6           0       -2.098005   -0.969593    0.077000
     12          6           0       -0.659637   -0.621914    0.494884
     13          6           0        0.398428   -1.061871   -0.534864
     14          8           0        0.145398   -1.501221   -1.666951
     15          8           0        1.669240   -0.777268   -0.141685
     16          7           0       -7.043311    2.763507    0.568393
     17          6           0       -5.886426    3.224574    1.061538
     18          6           0       -6.076070    4.729558    1.079036
     19          6           0       -7.339098    5.032898    0.530856
     20          6           0       -7.934567    3.678340    0.221621
     21          6           0       -5.129078    5.716547    1.615914
     22          6           0       -7.960150    6.317326    0.351604
     23          6           0       -8.811567    6.749844   -0.574086
     24          7           0       -9.151475    0.993046   -0.443925
     25          6           0       -9.840460    2.204794   -0.520761
     26          6           0      -11.223262    1.988670   -1.020064
     27          6           0      -11.378936    0.596082   -1.187979
     28          6           0      -10.039975    0.041906   -0.842459
     29          6           0      -12.158849    3.118869   -1.169725
     30          6           0      -12.596613   -0.133111   -1.587997
     31          6           0      -12.653315   -0.511500   -3.125621
     32          7           0       -7.421724   -1.238096   -0.238168
     33          6           0       -8.576555   -1.983364   -0.674834
     34          6           0       -8.162385   -3.321972   -0.734949
     35          6           0       -6.849144   -3.388331   -0.373770
     36          6           0       -6.394645   -2.065396   -0.043510
     37          6           0       -9.078564   -4.439028   -1.047115
     38          6           0       -5.775986   -4.312957   -0.113910
     39          8           0       -5.720928   -5.495467   -0.220679
     40          6           0       -4.500000   -3.440156    0.382147
     41          6           0       -3.880276   -3.836620    1.681967
     42          8           0       -4.053496   -3.378291    2.800125
     43          8           0       -3.236698   -4.986924    1.403673
     44          6           0       -2.683787   -5.625923    2.551287
     45          6           0        2.674518   -1.113354   -0.996575
     46          6           0        4.050920   -0.798982   -0.423943
     47          6           0        4.930618    0.135555   -0.901438
     48          6           0        4.695416    0.791069   -2.176946
     49          6           0        6.275221    0.244348   -0.097297
     50          6           0        7.536084   -0.176324   -0.926056
     51          6           0        8.847227    0.063871   -0.162934
     52          6           0        9.997248   -0.666990   -0.755753
     53          6           0        9.829867   -2.249849   -0.544159
     54          6           0       11.240921   -0.088573    0.072444
     55          6           0       12.660026   -0.646794   -0.566249
     56          6           0       13.821901   -0.201897    0.283461
     57          6           0       15.102084   -0.318819   -0.433450
     58          6           0       15.580059   -1.682496   -0.776789
     59          6           0       16.283937    0.391106    0.391825
     60          6           0       17.621735    0.499157   -0.274172
     61          6           0       18.551697    1.574368    0.477792
     62          6           0       19.992970    1.722911    0.065479
     63          6           0       20.113258    2.405026   -1.252006
     64          6           0       20.815568    2.499745    1.045059
     65          1           0       -3.969649    3.239828    1.649545
     66          1           0       -9.807042    4.257662   -0.260697
     67          1           0      -10.524885   -2.017672   -1.343396
     68          1           0       -2.812263   -1.283889    2.160904
     69          1           0       -2.373632    1.566241    1.424086
     70          1           0       -2.306181    0.129724    3.877615
     71          1           0       -3.060946    1.837792    3.559900
     72          1           0       -3.764720    0.112279    3.719687
     73          1           0       -2.207519   -2.095790   -0.241333
     74          1           0       -2.569433   -0.296964   -0.756386
     75          1           0       -0.453003    0.214725    0.865650
     76          1           0       -0.364445   -1.332846    1.243785
     77          1           0       -4.385555    6.248839    0.760528
     78          1           0       -5.653930    6.709298    1.904261
     79          1           0       -4.488053    5.175690    2.480540
     80          1           0       -7.967082    7.080664    1.165042
     81          1           0       -9.222511    6.188140   -1.614595
     82          1           0       -9.336692    7.722809   -0.531160
     83          1           0      -12.317236    3.307325   -0.045844
     84          1           0      -11.939448    3.993617   -1.876794
     85          1           0      -13.247742    2.692487   -1.622664
     86          1           0      -12.596783   -1.263180   -1.212638
     87          1           0      -13.384663    0.390821   -1.275759
     88          1           0      -12.613391    0.469319   -3.832867
     89          1           0      -11.969819   -0.993516   -3.360646
     90          1           0      -13.456962   -1.089081   -3.130831
     91          1           0       -9.790643   -4.596780   -0.107700
     92          1           0       -9.733666   -4.276652   -2.018709
     93          1           0       -8.522830   -5.407203   -1.166876
     94          1           0       -3.673993   -3.600179   -0.286525
     95          1           0       -2.103267   -6.501224    2.168362
     96          1           0       -2.181266   -4.818442    3.007056
     97          1           0       -3.469021   -6.092366    3.196028
     98          1           0        2.505126   -2.158224   -1.382662
     99          1           0        2.417867   -0.687220   -2.003365
    100          1           0        4.151703   -1.171862    0.572592
    101          1           0        4.839270    1.900956   -2.307191
    102          1           0        5.443129    0.340723   -2.996430
    103          1           0        3.563993    0.855113   -2.426753
    104          1           0        6.492396    1.192738   -0.018737
    105          1           0        6.000972    0.052777    0.874480
    106          1           0        7.416381   -1.271580   -1.149557
    107          1           0        7.615465    0.191631   -1.931757
    108          1           0        8.951006    1.186239   -0.158922
    109          1           0        8.653278   -0.227406    0.949115
    110          1           0       10.163095   -0.523202   -1.957209
    111          1           0        8.915949   -2.521129   -1.043257
    112          1           0       10.716609   -2.886259   -0.751804
    113          1           0        9.462378   -2.634013    0.570450
    114          1           0       11.377471    1.094474   -0.061276
    115          1           0       11.054994   -0.194097    1.187145
    116          1           0       12.558034   -1.815727   -0.719480
    117          1           0       12.788226   -0.248694   -1.653876
    118          1           0       13.772706    0.809589    0.250982
    119          1           0       13.621129   -0.687999    1.238628
    120          1           0       14.957773    0.136891   -1.368922
    121          1           0       14.650846   -2.093767   -1.219765
    122          1           0       16.390607   -1.576504   -1.683907
    123          1           0       15.665074   -2.255814    0.193168
    124          1           0       15.883094    1.381020    0.837285
    125          1           0       16.506923   -0.293578    1.289941
    126          1           0       18.331161   -0.421611   -0.383175
    127          1           0       17.383562    0.780643   -1.171226
    128          1           0       18.129449    2.616101    0.377647
    129          1           0       18.362994    1.191036    1.657542
    130          1           0       20.199195    0.784155   -0.208645
    131          1           0       19.513557    3.144532   -1.371860
    132          1           0       21.224573    2.560143   -1.600868
    133          1           0       19.885518    1.584511   -2.105867
    134          1           0       20.795146    1.867341    1.974729
    135          1           0       21.798455    2.762282    0.443163
    136          1           0       20.548569    3.552404    1.376663
    137          1           0       -6.948603    1.709405    0.442575
    138          1           0       -7.606769   -0.303715   -0.039564
 ---------------------------------------------------------------------

 SCF Done:  E(RB3LYP) =  -2732.97374707     A.U. after   17 cycles

 Excitation energies and oscillator strengths:

 Excited State   1:      Singlet-A      2.1296 eV  582.20 nm  f=0.1735  <S**2>=0.000
     235 -> 238        0.30965
     236 -> 237        0.62739
 This state for optimization and/or second-order correction.
 Total Energy, E(TD-HF/TD-DFT) =  -2732.89548583
 Copying the excited state density for this state as the 1-particle RhoCI density.

 The electronic state is 1-A.
 Alpha  occ. eigenvalues --  -19.17950 -19.17692 -19.12839 -19.12392 -19.12300
 Alpha  occ. eigenvalues --  -14.37753 -14.36331 -14.32172 -14.29886 -10.31756
 Alpha  occ. eigenvalues --  -10.31431 -10.27880 -10.24152 -10.24066 -10.24015
 Alpha  occ. eigenvalues --  -10.23811 -10.23623 -10.22800 -10.22607 -10.22502
 Alpha  occ. eigenvalues --  -10.22143 -10.21547 -10.21429 -10.21256 -10.21225
 Alpha  occ. eigenvalues --  -10.21225 -10.21216 -10.21183 -10.21103 -10.21063
 Alpha  occ. eigenvalues --  -10.20965 -10.20944 -10.20638 -10.20325 -10.20309
 Alpha  occ. eigenvalues --  -10.20288 -10.20145 -10.20136 -10.19896 -10.19840
 Alpha  occ. eigenvalues --  -10.19738 -10.19560 -10.19409 -10.19264 -10.19184
 Alpha  occ. eigenvalues --  -10.19182 -10.19053 -10.19032 -10.18884 -10.18718
 Alpha  occ. eigenvalues --  -10.18647 -10.18592 -10.18555 -10.18468 -10.18451
 Alpha  occ. eigenvalues --  -10.18242 -10.18055 -10.17601 -10.17564 -10.17513
 Alpha  occ. eigenvalues --  -10.17441 -10.17080 -10.16660 -10.16309  -1.10191
 Alpha  occ. eigenvalues --   -1.09817  -1.04096  -1.00636  -0.99833  -0.99824
 Alpha  occ. eigenvalues --   -0.98163  -0.94629  -0.92102  -0.84626  -0.82832
 Alpha  occ. eigenvalues --   -0.82306  -0.82259  -0.81939  -0.81660  -0.81580
 Alpha  occ. eigenvalues --   -0.80970  -0.80222  -0.79853  -0.79478  -0.78672
 Alpha  occ. eigenvalues --   -0.77063  -0.76365  -0.76310  -0.75517  -0.75008
 Alpha  occ. eigenvalues --   -0.74158  -0.73596  -0.72486  -0.71634  -0.70323
 Alpha  occ. eigenvalues --   -0.70075  -0.69170  -0.68609  -0.68050  -0.67346
 Alpha  occ. eigenvalues --   -0.67155  -0.66764  -0.66495  -0.65703  -0.65292
 Alpha  occ. eigenvalues --   -0.64293  -0.63418  -0.63154  -0.62760  -0.62339
 Alpha  occ. eigenvalues --   -0.61668  -0.59331  -0.59196  -0.58617  -0.57897
 Alpha  occ. eigenvalues --   -0.56959  -0.56593  -0.56234  -0.55864  -0.55379
 Alpha  occ. eigenvalues --   -0.54962  -0.54742  -0.54180  -0.54001  -0.53607
 Alpha  occ. eigenvalues --   -0.52817  -0.52158  -0.51551  -0.51295  -0.50997
 Alpha  occ. eigenvalues --   -0.50230  -0.49696  -0.49057  -0.48948  -0.48202
 Alpha  occ. eigenvalues --   -0.48102  -0.47750  -0.47622  -0.47588  -0.47408
 Alpha  occ. eigenvalues --   -0.47227  -0.46803  -0.46530  -0.46388  -0.46009
 Alpha  occ. eigenvalues --   -0.45749  -0.45404  -0.45193  -0.45036  -0.44952
 Alpha  occ. eigenvalues --   -0.44891  -0.44774  -0.44508  -0.44272  -0.44029
 Alpha  occ. eigenvalues --   -0.43864  -0.43534  -0.43504  -0.43349  -0.43274
 Alpha  occ. eigenvalues --   -0.42725  -0.42506  -0.42300  -0.42232  -0.41647
 Alpha  occ. eigenvalues --   -0.41570  -0.41189  -0.40788  -0.40617  -0.40521
 Alpha  occ. eigenvalues --   -0.40404  -0.39986  -0.39785  -0.39706  -0.39553
 Alpha  occ. eigenvalues --   -0.39302  -0.38992  -0.38859  -0.38727  -0.38499
 Alpha  occ. eigenvalues --   -0.38244  -0.38176  -0.38058  -0.37888  -0.37524
 Alpha  occ. eigenvalues --   -0.37264  -0.36882  -0.36787  -0.36566  -0.36518
 Alpha  occ. eigenvalues --   -0.36391  -0.36326  -0.35922  -0.35804  -0.35728
 Alpha  occ. eigenvalues --   -0.35591  -0.35546  -0.35216  -0.34938  -0.34581
 Alpha  occ. eigenvalues --   -0.34428  -0.34254  -0.34163  -0.33903  -0.33548
 Alpha  occ. eigenvalues --   -0.33249  -0.33242  -0.32940  -0.32566  -0.32327
 Alpha  occ. eigenvalues --   -0.32148  -0.32014  -0.31526  -0.31371  -0.31204
 Alpha  occ. eigenvalues --   -0.30703  -0.30658  -0.30567  -0.30542  -0.29951
 Alpha  occ. eigenvalues --   -0.29142  -0.28734  -0.28463  -0.28039  -0.27823
 Alpha  occ. eigenvalues --   -0.27670  -0.26863  -0.26848  -0.26549  -0.26437
 Alpha  occ. eigenvalues --   -0.25128  -0.24294  -0.24129  -0.21889  -0.19894
 Alpha  occ. eigenvalues --   -0.19030
 Alpha virt. eigenvalues --   -0.10047  -0.07624  -0.03763  -0.01949  -0.00683
 Alpha virt. eigenvalues --   -0.00450   0.00096   0.00766   0.02255   0.03572
 Alpha virt. eigenvalues --    0.03709   0.03880   0.04138   0.04185   0.04766

 Mulliken charges:
               1
     1  C    0.011389
     2  C   -0.035583
     3  C   -0.039724
     4  C   -0.079686
     5  N   -0.186190
     6  C   -0.076485
     7  C   -0.031924
     8  C   -0.004697
     9  C   -0.009903
    10  C    0.141018
    11  C    0.004132
    12  C    0.195859
    13  C    0.158023
    14  O   -0.260026
    15  O   -0.277635
    16  N    0.006436
    17  C    0.054384
    18  C   -0.106330
    19  C    0.098766
    20  C    0.089609
    21  C   -0.025341
    22  C   -0.070656
    23  C   -0.120042
    24  N   -0.260252
    25  C    0.025980
    26  C   -0.102927
    27  C   -0.068590
    28  C    0.089930
    29  C   -0.016184
    30  C    0.043400
    31  C    0.195179
    32  N   -0.010739
    33  C    0.035659
    34  C   -0.116757
    35  C    0.018934
    36  C    0.071253
    37  C    0.014834
    38  C    0.062407
    39  O   -0.127631
    40  C   -0.020730
    41  C    0.178217
    42  O   -0.238182
    43  O   -0.298922
    44  C    0.191827
    45  C    0.211913
    46  C   -0.032730
    47  C   -0.159989
    48  C   -0.005626
    49  C    0.242442
    50  C    0.013715
    51  C    0.014730
    52  C   -0.093058
    53  C   -0.008512
    54  C   -0.016176
    55  C   -0.084070
    56  C    0.170798
    57  C   -0.089844
    58  C    0.034848
    59  C   -0.017288
    60  C    0.105445
    61  C   -0.093701
    62  C    0.043418
    63  C    0.018677
    64  C    0.024276
    65  H   -0.066572
    66  H   -0.044973
    67  H   -0.017499
    68  H    0.002417
    69  H   -0.010583
    70  H   -0.004783
    71  H   -0.003998
    72  H    0.001880
    73  H    0.043433
    74  H    0.037782
    75  H   -0.053364
    76  H    0.003636
    77  H    0.046922
    78  H    0.032173
    79  H    0.054933
    80  H    0.026607
    81  H    0.049083
    82  H    0.028224
    83  H    0.055006
    84  H    0.054398
    85  H    0.023819
    86  H    0.005354
    87  H   -0.028191
    88  H    0.021332
    89  H   -0.112211
    90  H   -0.025832
    91  H    0.051250
    92  H    0.045907
    93  H    0.041957
    94  H    0.038480
    95  H    0.036783
    96  H    0.022022
    97  H    0.035558
    98  H    0.002761
    99  H   -0.009181
   100  H   -0.018167
   101  H    0.012992
   102  H    0.050021
   103  H    0.034183
   104  H   -0.070442
   105  H   -0.033377
   106  H   -0.007736
   107  H   -0.010505
   108  H    0.002957
   109  H    0.013900
   110  H    0.023396
   111  H    0.006350
   112  H    0.030359
   113  H    0.007134
   114  H    0.009178
   115  H    0.012258
   116  H    0.023571
   117  H    0.001962
   118  H   -0.044064
   119  H   -0.001629
   120  H   -0.038230
   121  H   -0.017720
   122  H    0.039726
   123  H    0.008866
   124  H    0.006330
   125  H   -0.005179
   126  H    0.015928
   127  H   -0.059866
   128  H   -0.005601
   129  H    0.010347
   130  H   -0.058982
   131  H   -0.037713
   132  H    0.018618
   133  H   -0.004341
   134  H    0.017158
   135  H    0.012988
   136  H    0.014751
   137  H    0.179188
   138  H    0.095496
 Sum of Mulliken charges =  -0.00000

 Dipole moment (field-independent basis, Debye):
    X=              0.9191    Y=              4.4193    Z=              1.0509  Tot=              4.6346
 Quadrupole moment (field-independent basis, Debye-Ang):
   XX=           -370.2456   YY=           -379.3156   ZZ=           -397.6652
   XY=            -18.0972   XZ=             -1.4235   YZ=             -4.0467

 Normal termination of Gaussian 16 at Sun Aug 18 14:33:36 2019.
