 Gaussian 16, Revision A.03,
 Gaussian 16:  ES64L-G16RevA.03 25-Dec-2016

 --------------------------
 # td=(NStates=1) B3LYP/SVP
 --------------------------

 --
 TD
 --
 Symbolic Z-matrix:
 Charge =  0 Multiplicity = 1

                         Standard orientation:
 ---------------------------------------------------------------------
 Center     Atomic      Atomic             Coordinates (Angstroms)
 Number     Number       Type             X           Y           Z
 ---------------------------------------------------------------------
      1          6           0       -5.047882   -1.827672    0.548479
      2          6           0       -4.939956    2.834621    1.467102
      3          6           0       -9.451813    3.216849   -0.444067
      4          6           0       -9.910735   -1.580658   -0.841370
      5          7           0       -5.247928    0.526218    0.946190
      6          6           0       -4.486211   -0.630138    0.799257
      7          6           0       -2.999922   -0.402339    1.203903
      8          6           0       -3.132098    1.023301    1.814905
      9          6           0       -4.509475    1.480386    1.358122
     10          6           0       -2.879623    1.023933    3.338569
     11          6           0       -1.990193   -0.552242    0.046134
     12          6           0       -0.616049   -0.428068    0.569603
     13          6           0        0.342927   -0.903708   -0.583187
     14          8           0        0.071351   -1.453500   -1.571658
     15          8           0        1.607234   -0.546472   -0.135515
     16          7           0       -7.144308    2.731778    0.489707
     17          6           0       -6.081646    3.417906    0.965810
     18          6           0       -6.458504    4.823623    1.064786
     19          6           0       -7.685464    4.902147    0.408767
     20          6           0       -8.213864    3.518697    0.104837
     21          6           0       -5.549115    5.957879    1.664157
     22          6           0       -8.398348    6.204360    0.255634
     23          6           0       -9.307688    6.547821   -0.746132
     24          7           0       -9.326910    0.812083   -0.495256
     25          6           0       -9.921136    1.955886   -0.698149
     26          6           0      -11.384459    1.688055   -1.197490
     27          6           0      -11.452210    0.344872   -1.268861
     28          6           0      -10.172175   -0.212276   -0.830461
     29          6           0      -12.324954    2.811174   -1.394488
     30          6           0      -12.646849   -0.433232   -1.741528
     31          6           0      -12.542651   -0.822860   -3.257243
     32          7           0       -7.512451   -1.327208   -0.049142
     33          6           0       -8.637739   -2.087790   -0.465553
     34          6           0       -8.094196   -3.431925   -0.451252
     35          6           0       -6.755925   -3.421791   -0.069283
     36          6           0       -6.414994   -2.066239    0.248879
     37          6           0       -8.869505   -4.610428   -0.818891
     38          6           0       -5.602057   -4.283427   -0.018426
     39          8           0       -5.236069   -5.424261   -0.156174
     40          6           0       -4.446811   -3.161070    0.438789
     41          6           0       -3.893572   -3.714589    1.757101
     42          8           0       -4.466040   -3.525789    2.892675
     43          8           0       -2.818240   -4.612989    1.524120
     44          6           0       -2.289758   -5.337028    2.625668
     45          6           0        2.672310   -1.066814   -1.058601
     46          6           0        4.105484   -0.703754   -0.439030
     47          6           0        5.065753    0.033981   -0.935388
     48          6           0        4.914162    0.974262   -2.195776
     49          6           0        6.359276    0.169886   -0.257164
     50          6           0        7.565483   -0.552332   -0.981511
     51          6           0        8.809696   -0.415130    0.020677
     52          6           0       10.030499   -0.878155   -0.830707
     53          6           0       10.086873   -2.396120   -0.886361
     54          6           0       11.359555   -0.451643    0.022135
     55          6           0       12.801416   -0.669858   -0.639891
     56          6           0       13.894894   -0.130493    0.159929
     57          6           0       15.291514   -0.270593   -0.453844
     58          6           0       15.777035   -1.675941   -0.733858
     59          6           0       16.262026    0.626998    0.416666
     60          6           0       17.678596    0.810260   -0.200285
     61          6           0       18.631864    1.673259    0.628761
     62          6           0       20.024021    1.764878    0.106009
     63          6           0       20.093345    2.299211   -1.305450
     64          6           0       20.981813    2.632569    0.998237
     65          1           0       -4.350568    3.442697    1.795371
     66          1           0      -10.011702    4.064350   -0.559013
     67          1           0      -10.492681   -2.363284   -1.230318
     68          1           0       -2.675323   -1.099297    2.065666
     69          1           0       -2.179704    1.530330    1.496146
     70          1           0       -1.785450    0.943429    3.682743
     71          1           0       -3.183525    1.927596    3.939683
     72          1           0       -3.482240    0.239867    3.893243
     73          1           0       -2.021515   -1.629880   -0.350364
     74          1           0       -2.186701    0.170688   -0.763454
     75          1           0       -0.139693    0.587846    0.775300
     76          1           0       -0.494061   -1.179181    1.489427
     77          1           0       -4.509672    5.977294    1.487327
     78          1           0       -5.959476    6.934024    1.715147
     79          1           0       -5.566720    5.848966    2.773272
     80          1           0       -8.143301    6.946527    1.140096
     81          1           0       -9.441097    5.852391   -1.673186
     82          1           0       -9.815596    7.588441   -0.787533
     83          1           0      -12.830342    3.266956   -0.636442
     84          1           0      -11.840653    3.868222   -1.868314
     85          1           0      -13.105276    2.390190   -2.242399
     86          1           0      -12.666322   -1.279851   -1.179702
     87          1           0      -13.676242    0.108746   -1.583944
     88          1           0      -12.403639   -0.141606   -4.061065
     89          1           0      -11.740241   -1.483301   -3.585191
     90          1           0      -13.576256   -1.070030   -3.540820
     91          1           0       -9.595003   -4.701966    0.105588
     92          1           0       -9.560900   -4.634336   -1.885315
     93          1           0       -8.378280   -5.600819   -1.061234
     94          1           0       -3.680828   -3.419161   -0.464570
     95          1           0       -1.362718   -5.951759    2.386825
     96          1           0       -1.924007   -4.496514    3.376232
     97          1           0       -2.958124   -5.949319    2.988182
     98          1           0        2.515680   -1.931717   -1.251767
     99          1           0        2.662141   -0.469038   -1.984167
    100          1           0        4.376484   -1.554246    0.380885
    101          1           0        5.243864    2.133251   -1.763600
    102          1           0        5.653052    0.569786   -2.806661
    103          1           0        3.931113    0.744924   -2.668323
    104          1           0        6.682541    1.316344   -0.106338
    105          1           0        6.282877   -0.217630    0.774704
    106          1           0        7.452636   -1.769834   -1.133435
    107          1           0        8.104414   -0.103278   -1.986799
    108          1           0        8.958550    0.607406    0.397176
    109          1           0        8.527330   -1.167181    0.812726
    110          1           0       10.002555   -0.518624   -1.865840
    111          1           0        9.241959   -2.690738   -1.471200
    112          1           0       11.111406   -2.825822   -1.496881
    113          1           0       10.259299   -2.835623    0.046832
    114          1           0       11.211774    0.634540    0.056549
    115          1           0       11.223248   -0.761906    1.071333
    116          1           0       12.933729   -1.599498   -1.152649
    117          1           0       12.479946   -0.186661   -1.526187
    118          1           0       13.487250    0.991410    0.402516
    119          1           0       13.840082   -0.743046    1.140629
    120          1           0       15.424690    0.113705   -1.428252
    121          1           0       15.041101   -2.140290   -1.360250
    122          1           0       16.610987   -1.791344   -1.377737
    123          1           0       15.810207   -2.284719    0.081212
    124          1           0       15.678074    1.683258    0.574611
    125          1           0       16.494571    0.327233    1.428989
    126          1           0       17.917288   -0.325952   -0.245857
    127          1           0       17.683416    1.197972   -1.281724
    128          1           0       18.098629    2.666503    0.754235
    129          1           0       18.648631    1.490710    1.601142
    130          1           0       20.599744    0.676222    0.037837
    131          1           0       19.507514    3.285376   -1.199723
    132          1           0       21.106966    2.485074   -1.611972
    133          1           0       19.824144    1.805902   -2.040077
    134          1           0       20.807845    2.254899    2.049220
    135          1           0       22.045944    2.653018    0.646868
    136          1           0       20.517395    3.721966    1.088808
    137          1           0       -7.306350    1.647900    0.300620
    138          1           0       -7.445372   -0.185518    0.075077
 ---------------------------------------------------------------------

 SCF Done:  E(RB3LYP) =  -2732.98288338     A.U. after   17 cycles

 Excitation energies and oscillator strengths:

 Excited State   1:      Singlet-A      2.1360 eV  580.46 nm  f=0.1992  <S**2>=0.000
     235 -> 237       -0.11248
     235 -> 238       -0.26410
     236 -> 237        0.63588
     236 -> 238       -0.10377
 This state for optimization and/or second-order correction.
 Total Energy, E(TD-HF/TD-DFT) =  -2732.90438769
 Copying the excited state density for this state as the 1-particle RhoCI density.

 The electronic state is 1-A.
 Alpha  occ. eigenvalues --  -19.16846 -19.16748 -19.13663 -19.12597 -19.11750
 Alpha  occ. eigenvalues --  -14.37826 -14.37712 -14.32535 -14.30513 -10.31643
 Alpha  occ. eigenvalues --  -10.31025 -10.28187 -10.24573 -10.24345 -10.23722
 Alpha  occ. eigenvalues --  -10.23594 -10.23544 -10.23323 -10.23251 -10.22605
 Alpha  occ. eigenvalues --  -10.22434 -10.22028 -10.21906 -10.21757 -10.21700
 Alpha  occ. eigenvalues --  -10.21575 -10.21533 -10.21463 -10.21281 -10.21052
 Alpha  occ. eigenvalues --  -10.20875 -10.20771 -10.20733 -10.20673 -10.20648
 Alpha  occ. eigenvalues --  -10.20614 -10.20502 -10.20450 -10.20207 -10.19949
 Alpha  occ. eigenvalues --  -10.19871 -10.19693 -10.19658 -10.19604 -10.19532
 Alpha  occ. eigenvalues --  -10.19514 -10.19457 -10.19271 -10.19009 -10.19006
 Alpha  occ. eigenvalues --  -10.19000 -10.18776 -10.18750 -10.18639 -10.18616
 Alpha  occ. eigenvalues --  -10.18462 -10.18276 -10.18228 -10.17923 -10.17689
 Alpha  occ. eigenvalues --  -10.17149 -10.17088 -10.16512 -10.15695  -1.09342
 Alpha  occ. eigenvalues --   -1.05243  -1.03025  -1.01201  -0.98321  -0.97279
 Alpha  occ. eigenvalues --   -0.96782  -0.95733  -0.94378  -0.84617  -0.82503
 Alpha  occ. eigenvalues --   -0.81891  -0.81697  -0.81397  -0.80944  -0.80850
 Alpha  occ. eigenvalues --   -0.80225  -0.79971  -0.79877  -0.79066  -0.77027
 Alpha  occ. eigenvalues --   -0.76245  -0.75918  -0.75404  -0.74401  -0.74266
 Alpha  occ. eigenvalues --   -0.73481  -0.73196  -0.72699  -0.71744  -0.71071
 Alpha  occ. eigenvalues --   -0.69619  -0.69218  -0.68603  -0.68021  -0.67705
 Alpha  occ. eigenvalues --   -0.67460  -0.67199  -0.66271  -0.66105  -0.65163
 Alpha  occ. eigenvalues --   -0.64132  -0.63092  -0.62376  -0.62174  -0.61584
 Alpha  occ. eigenvalues --   -0.60993  -0.59438  -0.58512  -0.58039  -0.57250
 Alpha  occ. eigenvalues --   -0.56983  -0.56767  -0.56314  -0.55903  -0.55067
 Alpha  occ. eigenvalues --   -0.55004  -0.54914  -0.54314  -0.53258  -0.52959
 Alpha  occ. eigenvalues --   -0.52618  -0.51675  -0.51096  -0.50405  -0.50199
 Alpha  occ. eigenvalues --   -0.49858  -0.49182  -0.48801  -0.48345  -0.47836
 Alpha  occ. eigenvalues --   -0.47690  -0.47452  -0.47358  -0.47066  -0.46876
 Alpha  occ. eigenvalues --   -0.46585  -0.46232  -0.46031  -0.45849  -0.45625
 Alpha  occ. eigenvalues --   -0.45476  -0.45325  -0.44870  -0.44833  -0.44612
 Alpha  occ. eigenvalues --   -0.44552  -0.44208  -0.44006  -0.43947  -0.43868
 Alpha  occ. eigenvalues --   -0.43530  -0.43384  -0.43156  -0.42553  -0.42525
 Alpha  occ. eigenvalues --   -0.42389  -0.42216  -0.42042  -0.41689  -0.41360
 Alpha  occ. eigenvalues --   -0.41278  -0.41164  -0.40868  -0.40606  -0.40484
 Alpha  occ. eigenvalues --   -0.40375  -0.40146  -0.40084  -0.39953  -0.39437
 Alpha  occ. eigenvalues --   -0.39288  -0.39101  -0.39047  -0.38777  -0.38733
 Alpha  occ. eigenvalues --   -0.38296  -0.38010  -0.37913  -0.37764  -0.37591
 Alpha  occ. eigenvalues --   -0.37332  -0.37193  -0.36909  -0.36754  -0.36507
 Alpha  occ. eigenvalues --   -0.36484  -0.36383  -0.36031  -0.35847  -0.35751
 Alpha  occ. eigenvalues --   -0.35397  -0.35371  -0.35202  -0.35140  -0.34691
 Alpha  occ. eigenvalues --   -0.34186  -0.34071  -0.33992  -0.33710  -0.33458
 Alpha  occ. eigenvalues --   -0.33412  -0.33089  -0.32912  -0.32780  -0.32410
 Alpha  occ. eigenvalues --   -0.32325  -0.31867  -0.31687  -0.31499  -0.30944
 Alpha  occ. eigenvalues --   -0.30883  -0.30646  -0.30484  -0.30102  -0.29581
 Alpha  occ. eigenvalues --   -0.29417  -0.28900  -0.28771  -0.28362  -0.28015
 Alpha  occ. eigenvalues --   -0.27392  -0.27167  -0.26315  -0.26031  -0.25845
 Alpha  occ. eigenvalues --   -0.25676  -0.24344  -0.24225  -0.23258  -0.20427
 Alpha  occ. eigenvalues --   -0.19156
 Alpha virt. eigenvalues --   -0.10315  -0.07567  -0.04652  -0.02467  -0.01124
 Alpha virt. eigenvalues --   -0.00354   0.00471   0.00876   0.02182   0.03544
 Alpha virt. eigenvalues --    0.03773   0.04029   0.04406   0.04452   0.04662

 Mulliken charges:
               1
     1  C    0.124081
     2  C    0.081927
     3  C   -0.044274
     4  C   -0.067738
     5  N   -0.138446
     6  C   -0.061116
     7  C   -0.091468
     8  C   -0.011905
     9  C    0.022454
    10  C   -0.019363
    11  C    0.089791
    12  C   -0.057081
    13  C    0.165399
    14  O   -0.175299
    15  O   -0.367531
    16  N   -0.110698
    17  C    0.116070
    18  C   -0.117550
    19  C   -0.017432
    20  C    0.079350
    21  C    0.147708
    22  C   -0.072028
    23  C   -0.085929
    24  N   -0.198253
    25  C    0.077732
    26  C   -0.080685
    27  C   -0.114277
    28  C    0.142220
    29  C    0.018770
    30  C    0.122497
    31  C    0.010674
    32  N   -0.147154
    33  C    0.070852
    34  C   -0.085757
    35  C    0.006119
    36  C    0.060781
    37  C   -0.057312
    38  C    0.083084
    39  O   -0.142544
    40  C   -0.184716
    41  C    0.273267
    42  O   -0.293711
    43  O   -0.340822
    44  C    0.216092
    45  C    0.396096
    46  C   -0.135130
    47  C   -0.119540
    48  C    0.087828
    49  C    0.059340
    50  C   -0.117184
    51  C    0.029824
    52  C   -0.112358
    53  C    0.033855
    54  C   -0.004959
    55  C    0.075179
    56  C    0.039025
    57  C   -0.019775
    58  C    0.104542
    59  C   -0.008699
    60  C   -0.022525
    61  C    0.135104
    62  C   -0.143388
    63  C    0.144338
    64  C    0.003062
    65  H   -0.186246
    66  H   -0.079145
    67  H   -0.035902
    68  H    0.031987
    69  H   -0.002356
    70  H    0.025034
    71  H    0.007834
    72  H    0.031887
    73  H    0.040584
    74  H    0.007648
    75  H    0.050484
    76  H    0.054015
    77  H    0.025925
    78  H   -0.007492
    79  H    0.006297
    80  H    0.038022
    81  H    0.059518
    82  H    0.050183
    83  H    0.011924
    84  H    0.025930
    85  H    0.035548
    86  H   -0.025498
    87  H    0.016561
    88  H   -0.013253
    89  H    0.010301
    90  H    0.002810
    91  H    0.058720
    92  H    0.041819
    93  H    0.049512
    94  H    0.084908
    95  H    0.034207
    96  H    0.029241
    97  H   -0.004175
    98  H   -0.073830
    99  H   -0.006205
   100  H    0.014247
   101  H    0.055916
   102  H    0.005606
   103  H    0.016337
   104  H    0.019926
   105  H    0.005196
   106  H    0.040034
   107  H    0.031439
   108  H    0.007227
   109  H    0.012684
   110  H   -0.001597
   111  H    0.002232
   112  H    0.010159
   113  H    0.000192
   114  H   -0.016394
   115  H   -0.007825
   116  H   -0.028251
   117  H   -0.037781
   118  H    0.018736
   119  H    0.007777
   120  H   -0.031438
   121  H   -0.025725
   122  H    0.001838
   123  H   -0.021756
   124  H   -0.005262
   125  H   -0.012131
   126  H    0.004540
   127  H    0.010566
   128  H   -0.019008
   129  H   -0.070337
   130  H    0.001794
   131  H    0.000889
   132  H   -0.022963
   133  H   -0.064208
   134  H    0.008871
   135  H    0.031135
   136  H    0.006988
   137  H    0.191810
   138  H    0.211327
 Sum of Mulliken charges =  -0.00000

 Dipole moment (field-independent basis, Debye):
    X=              2.0132    Y=              5.0124    Z=             -0.5017  Tot=              5.4248
 Quadrupole moment (field-independent basis, Debye-Ang):
   XX=           -356.7296   YY=           -383.3072   ZZ=           -395.0840
   XY=            -35.6946   XZ=              8.0834   YZ=              7.1434

 Normal termination of Gaussian 16 at Thu Aug 29 19:15:26 2019.
