 Gaussian 16, Revision A.03,
 Gaussian 16:  ES64L-G16RevA.03 25-Dec-2016

 --------------------------
 # td=(NStates=1) B3LYP/SVP
 --------------------------

 --
 TD
 --
 Symbolic Z-matrix:
 Charge =  0 Multiplicity = 1

                         Standard orientation:
 ---------------------------------------------------------------------
 Center     Atomic      Atomic             Coordinates (Angstroms)
 Number     Number       Type             X           Y           Z
 ---------------------------------------------------------------------
      1          6           0       -5.225762   -1.998349    0.515182
      2          6           0       -4.671939    2.738684    1.422517
      3          6           0       -9.186642    3.481602   -0.286692
      4          6           0       -9.885334   -1.311102   -0.943376
      5          7           0       -5.152186    0.431620    0.784206
      6          6           0       -4.559449   -0.766329    0.826088
      7          6           0       -3.107464   -0.725578    1.321716
      8          6           0       -3.006204    0.800285    1.843166
      9          6           0       -4.320325    1.325904    1.346920
     10          6           0       -2.952172    0.736308    3.454878
     11          6           0       -2.137282   -0.881356    0.069154
     12          6           0       -0.710276   -0.833795    0.574020
     13          6           0        0.362322   -1.245832   -0.526097
     14          8           0        0.109982   -1.797234   -1.591373
     15          8           0        1.589646   -0.808684   -0.125382
     16          7           0       -6.923676    2.793870    0.422882
     17          6           0       -5.844698    3.384410    1.030087
     18          6           0       -6.142761    4.885306    1.128289
     19          6           0       -7.329508    5.049484    0.586408
     20          6           0       -7.934571    3.679573    0.221704
     21          6           0       -5.123095    5.754188    1.647022
     22          6           0       -8.046646    6.302740    0.449482
     23          6           0       -8.932376    6.635143   -0.604211
     24          7           0       -9.147763    0.886258   -0.401199
     25          6           0       -9.797568    2.119162   -0.545034
     26          6           0      -11.147514    2.051289   -1.037357
     27          6           0      -11.354437    0.751826   -1.302219
     28          6           0      -10.074799    0.065022   -0.887080
     29          6           0      -12.104994    3.158688   -1.013860
     30          6           0      -12.641659    0.023135   -1.749736
     31          6           0      -12.782550   -0.149457   -3.193444
     32          7           0       -7.662185   -1.199975   -0.270564
     33          6           0       -8.635858   -1.918051   -0.680239
     34          6           0       -8.387704   -3.289395   -0.708451
     35          6           0       -6.990591   -3.395012   -0.223134
     36          6           0       -6.606057   -2.097389    0.129800
     37          6           0       -9.235199   -4.455090   -1.094725
     38          6           0       -5.878778   -4.269879    0.036143
     39          8           0       -5.808512   -5.495985   -0.161137
     40          6           0       -4.735156   -3.463480    0.429761
     41          6           0       -4.032462   -3.971538    1.717747
     42          8           0       -4.226357   -3.516159    2.838312
     43          8           0       -3.147528   -4.935973    1.417172
     44          6           0       -2.745806   -5.626567    2.695163
     45          6           0        2.580265   -0.960881   -1.309047
     46          6           0        3.919548   -0.689604   -0.675899
     47          6           0        5.068588    0.071162   -1.086624
     48          6           0        4.974922    0.787106   -2.360728
     49          6           0        6.289389    0.103326   -0.226161
     50          6           0        7.468477   -0.574166   -1.061005
     51          6           0        8.754170   -0.261519   -0.251334
     52          6           0       10.142381   -0.930857   -0.734276
     53          6           0       10.128419   -2.449075   -1.013886
     54          6           0       11.350501   -0.530543    0.135642
     55          6           0       12.742667   -0.736955   -0.563130
     56          6           0       13.942517   -0.092589    0.244265
     57          6           0       15.301939   -0.183657   -0.402887
     58          6           0       15.717332   -1.640546   -0.320060
     59          6           0       16.279113    0.749170    0.347096
     60          6           0       17.711747    0.717171   -0.193320
     61          6           0       18.611464    1.798211    0.693483
     62          6           0       20.098409    1.789124    0.140166
     63          6           0       20.151343    2.107324   -1.369886
     64          6           0       20.923972    2.871742    1.018334
     65          1           0       -3.895355    3.347151    2.063183
     66          1           0       -9.762740    4.345076   -0.252269
     67          1           0      -10.508576   -2.005810   -1.316909
     68          1           0       -2.957083   -1.640996    2.018488
     69          1           0       -2.143385    1.474227    1.403160
     70          1           0       -1.862938    0.339863    3.593992
     71          1           0       -2.897495    1.616537    3.933068
     72          1           0       -3.911001    0.265069    3.973968
     73          1           0       -2.399588   -1.870508   -0.529556
     74          1           0       -2.149755   -0.188190   -0.792689
     75          1           0       -0.425420    0.155321    1.050450
     76          1           0       -0.319194   -1.501237    1.344877
     77          1           0       -4.024855    5.742408    1.373395
     78          1           0       -5.389538    6.856428    1.299996
     79          1           0       -4.985317    5.818173    2.709412
     80          1           0       -7.892679    6.953584    1.602885
     81          1           0       -9.133292    6.002519   -1.691228
     82          1           0       -9.554420    7.496437   -0.490826
     83          1           0      -11.963354    3.552206   -0.066476
     84          1           0      -11.919238    3.889844   -2.034008
     85          1           0      -13.133385    2.771682   -1.154568
     86          1           0      -12.684350   -0.861964   -1.253698
     87          1           0      -13.431735    0.521775   -1.260336
     88          1           0      -12.662873    0.813390   -3.619448
     89          1           0      -12.065827   -0.826625   -3.675221
     90          1           0      -13.836463   -0.628597   -3.434002
     91          1           0      -10.104569   -4.475060   -0.437296
     92          1           0       -9.419144   -4.301814   -2.054383
     93          1           0       -8.635246   -5.397497   -1.130933
     94          1           0       -3.816768   -3.883851   -0.346169
     95          1           0       -2.114067   -6.487240    2.275942
     96          1           0       -2.100517   -4.940746    3.429869
     97          1           0       -3.600078   -5.862822    3.320831
     98          1           0        2.522262   -2.095454   -1.822537
     99          1           0        2.591335   -0.069971   -2.012245
    100          1           0        4.199387   -1.236119    0.223566
    101          1           0        5.737819    1.696546   -2.355529
    102          1           0        5.124413   -0.001558   -3.165051
    103          1           0        3.728943    1.189415   -2.449410
    104          1           0        6.609602    1.204075    0.005940
    105          1           0        6.092098   -0.147808    0.671123
    106          1           0        7.326310   -1.513947   -1.306987
    107          1           0        7.590024   -0.160156   -2.027955
    108          1           0        8.810415    0.812805   -0.111971
    109          1           0        8.565180   -0.703328    0.791854
    110          1           0       10.196531   -0.342892   -1.619931
    111          1           0        9.341050   -2.671183   -1.632714
    112          1           0       11.239467   -2.715839   -1.332064
    113          1           0        9.855646   -2.956411   -0.043107
    114          1           0       10.867351    0.621431    0.379766
    115          1           0       11.373264   -0.880670    1.208541
    116          1           0       12.811478   -1.798023   -0.680781
    117          1           0       12.776835   -0.279541   -1.618077
    118          1           0       13.663935    1.003245    0.380169
    119          1           0       14.059778   -0.413028    1.404912
    120          1           0       15.332151    0.109357   -1.602244
    121          1           0       14.877167   -2.362395   -0.947315
    122          1           0       16.707876   -1.909133   -0.772112
    123          1           0       15.681589   -2.116023    0.717367
    124          1           0       15.830708    1.813041    0.408010
    125          1           0       16.473957    0.348242    1.272963
    126          1           0       18.272467   -0.136418   -0.208017
    127          1           0       17.847881    1.173098   -1.187709
    128          1           0       18.225542    2.734918    0.388867
    129          1           0       18.454882    1.513536    1.580133
    130          1           0       20.533958    0.739459    0.325457
    131          1           0       19.477168    3.030599   -1.597904
    132          1           0       21.128485    2.191761   -1.967294
    133          1           0       19.373233    1.431231   -1.883039
    134          1           0       20.879213    2.915720    2.172080
    135          1           0       21.985182    2.691082    0.821543
    136          1           0       20.571098    3.758235    0.837654
    137          1           0       -7.054381    1.908974    0.170389
    138          1           0       -7.429329   -0.346710    0.000164
 ---------------------------------------------------------------------

 SCF Done:  E(RB3LYP) =  -2732.94587329     A.U. after   18 cycles

 Excitation energies and oscillator strengths:

 Excited State   1:      Singlet-A      2.0894 eV  593.38 nm  f=0.1476  <S**2>=0.000
     235 -> 238       -0.32597
     236 -> 237        0.62219
 This state for optimization and/or second-order correction.
 Total Energy, E(TD-HF/TD-DFT) =  -2732.86908776
 Copying the excited state density for this state as the 1-particle RhoCI density.

 The electronic state is 1-A.
 Alpha  occ. eigenvalues --  -19.18836 -19.18103 -19.12607 -19.12359 -19.09992
 Alpha  occ. eigenvalues --  -14.36975 -14.35597 -14.32462 -14.29981 -10.31820
 Alpha  occ. eigenvalues --  -10.31367 -10.26834 -10.26025 -10.25918 -10.24842
 Alpha  occ. eigenvalues --  -10.23910 -10.23691 -10.23547 -10.22849 -10.22525
 Alpha  occ. eigenvalues --  -10.22341 -10.22319 -10.22098 -10.22062 -10.22038
 Alpha  occ. eigenvalues --  -10.21968 -10.21275 -10.20976 -10.20809 -10.20777
 Alpha  occ. eigenvalues --  -10.20728 -10.20706 -10.20608 -10.20460 -10.20443
 Alpha  occ. eigenvalues --  -10.20420 -10.20322 -10.20292 -10.20031 -10.20017
 Alpha  occ. eigenvalues --  -10.19843 -10.19746 -10.19598 -10.19579 -10.19539
 Alpha  occ. eigenvalues --  -10.19442 -10.19216 -10.19212 -10.19030 -10.18868
 Alpha  occ. eigenvalues --  -10.18600 -10.18525 -10.18398 -10.18340 -10.18209
 Alpha  occ. eigenvalues --  -10.18092 -10.18045 -10.17983 -10.17843 -10.17568
 Alpha  occ. eigenvalues --  -10.17542 -10.17277 -10.17019 -10.16768  -1.09115
 Alpha  occ. eigenvalues --   -1.07342  -0.99990  -0.99912  -0.99130  -0.99115
 Alpha  occ. eigenvalues --   -0.98950  -0.94946  -0.93396  -0.85015  -0.83275
 Alpha  occ. eigenvalues --   -0.82506  -0.81649  -0.80610  -0.80383  -0.80148
 Alpha  occ. eigenvalues --   -0.79944  -0.79722  -0.78911  -0.78366  -0.76919
 Alpha  occ. eigenvalues --   -0.76460  -0.75824  -0.75025  -0.74459  -0.74127
 Alpha  occ. eigenvalues --   -0.73134  -0.72567  -0.72000  -0.71403  -0.71148
 Alpha  occ. eigenvalues --   -0.70360  -0.69108  -0.68401  -0.68254  -0.67862
 Alpha  occ. eigenvalues --   -0.67560  -0.66438  -0.66167  -0.65820  -0.64256
 Alpha  occ. eigenvalues --   -0.64024  -0.63439  -0.62607  -0.61813  -0.61197
 Alpha  occ. eigenvalues --   -0.60656  -0.60322  -0.59385  -0.58304  -0.58151
 Alpha  occ. eigenvalues --   -0.57527  -0.56850  -0.56725  -0.55707  -0.55443
 Alpha  occ. eigenvalues --   -0.55217  -0.54541  -0.54082  -0.53001  -0.52343
 Alpha  occ. eigenvalues --   -0.51774  -0.51397  -0.50648  -0.49996  -0.49137
 Alpha  occ. eigenvalues --   -0.48836  -0.48791  -0.48763  -0.48154  -0.47984
 Alpha  occ. eigenvalues --   -0.47481  -0.47080  -0.47006  -0.46963  -0.46441
 Alpha  occ. eigenvalues --   -0.46274  -0.45912  -0.45715  -0.45615  -0.45512
 Alpha  occ. eigenvalues --   -0.45220  -0.45007  -0.44635  -0.44534  -0.44487
 Alpha  occ. eigenvalues --   -0.43906  -0.43809  -0.43755  -0.43530  -0.43383
 Alpha  occ. eigenvalues --   -0.43248  -0.43096  -0.42991  -0.42805  -0.42318
 Alpha  occ. eigenvalues --   -0.42137  -0.42021  -0.41681  -0.41363  -0.41345
 Alpha  occ. eigenvalues --   -0.41070  -0.40919  -0.40841  -0.40732  -0.40599
 Alpha  occ. eigenvalues --   -0.40363  -0.39818  -0.39593  -0.39503  -0.39407
 Alpha  occ. eigenvalues --   -0.39387  -0.38980  -0.38935  -0.38716  -0.38530
 Alpha  occ. eigenvalues --   -0.38259  -0.38166  -0.38121  -0.37902  -0.37719
 Alpha  occ. eigenvalues --   -0.37370  -0.37139  -0.37122  -0.36793  -0.36592
 Alpha  occ. eigenvalues --   -0.36278  -0.35984  -0.35956  -0.35763  -0.35707
 Alpha  occ. eigenvalues --   -0.35463  -0.35081  -0.34723  -0.34631  -0.34471
 Alpha  occ. eigenvalues --   -0.34360  -0.34190  -0.33930  -0.33874  -0.33599
 Alpha  occ. eigenvalues --   -0.33587  -0.33506  -0.33360  -0.33185  -0.32597
 Alpha  occ. eigenvalues --   -0.32375  -0.32181  -0.31613  -0.31532  -0.31495
 Alpha  occ. eigenvalues --   -0.30936  -0.30868  -0.30772  -0.30547  -0.30243
 Alpha  occ. eigenvalues --   -0.29282  -0.28866  -0.28360  -0.27925  -0.27304
 Alpha  occ. eigenvalues --   -0.27194  -0.27119  -0.27005  -0.25855  -0.24942
 Alpha  occ. eigenvalues --   -0.24580  -0.23926  -0.23241  -0.22758  -0.19597
 Alpha  occ. eigenvalues --   -0.18265
 Alpha virt. eigenvalues --   -0.09399  -0.07654  -0.04695  -0.03189  -0.01858
 Alpha virt. eigenvalues --   -0.00765   0.00135   0.00629   0.02040   0.02775
 Alpha virt. eigenvalues --    0.03013   0.03832   0.04009   0.04254   0.04425

 Mulliken charges:
               1
     1  C    0.050698
     2  C   -0.087713
     3  C   -0.073345
     4  C   -0.052695
     5  N   -0.143687
     6  C   -0.056448
     7  C   -0.063688
     8  C   -0.079275
     9  C   -0.016597
    10  C    0.061178
    11  C    0.025223
    12  C    0.024292
    13  C    0.185051
    14  O   -0.247738
    15  O   -0.338042
    16  N    0.038573
    17  C    0.097414
    18  C   -0.028594
    19  C   -0.004148
    20  C    0.084059
    21  C    0.023805
    22  C   -0.118903
    23  C   -0.077621
    24  N   -0.233258
    25  C    0.056876
    26  C   -0.164362
    27  C   -0.124032
    28  C    0.101767
    29  C    0.101801
    30  C    0.175164
    31  C    0.034856
    32  N    0.083369
    33  C    0.035311
    34  C   -0.202269
    35  C    0.007598
    36  C   -0.005454
    37  C    0.203036
    38  C    0.042195
    39  O   -0.216904
    40  C   -0.079927
    41  C    0.202046
    42  O   -0.246103
    43  O   -0.299148
    44  C    0.142920
    45  C    0.257552
    46  C   -0.122808
    47  C   -0.193444
    48  C   -0.037842
    49  C    0.175815
    50  C    0.097233
    51  C   -0.028997
    52  C   -0.035340
    53  C    0.060838
    54  C   -0.056023
    55  C    0.062463
    56  C   -0.003881
    57  C   -0.077850
    58  C   -0.047278
    59  C    0.101089
    60  C   -0.014910
    61  C    0.093108
    62  C   -0.111227
    63  C   -0.024516
    64  C    0.077891
    65  H    0.001398
    66  H   -0.041596
    67  H   -0.086907
    68  H    0.057744
    69  H    0.041570
    70  H    0.026677
    71  H   -0.027076
    72  H    0.059617
    73  H    0.038340
    74  H    0.015644
    75  H    0.026609
    76  H    0.016892
    77  H    0.034595
    78  H    0.025222
    79  H    0.018338
    80  H    0.066082
    81  H    0.089196
    82  H    0.029569
    83  H    0.022076
    84  H    0.039884
    85  H    0.008290
    86  H   -0.045472
    87  H   -0.027487
    88  H    0.000285
    89  H    0.010733
    90  H    0.016327
    91  H    0.032936
    92  H   -0.018189
    93  H    0.032914
    94  H    0.111285
    95  H    0.059645
    96  H    0.049998
    97  H    0.049241
    98  H    0.096847
    99  H    0.018457
   100  H   -0.022673
   101  H    0.041514
   102  H    0.057994
   103  H    0.058901
   104  H   -0.000308
   105  H   -0.074510
   106  H   -0.041718
   107  H   -0.021190
   108  H    0.000316
   109  H   -0.005314
   110  H   -0.022249
   111  H   -0.012466
   112  H    0.034635
   113  H    0.004956
   114  H   -0.006244
   115  H    0.004989
   116  H    0.006579
   117  H    0.010149
   118  H   -0.004061
   119  H    0.007874
   120  H    0.011724
   121  H    0.016542
   122  H    0.021669
   123  H    0.014333
   124  H    0.011643
   125  H   -0.033588
   126  H   -0.017620
   127  H   -0.010080
   128  H   -0.010465
   129  H   -0.060462
   130  H    0.008289
   131  H   -0.000210
   132  H    0.040750
   133  H    0.015967
   134  H    0.000258
   135  H    0.009280
   136  H   -0.037409
   137  H    0.074118
   138  H    0.089255
 Sum of Mulliken charges =  -0.00000

 Dipole moment (field-independent basis, Debye):
    X=              2.7503    Y=              5.3788    Z=              1.3282  Tot=              6.1854
 Quadrupole moment (field-independent basis, Debye-Ang):
   XX=           -353.9047   YY=           -387.5481   ZZ=           -390.8408
   XY=            -32.4663   XZ=              1.9428   YZ=             -0.9572

 Normal termination of Gaussian 16 at Sat Aug 10 04:58:31 2019.
