 Gaussian 16, Revision A.03,
 Gaussian 16:  ES64L-G16RevA.03 25-Dec-2016

 --------------------------
 # td=(NStates=1) B3LYP/SVP
 --------------------------

 --
 TD
 --
 Symbolic Z-matrix:
 Charge =  0 Multiplicity = 1

                         Standard orientation:
 ---------------------------------------------------------------------
 Center     Atomic      Atomic             Coordinates (Angstroms)
 Number     Number       Type             X           Y           Z
 ---------------------------------------------------------------------
      1          6           0       -4.965380   -1.897065    0.383077
      2          6           0       -4.898870    2.841918    1.383197
      3          6           0       -9.503693    3.234581   -0.226804
      4          6           0       -9.741045   -1.707760   -1.056974
      5          7           0       -5.109590    0.543254    0.666933
      6          6           0       -4.447082   -0.671038    0.722471
      7          6           0       -3.080159   -0.540504    1.237350
      8          6           0       -3.143912    0.990640    1.897143
      9          6           0       -4.476711    1.507460    1.306300
     10          6           0       -3.243100    0.994298    3.387183
     11          6           0       -1.932456   -0.641265    0.261680
     12          6           0       -0.472491   -0.433886    0.598490
     13          6           0        0.438359   -0.740407   -0.547660
     14          8           0        0.077252   -1.200328   -1.574236
     15          8           0        1.724441   -0.461660   -0.115340
     16          7           0       -7.136552    2.749024    0.494703
     17          6           0       -6.088490    3.389386    1.070413
     18          6           0       -6.488004    4.783611    0.993231
     19          6           0       -7.737538    4.848504    0.459804
     20          6           0       -8.179489    3.587130    0.166045
     21          6           0       -5.591116    5.866385    1.642112
     22          6           0       -8.457368    6.145227    0.263144
     23          6           0       -9.485992    6.429313   -0.538197
     24          7           0       -9.193255    0.682369   -0.405490
     25          6           0       -9.888545    1.775635   -0.487398
     26          6           0      -11.268047    1.563846   -0.935238
     27          6           0      -11.395903    0.246844   -1.243368
     28          6           0      -10.054341   -0.341710   -0.882575
     29          6           0      -12.425203    2.610891   -1.099320
     30          6           0      -12.574399   -0.598011   -1.690167
     31          6           0      -12.724796   -0.748076   -3.258026
     32          7           0       -7.430030   -1.344106   -0.303033
     33          6           0       -8.482570   -2.149895   -0.696002
     34          6           0       -8.069658   -3.517417   -0.577560
     35          6           0       -6.671339   -3.475328   -0.161254
     36          6           0       -6.325313   -2.119661   -0.041040
     37          6           0       -8.921512   -4.811917   -0.780652
     38          6           0       -5.551652   -4.322848    0.035207
     39          8           0       -5.358687   -5.527912    0.010545
     40          6           0       -4.376387   -3.340349    0.401372
     41          6           0       -3.793915   -3.702786    1.809709
     42          8           0       -4.178854   -3.198922    2.878401
     43          8           0       -3.009529   -4.776293    1.697354
     44          6           0       -2.366069   -5.261416    2.881110
     45          6           0        2.686784   -0.841419   -1.240272
     46          6           0        4.162717   -0.384691   -0.658702
     47          6           0        5.026411    0.412187   -1.172403
     48          6           0        4.806516    1.135551   -2.596123
     49          6           0        6.295629    0.591859   -0.497689
     50          6           0        7.503855   -0.083621   -1.207757
     51          6           0        8.705425    0.128466   -0.293970
     52          6           0        9.985502   -0.563697   -0.891437
     53          6           0       10.095224   -2.047262   -0.873875
     54          6           0       11.172375   -0.025765   -0.118343
     55          6           0       12.664885   -0.370800   -0.600881
     56          6           0       13.862733   -0.001571    0.198893
     57          6           0       15.256705   -0.139579   -0.409838
     58          6           0       15.343368   -1.765650   -0.681605
     59          6           0       16.339567    0.545004    0.497898
     60          6           0       17.629864    0.541443   -0.139973
     61          6           0       18.742044    1.209208    0.734167
     62          6           0       20.143540    1.302636    0.260212
     63          6           0       20.416261    1.722756   -1.159435
     64          6           0       21.128862    1.976752    1.219487
     65          1           0       -4.304391    3.646797    1.830742
     66          1           0      -10.031284    4.121055   -0.511518
     67          1           0      -10.506789   -2.273262   -1.443852
     68          1           0       -2.759638   -1.265943    2.077189
     69          1           0       -2.317401    1.619207    1.723815
     70          1           0       -2.149324    0.857876    4.031506
     71          1           0       -3.384494    1.933645    3.866473
     72          1           0       -3.886576    0.377403    3.909471
     73          1           0       -1.996955   -1.616967   -0.187630
     74          1           0       -2.148102    0.117306   -0.517380
     75          1           0       -0.221788    0.705843    0.794949
     76          1           0       -0.291990   -1.080750    1.452323
     77          1           0       -4.533921    5.702229    1.264017
     78          1           0       -6.024731    6.866512    1.024863
     79          1           0       -5.622254    5.821959    2.878227
     80          1           0       -8.022236    7.030730    0.896003
     81          1           0      -10.050489    5.836186   -1.307391
     82          1           0       -9.980656    7.485650   -0.440001
     83          1           0      -12.401665    3.137038   -0.053297
     84          1           0      -12.203672    3.134013   -2.013506
     85          1           0      -13.490154    1.930357   -1.105387
     86          1           0      -12.436486   -1.696962   -1.312822
     87          1           0      -13.368472   -0.262776   -1.219675
     88          1           0      -12.856300    0.241771   -3.831138
     89          1           0      -11.658011   -1.251828   -3.762559
     90          1           0      -13.583080   -1.419562   -3.447227
     91          1           0      -10.007671   -4.635022   -0.317425
     92          1           0       -9.079459   -4.872744   -2.037711
     93          1           0       -8.453049   -5.796918   -0.263932
     94          1           0       -3.516493   -3.603113   -0.466971
     95          1           0       -1.511572   -5.939810    2.531855
     96          1           0       -1.997319   -4.533104    3.587395
     97          1           0       -3.175770   -5.676701    3.395687
     98          1           0        2.585884   -1.823377   -1.312452
     99          1           0        2.352419   -0.330875   -2.179036
    100          1           0        4.445739   -0.750882    0.247698
    101          1           0        4.772357    2.245388   -2.553196
    102          1           0        5.428957    0.710433   -3.312345
    103          1           0        3.784019    1.002734   -3.005918
    104          1           0        6.628020    1.599005   -0.589611
    105          1           0        6.229948    0.462132    0.570794
    106          1           0        7.063507   -1.128350   -1.106039
    107          1           0        7.684733    0.085893   -2.291538
    108          1           0        8.928830    1.168966   -0.387135
    109          1           0        8.745113   -0.280370    0.643254
    110          1           0       10.209980   -0.015266   -1.813562
    111          1           0        9.144968   -2.318911   -1.379251
    112          1           0       10.724802   -2.542425   -1.357456
    113          1           0        9.919569   -2.309680    0.317551
    114          1           0       11.143438    1.122802   -0.032074
    115          1           0       11.302380   -0.325974    0.864327
    116          1           0       12.428976   -1.526496   -0.763092
    117          1           0       12.500051   -0.021705   -1.624229
    118          1           0       13.757340    1.147967    0.124586
    119          1           0       13.909776   -0.270154    1.336399
    120          1           0       15.465902    0.364560   -1.408646
    121          1           0       14.696774   -2.249350   -1.444025
    122          1           0       16.567428   -1.886123   -0.663959
    123          1           0       14.994556   -2.134973    0.367954
    124          1           0       15.837885    1.654158    0.805291
    125          1           0       16.272318   -0.100129    1.586482
    126          1           0       17.935388   -0.480812   -0.255681
    127          1           0       17.552477    1.172079   -1.208010
    128          1           0       18.412591    2.376923    1.031229
    129          1           0       18.802900    0.769835    1.742387
    130          1           0       20.680295    0.365373    0.263696
    131          1           0       20.022968    2.810361   -1.270429
    132          1           0       21.453526    1.816427   -1.517568
    133          1           0       20.147841    1.090762   -2.035083
    134          1           0       20.883315    1.666266    2.294242
    135          1           0       22.243498    1.567913    0.821722
    136          1           0       21.193896    3.278303    1.119105
    137          1           0       -6.867485    1.716505    0.025171
    138          1           0       -7.470165   -0.248742   -0.293165
 ---------------------------------------------------------------------

 SCF Done:  E(RB3LYP) =  -2732.96756253     A.U. after   17 cycles

 Excitation energies and oscillator strengths:

 Excited State   1:      Singlet-A      2.1285 eV  582.51 nm  f=0.1636  <S**2>=0.000
     235 -> 238        0.29962
     236 -> 237        0.63444
 This state for optimization and/or second-order correction.
 Total Energy, E(TD-HF/TD-DFT) =  -2732.88934336
 Copying the excited state density for this state as the 1-particle RhoCI density.

 The electronic state is 1-A.
 Alpha  occ. eigenvalues --  -19.17927 -19.17192 -19.13162 -19.11990 -19.11078
 Alpha  occ. eigenvalues --  -14.37090 -14.36306 -14.32707 -14.30808 -10.31684
 Alpha  occ. eigenvalues --  -10.31047 -10.26856 -10.24981 -10.24229 -10.23628
 Alpha  occ. eigenvalues --  -10.23304 -10.23265 -10.23173 -10.23062 -10.23017
 Alpha  occ. eigenvalues --  -10.22861 -10.22805 -10.22737 -10.22238 -10.21882
 Alpha  occ. eigenvalues --  -10.21725 -10.21647 -10.21325 -10.21264 -10.21015
 Alpha  occ. eigenvalues --  -10.21001 -10.20966 -10.20712 -10.20661 -10.20640
 Alpha  occ. eigenvalues --  -10.20161 -10.20140 -10.20106 -10.20092 -10.20036
 Alpha  occ. eigenvalues --  -10.19882 -10.19870 -10.19822 -10.19736 -10.19615
 Alpha  occ. eigenvalues --  -10.19539 -10.19463 -10.19415 -10.19162 -10.19136
 Alpha  occ. eigenvalues --  -10.18763 -10.18686 -10.18540 -10.18438 -10.18409
 Alpha  occ. eigenvalues --  -10.18392 -10.18301 -10.18231 -10.18209 -10.18175
 Alpha  occ. eigenvalues --  -10.18113 -10.18104 -10.17923 -10.17079  -1.09083
 Alpha  occ. eigenvalues --   -1.08541  -1.01333  -1.00851  -0.99142  -0.98438
 Alpha  occ. eigenvalues --   -0.97376  -0.94499  -0.93744  -0.84337  -0.83612
 Alpha  occ. eigenvalues --   -0.82200  -0.82174  -0.81753  -0.80819  -0.80427
 Alpha  occ. eigenvalues --   -0.79997  -0.79614  -0.78853  -0.78453  -0.77200
 Alpha  occ. eigenvalues --   -0.76754  -0.76070  -0.75407  -0.74921  -0.74434
 Alpha  occ. eigenvalues --   -0.73648  -0.73078  -0.72013  -0.71373  -0.69728
 Alpha  occ. eigenvalues --   -0.69478  -0.69333  -0.68790  -0.67647  -0.67405
 Alpha  occ. eigenvalues --   -0.67025  -0.66240  -0.65656  -0.65434  -0.65135
 Alpha  occ. eigenvalues --   -0.63759  -0.62580  -0.62030  -0.61834  -0.61698
 Alpha  occ. eigenvalues --   -0.60923  -0.59294  -0.58628  -0.58035  -0.57565
 Alpha  occ. eigenvalues --   -0.56855  -0.56206  -0.55360  -0.54806  -0.54603
 Alpha  occ. eigenvalues --   -0.54435  -0.53973  -0.53410  -0.53130  -0.52743
 Alpha  occ. eigenvalues --   -0.52504  -0.51837  -0.51213  -0.50760  -0.50538
 Alpha  occ. eigenvalues --   -0.49916  -0.49415  -0.48898  -0.48612  -0.48405
 Alpha  occ. eigenvalues --   -0.48076  -0.47966  -0.47382  -0.47076  -0.46959
 Alpha  occ. eigenvalues --   -0.46683  -0.46601  -0.46288  -0.45895  -0.45833
 Alpha  occ. eigenvalues --   -0.45498  -0.45303  -0.44905  -0.44613  -0.44435
 Alpha  occ. eigenvalues --   -0.44271  -0.44045  -0.43915  -0.43856  -0.43787
 Alpha  occ. eigenvalues --   -0.43620  -0.43409  -0.43020  -0.42861  -0.42477
 Alpha  occ. eigenvalues --   -0.42196  -0.41712  -0.41665  -0.41513  -0.41404
 Alpha  occ. eigenvalues --   -0.41238  -0.40951  -0.40702  -0.40332  -0.40299
 Alpha  occ. eigenvalues --   -0.40170  -0.40058  -0.39581  -0.39553  -0.39337
 Alpha  occ. eigenvalues --   -0.39086  -0.38791  -0.38571  -0.38228  -0.37907
 Alpha  occ. eigenvalues --   -0.37812  -0.37753  -0.37568  -0.37404  -0.37386
 Alpha  occ. eigenvalues --   -0.37213  -0.36858  -0.36789  -0.36468  -0.36303
 Alpha  occ. eigenvalues --   -0.36191  -0.36094  -0.36057  -0.35842  -0.35647
 Alpha  occ. eigenvalues --   -0.35195  -0.35085  -0.34795  -0.34744  -0.34520
 Alpha  occ. eigenvalues --   -0.34171  -0.34006  -0.33868  -0.33714  -0.33604
 Alpha  occ. eigenvalues --   -0.33486  -0.33113  -0.33083  -0.32673  -0.32313
 Alpha  occ. eigenvalues --   -0.32169  -0.32149  -0.31458  -0.31057  -0.30898
 Alpha  occ. eigenvalues --   -0.30871  -0.30592  -0.30316  -0.29619  -0.29489
 Alpha  occ. eigenvalues --   -0.29307  -0.28890  -0.28364  -0.28264  -0.27322
 Alpha  occ. eigenvalues --   -0.26964  -0.26738  -0.26623  -0.26102  -0.25775
 Alpha  occ. eigenvalues --   -0.25153  -0.24515  -0.24289  -0.23367  -0.20112
 Alpha  occ. eigenvalues --   -0.19304
 Alpha virt. eigenvalues --   -0.10298  -0.07838  -0.04587  -0.02033  -0.00492
 Alpha virt. eigenvalues --    0.00564   0.00822   0.01483   0.02203   0.03229
 Alpha virt. eigenvalues --    0.03409   0.03820   0.04204   0.04227   0.04420

 Mulliken charges:
               1
     1  C    0.063433
     2  C   -0.045041
     3  C   -0.046925
     4  C   -0.055000
     5  N   -0.171900
     6  C   -0.027419
     7  C   -0.051464
     8  C    0.024533
     9  C    0.032570
    10  C    0.035078
    11  C    0.055834
    12  C    0.032623
    13  C    0.164783
    14  O   -0.199929
    15  O   -0.370145
    16  N   -0.144903
    17  C    0.061444
    18  C   -0.138870
    19  C    0.072114
    20  C    0.041012
    21  C   -0.019292
    22  C   -0.035557
    23  C   -0.092351
    24  N   -0.209356
    25  C    0.075004
    26  C   -0.210150
    27  C   -0.051879
    28  C    0.021959
    29  C    0.044150
    30  C    0.101559
    31  C   -0.063015
    32  N   -0.091095
    33  C    0.162186
    34  C   -0.119069
    35  C   -0.008209
    36  C    0.062757
    37  C   -0.026071
    38  C    0.054551
    39  O   -0.177377
    40  C   -0.123563
    41  C    0.213444
    42  O   -0.260827
    43  O   -0.276772
    44  C    0.207951
    45  C    0.328220
    46  C   -0.041267
    47  C   -0.132337
    48  C    0.078118
    49  C    0.130020
    50  C   -0.016669
    51  C    0.101899
    52  C   -0.088449
    53  C    0.151341
    54  C   -0.028024
    55  C    0.002116
    56  C    0.066278
    57  C   -0.110618
    58  C   -0.032549
    59  C   -0.084729
    60  C    0.075709
    61  C    0.014338
    62  C   -0.019704
    63  C   -0.005791
    64  C   -0.092333
    65  H   -0.033646
    66  H   -0.056241
    67  H   -0.058202
    68  H    0.029889
    69  H   -0.027470
    70  H   -0.002999
    71  H   -0.013617
    72  H    0.009864
    73  H    0.000770
    74  H   -0.010805
    75  H    0.044903
    76  H    0.024048
    77  H    0.046909
    78  H    0.049269
    79  H    0.079144
    80  H    0.030688
    81  H    0.050830
    82  H    0.038354
    83  H    0.052801
    84  H    0.044007
    85  H    0.038899
    86  H    0.009288
    87  H   -0.037917
    88  H    0.033581
    89  H    0.034810
    90  H    0.028174
    91  H    0.044996
    92  H    0.059599
    93  H    0.082648
    94  H    0.091755
    95  H    0.054117
    96  H    0.019743
    97  H    0.014772
    98  H   -0.018557
    99  H    0.038735
   100  H   -0.051624
   101  H    0.024287
   102  H    0.013466
   103  H   -0.013121
   104  H   -0.037464
   105  H   -0.001245
   106  H   -0.001615
   107  H    0.019032
   108  H   -0.010937
   109  H   -0.022172
   110  H   -0.024265
   111  H   -0.015116
   112  H   -0.040278
   113  H    0.019880
   114  H   -0.020073
   115  H   -0.042743
   116  H   -0.016513
   117  H   -0.015888
   118  H   -0.004890
   119  H    0.024281
   120  H    0.000092
   121  H    0.052569
   122  H    0.016573
   123  H    0.009691
   124  H    0.025937
   125  H    0.008441
   126  H    0.000978
   127  H    0.036986
   128  H    0.000103
   129  H   -0.009367
   130  H   -0.015685
   131  H    0.005185
   132  H   -0.010257
   133  H    0.009337
   134  H    0.031088
   135  H    0.031855
   136  H    0.023529
   137  H    0.216306
   138  H    0.184121
 Sum of Mulliken charges =  -0.00000

 Dipole moment (field-independent basis, Debye):
    X=              1.7745    Y=              4.3558    Z=             -0.5261  Tot=              4.7327
 Quadrupole moment (field-independent basis, Debye-Ang):
   XX=           -351.5711   YY=           -390.0706   ZZ=           -392.7831
   XY=            -34.0739   XZ=              7.9468   YZ=             -3.0325

 Normal termination of Gaussian 16 at Fri Aug 16 05:07:30 2019.
