 Gaussian 16, Revision A.03,
 Gaussian 16:  ES64L-G16RevA.03 25-Dec-2016

 --------------------------
 # td=(NStates=1) B3LYP/SVP
 --------------------------

 --
 TD
 --
 Symbolic Z-matrix:
 Charge =  0 Multiplicity = 1

                         Standard orientation:
 ---------------------------------------------------------------------
 Center     Atomic      Atomic             Coordinates (Angstroms)
 Number     Number       Type             X           Y           Z
 ---------------------------------------------------------------------
      1          6           0       -5.091652   -1.939195    0.589799
      2          6           0       -4.827598    2.774513    1.306557
      3          6           0       -9.497004    3.233006   -0.198858
      4          6           0       -9.873245   -1.622045   -0.895671
      5          7           0       -5.259982    0.431274    0.895815
      6          6           0       -4.517766   -0.731203    0.834104
      7          6           0       -3.087204   -0.485872    1.259796
      8          6           0       -3.170992    0.979238    1.938301
      9          6           0       -4.459845    1.401277    1.326936
     10          6           0       -3.140990    0.916314    3.417173
     11          6           0       -2.091586   -0.623128    0.076538
     12          6           0       -0.668982   -0.584372    0.504413
     13          6           0        0.378149   -0.890850   -0.550202
     14          8           0        0.168082   -1.438098   -1.598812
     15          8           0        1.543561   -0.598925   -0.245399
     16          7           0       -7.161558    2.760603    0.617858
     17          6           0       -6.034598    3.405382    1.020367
     18          6           0       -6.387300    4.776328    1.042792
     19          6           0       -7.591616    4.960535    0.466679
     20          6           0       -8.168445    3.609618    0.222111
     21          6           0       -5.371029    5.911560    1.291784
     22          6           0       -8.347413    6.122112    0.197345
     23          6           0       -9.245954    6.428711   -0.752645
     24          7           0       -9.309105    0.756011   -0.354382
     25          6           0       -9.938495    1.940581   -0.526763
     26          6           0      -11.419827    1.721350   -0.802416
     27          6           0      -11.485571    0.395755   -1.156250
     28          6           0      -10.155336   -0.192571   -0.768972
     29          6           0      -12.402893    2.797201   -1.007504
     30          6           0      -12.787657   -0.335883   -1.632540
     31          6           0      -12.891241   -0.689834   -3.212138
     32          7           0       -7.547687   -1.263859   -0.109504
     33          6           0       -8.618272   -2.177970   -0.539192
     34          6           0       -8.075349   -3.566511   -0.672541
     35          6           0       -6.755795   -3.520675   -0.201680
     36          6           0       -6.411931   -2.063107    0.090747
     37          6           0       -8.879870   -4.705313   -1.029939
     38          6           0       -5.580817   -4.280612   -0.003768
     39          8           0       -5.405511   -5.563923    0.008132
     40          6           0       -4.502718   -3.291162    0.442631
     41          6           0       -3.839907   -3.783376    1.713102
     42          8           0       -4.090385   -3.501383    2.810676
     43          8           0       -2.809435   -4.646620    1.419051
     44          6           0       -2.152203   -5.250294    2.476856
     45          6           0        2.637654   -0.896823   -1.251069
     46          6           0        3.980402   -0.484471   -0.611682
     47          6           0        4.965292    0.197876   -1.128766
     48          6           0        4.897869    0.851272   -2.468061
     49          6           0        6.190476    0.456061   -0.362723
     50          6           0        7.428611   -0.289022   -0.967497
     51          6           0        8.774224   -0.105467   -0.094295
     52          6           0       10.066168   -0.565193   -0.710298
     53          6           0       10.077373   -2.105049   -1.015121
     54          6           0       11.318284   -0.048977    0.103327
     55          6           0       12.702475   -0.444734   -0.570475
     56          6           0       13.881901    0.256452    0.243289
     57          6           0       15.318418   -0.135261   -0.286207
     58          6           0       15.553311   -1.644017   -0.386950
     59          6           0       16.428426    0.625717    0.520281
     60          6           0       17.824468    0.720618   -0.173892
     61          6           0       18.807208    1.533715    0.569589
     62          6           0       20.233532    1.365262    0.131916
     63          6           0       20.351351    1.818568   -1.398894
     64          6           0       21.198641    2.017479    1.101382
     65          1           0       -4.278794    3.319799    1.581348
     66          1           0      -10.286254    3.971188   -0.122200
     67          1           0      -10.618580   -2.498918   -1.213815
     68          1           0       -2.870325   -1.232757    2.080616
     69          1           0       -2.448139    1.710351    1.583828
     70          1           0       -2.162301    0.608250    3.643410
     71          1           0       -3.187047    1.771211    3.860516
     72          1           0       -3.875348    0.183058    3.766102
     73          1           0       -2.366912   -1.216880   -0.858229
     74          1           0       -2.308431    0.186322   -0.628969
     75          1           0       -0.357474    0.254141    1.074173
     76          1           0       -0.387531   -1.278270    1.321221
     77          1           0       -4.614628    5.869055    0.591971
     78          1           0       -5.908472    7.096749    1.174629
     79          1           0       -5.081801    5.788239    2.397143
     80          1           0       -8.027408    7.027346    0.775554
     81          1           0       -9.585425    5.694658   -1.310029
     82          1           0       -9.632756    7.535395   -0.952901
     83          1           0      -12.395492    3.227822    0.107565
     84          1           0      -12.014960    3.756680   -1.617052
     85          1           0      -13.347067    2.373665   -1.198089
     86          1           0      -12.859312   -1.270472   -1.086927
     87          1           0      -13.592430    0.207432   -1.440574
     88          1           0      -12.598468    0.182839   -3.795949
     89          1           0      -12.109382   -1.559453   -3.500325
     90          1           0      -13.976718   -0.901157   -3.667275
     91          1           0      -10.107271   -4.642922   -0.655368
     92          1           0       -9.013169   -4.555933   -2.203539
     93          1           0       -8.441990   -5.708834   -0.655186
     94          1           0       -3.767236   -3.445006   -0.544389
     95          1           0       -1.521820   -6.089109    2.190368
     96          1           0       -1.451975   -4.562109    3.060407
     97          1           0       -2.887934   -5.658035    3.187375
     98          1           0        2.616934   -2.082786   -1.201635
     99          1           0        2.442941   -0.612683   -2.213479
    100          1           0        4.020599   -0.856481    0.390062
    101          1           0        4.739669    1.926639   -2.394208
    102          1           0        5.739393    0.581037   -3.280008
    103          1           0        3.933413    1.021670   -3.052126
    104          1           0        6.388127    1.539604   -0.325948
    105          1           0        6.272740    0.105469    0.684371
    106          1           0        7.202169   -1.352290   -0.974408
    107          1           0        7.687587   -0.021406   -1.969841
    108          1           0        8.766649    0.964074    0.224716
    109          1           0        8.774470   -0.570112    0.953893
    110          1           0       10.133079    0.073500   -1.733723
    111          1           0        9.249824   -2.327038   -1.792859
    112          1           0       11.012257   -2.513336   -1.605833
    113          1           0       10.064461   -2.783483   -0.044251
    114          1           0       11.199886    1.100839    0.318971
    115          1           0       11.199373   -0.448870    1.153534
    116          1           0       12.899611   -1.570018   -0.691107
    117          1           0       12.867771    0.001869   -1.554156
    118          1           0       13.916108    1.413675    0.157167
    119          1           0       13.695316    0.007611    1.341044
    120          1           0       15.445875    0.157741   -1.323818
    121          1           0       14.759485   -2.115448   -1.110465
    122          1           0       16.561579   -1.784633   -0.870595
    123          1           0       15.580231   -2.428308    0.588022
    124          1           0       16.185320    1.644990    0.703322
    125          1           0       16.578268    0.316219    1.493546
    126          1           0       18.029542   -0.190459   -0.377603
    127          1           0       17.758877    0.965662   -1.236196
    128          1           0       18.520076    2.621989    0.862988
    129          1           0       18.855292    1.191367    1.537437
    130          1           0       20.500390    0.208184    0.074144
    131          1           0       20.152094    2.891186   -1.380819
    132          1           0       21.247135    1.680729   -1.990491
    133          1           0       19.878069    1.378502   -2.199229
    134          1           0       21.250506    1.697452    2.201181
    135          1           0       22.307830    1.907461    0.852556
    136          1           0       20.945442    3.150851    1.043649
    137          1           0       -7.188670    1.876837    0.146650
    138          1           0       -7.667838   -0.289861    0.087614
 ---------------------------------------------------------------------

 SCF Done:  E(RB3LYP) =  -2733.00482127     A.U. after   18 cycles

 Excitation energies and oscillator strengths:

 Excited State   1:      Singlet-A      1.9145 eV  647.60 nm  f=0.2085  <S**2>=0.000
     235 -> 238       -0.25631
     236 -> 237        0.65068
 This state for optimization and/or second-order correction.
 Total Energy, E(TD-HF/TD-DFT) =  -2732.93446368
 Copying the excited state density for this state as the 1-particle RhoCI density.

 The electronic state is 1-A.
 Alpha  occ. eigenvalues --  -19.17649 -19.16076 -19.12709 -19.11054 -19.09456
 Alpha  occ. eigenvalues --  -14.37396 -14.36679 -14.32242 -14.30733 -10.31117
 Alpha  occ. eigenvalues --  -10.29713 -10.27363 -10.25868 -10.24786 -10.24585
 Alpha  occ. eigenvalues --  -10.23929 -10.23720 -10.23303 -10.22995 -10.22850
 Alpha  occ. eigenvalues --  -10.22806 -10.22732 -10.22570 -10.22070 -10.22059
 Alpha  occ. eigenvalues --  -10.21802 -10.21690 -10.21064 -10.20528 -10.20496
 Alpha  occ. eigenvalues --  -10.20487 -10.20447 -10.20371 -10.20358 -10.20306
 Alpha  occ. eigenvalues --  -10.20287 -10.20232 -10.20220 -10.20199 -10.20196
 Alpha  occ. eigenvalues --  -10.20184 -10.20021 -10.19891 -10.19848 -10.19831
 Alpha  occ. eigenvalues --  -10.19827 -10.19444 -10.19398 -10.19367 -10.19320
 Alpha  occ. eigenvalues --  -10.19263 -10.19229 -10.19130 -10.19072 -10.18958
 Alpha  occ. eigenvalues --  -10.18935 -10.18920 -10.18694 -10.17364 -10.17244
 Alpha  occ. eigenvalues --  -10.17126 -10.16831 -10.16801 -10.15902  -1.12208
 Alpha  occ. eigenvalues --   -1.10222  -1.01797  -0.99000  -0.98843  -0.97863
 Alpha  occ. eigenvalues --   -0.95560  -0.94754  -0.93745  -0.85334  -0.83468
 Alpha  occ. eigenvalues --   -0.82540  -0.81856  -0.81729  -0.81386  -0.80790
 Alpha  occ. eigenvalues --   -0.80246  -0.79414  -0.79130  -0.79009  -0.77997
 Alpha  occ. eigenvalues --   -0.76855  -0.76165  -0.75284  -0.75064  -0.74354
 Alpha  occ. eigenvalues --   -0.73546  -0.73253  -0.72838  -0.71426  -0.70853
 Alpha  occ. eigenvalues --   -0.70378  -0.68991  -0.68623  -0.68580  -0.68361
 Alpha  occ. eigenvalues --   -0.67528  -0.66643  -0.66363  -0.66029  -0.65485
 Alpha  occ. eigenvalues --   -0.64875  -0.63940  -0.63235  -0.62172  -0.61599
 Alpha  occ. eigenvalues --   -0.61533  -0.60280  -0.59405  -0.58391  -0.58037
 Alpha  occ. eigenvalues --   -0.57811  -0.56771  -0.56092  -0.55933  -0.55431
 Alpha  occ. eigenvalues --   -0.55046  -0.54652  -0.54592  -0.53962  -0.53717
 Alpha  occ. eigenvalues --   -0.53241  -0.52475  -0.51931  -0.51410  -0.50213
 Alpha  occ. eigenvalues --   -0.50197  -0.49536  -0.49194  -0.48701  -0.48587
 Alpha  occ. eigenvalues --   -0.47631  -0.47476  -0.47226  -0.47104  -0.46961
 Alpha  occ. eigenvalues --   -0.46777  -0.46442  -0.46264  -0.46071  -0.45740
 Alpha  occ. eigenvalues --   -0.45557  -0.45535  -0.44886  -0.44809  -0.44581
 Alpha  occ. eigenvalues --   -0.44438  -0.44339  -0.44091  -0.43682  -0.43477
 Alpha  occ. eigenvalues --   -0.43200  -0.43163  -0.42855  -0.42775  -0.42550
 Alpha  occ. eigenvalues --   -0.42365  -0.42242  -0.42043  -0.41924  -0.41683
 Alpha  occ. eigenvalues --   -0.41508  -0.41362  -0.41138  -0.40651  -0.40493
 Alpha  occ. eigenvalues --   -0.40419  -0.40036  -0.39686  -0.39457  -0.39312
 Alpha  occ. eigenvalues --   -0.39106  -0.38884  -0.38705  -0.38509  -0.38369
 Alpha  occ. eigenvalues --   -0.38237  -0.37943  -0.37861  -0.37765  -0.37351
 Alpha  occ. eigenvalues --   -0.37166  -0.37090  -0.36819  -0.36616  -0.36422
 Alpha  occ. eigenvalues --   -0.36153  -0.35840  -0.35682  -0.35574  -0.35414
 Alpha  occ. eigenvalues --   -0.34997  -0.34904  -0.34690  -0.34625  -0.34495
 Alpha  occ. eigenvalues --   -0.34477  -0.34286  -0.34177  -0.33982  -0.33778
 Alpha  occ. eigenvalues --   -0.33722  -0.33481  -0.33173  -0.33161  -0.32790
 Alpha  occ. eigenvalues --   -0.32694  -0.32052  -0.31894  -0.31797  -0.31119
 Alpha  occ. eigenvalues --   -0.30739  -0.30474  -0.30309  -0.30058  -0.29845
 Alpha  occ. eigenvalues --   -0.29623  -0.29399  -0.28368  -0.28284  -0.27830
 Alpha  occ. eigenvalues --   -0.27502  -0.27020  -0.26617  -0.26353  -0.26030
 Alpha  occ. eigenvalues --   -0.25342  -0.24479  -0.24411  -0.22839  -0.20489
 Alpha  occ. eigenvalues --   -0.18568
 Alpha virt. eigenvalues --   -0.10724  -0.08106  -0.05379  -0.02101  -0.00352
 Alpha virt. eigenvalues --   -0.00200   0.00823   0.01592   0.02941   0.03225
 Alpha virt. eigenvalues --    0.03801   0.03995   0.04036   0.04580   0.04887

 Mulliken charges:
               1
     1  C    0.049095
     2  C    0.208089
     3  C   -0.071911
     4  C   -0.091558
     5  N   -0.159106
     6  C   -0.062320
     7  C   -0.061761
     8  C   -0.042979
     9  C   -0.025439
    10  C    0.228132
    11  C    0.083979
    12  C    0.120007
    13  C    0.082160
    14  O   -0.263177
    15  O   -0.251154
    16  N   -0.027765
    17  C    0.081696
    18  C   -0.123834
    19  C    0.109889
    20  C    0.025979
    21  C    0.029282
    22  C   -0.097030
    23  C   -0.000969
    24  N   -0.205102
    25  C    0.050858
    26  C   -0.164822
    27  C   -0.097828
    28  C    0.064529
    29  C    0.068915
    30  C    0.151800
    31  C   -0.082167
    32  N   -0.103121
    33  C    0.055166
    34  C   -0.058931
    35  C    0.021559
    36  C    0.087603
    37  C   -0.047970
    38  C    0.046159
    39  O   -0.256890
    40  C   -0.064750
    41  C    0.196948
    42  O   -0.162454
    43  O   -0.300970
    44  C    0.179347
    45  C    0.285692
    46  C   -0.094856
    47  C   -0.039857
    48  C   -0.006443
    49  C    0.092738
    50  C    0.016766
    51  C    0.002701
    52  C   -0.080823
    53  C   -0.036522
    54  C   -0.003958
    55  C    0.022833
    56  C   -0.017060
    57  C   -0.028087
    58  C   -0.060761
    59  C    0.082982
    60  C    0.140384
    61  C    0.099058
    62  C   -0.106494
    63  C    0.049076
    64  C   -0.009785
    65  H   -0.311976
    66  H   -0.008009
    67  H    0.024393
    68  H    0.026254
    69  H   -0.015508
    70  H   -0.016102
    71  H   -0.050806
    72  H    0.029826
    73  H    0.027514
    74  H   -0.024502
    75  H   -0.017286
    76  H    0.010065
    77  H    0.031288
    78  H    0.041150
    79  H    0.044653
    80  H   -0.007221
    81  H   -0.035039
    82  H    0.050515
    83  H    0.035083
    84  H    0.058606
    85  H    0.001495
    86  H    0.002902
    87  H   -0.046375
    88  H    0.013995
    89  H    0.032502
    90  H    0.031900
    91  H    0.056058
    92  H    0.061101
    93  H    0.080403
    94  H    0.101746
    95  H    0.021717
    96  H    0.011498
    97  H    0.019879
    98  H    0.040666
    99  H    0.006195
   100  H   -0.020625
   101  H    0.011919
   102  H    0.057776
   103  H    0.004679
   104  H    0.001501
   105  H    0.001778
   106  H    0.003732
   107  H   -0.006967
   108  H   -0.013514
   109  H   -0.012173
   110  H    0.001953
   111  H    0.027519
   112  H    0.024090
   113  H    0.031147
   114  H    0.008557
   115  H   -0.004062
   116  H    0.032154
   117  H   -0.004914
   118  H    0.011533
   119  H    0.006078
   120  H   -0.015053
   121  H    0.021264
   122  H    0.011679
   123  H    0.026878
   124  H   -0.035996
   125  H   -0.037334
   126  H   -0.098182
   127  H   -0.033846
   128  H   -0.006656
   129  H   -0.048517
   130  H    0.004765
   131  H   -0.001927
   132  H   -0.020666
   133  H   -0.016585
   134  H    0.025502
   135  H    0.014201
   136  H    0.013532
   137  H    0.147602
   138  H    0.133831
 Sum of Mulliken charges =  -0.00000

 Dipole moment (field-independent basis, Debye):
    X=              2.8480    Y=              5.8021    Z=             -0.2857  Tot=              6.4697
 Quadrupole moment (field-independent basis, Debye-Ang):
   XX=           -346.7647   YY=           -394.4390   ZZ=           -392.8508
   XY=            -28.0849   XZ=             11.5497   YZ=              0.2845

 Normal termination of Gaussian 16 at Mon Aug 12 05:52:33 2019.
