 Gaussian 16, Revision A.03,
 Gaussian 16:  ES64L-G16RevA.03 25-Dec-2016

 --------------------------
 # td=(NStates=1) B3LYP/SVP
 --------------------------

 --
 TD
 --
 Symbolic Z-matrix:
 Charge =  0 Multiplicity = 1

                         Standard orientation:
 ---------------------------------------------------------------------
 Center     Atomic      Atomic             Coordinates (Angstroms)
 Number     Number       Type             X           Y           Z
 ---------------------------------------------------------------------
      1          6           0       -5.104032   -1.904696    0.400875
      2          6           0       -4.678433    2.805295    1.304141
      3          6           0       -9.316257    3.333963   -0.144639
      4          6           0       -9.827196   -1.463521   -0.848966
      5          7           0       -5.207432    0.442941    0.896569
      6          6           0       -4.471967   -0.702921    0.820132
      7          6           0       -2.983261   -0.618157    1.243835
      8          6           0       -3.024799    0.936837    1.726090
      9          6           0       -4.381165    1.443605    1.296625
     10          6           0       -2.761642    1.077601    3.262220
     11          6           0       -2.088257   -0.855258    0.018719
     12          6           0       -0.579503   -0.841495    0.434688
     13          6           0        0.449472   -1.074732   -0.640352
     14          8           0        0.153344   -1.479963   -1.718981
     15          8           0        1.701571   -0.857472   -0.280816
     16          7           0       -7.108453    2.701810    0.526384
     17          6           0       -5.932115    3.347786    1.012366
     18          6           0       -6.139288    4.780938    0.915967
     19          6           0       -7.440941    4.969260    0.479666
     20          6           0       -7.985109    3.605635    0.259912
     21          6           0       -5.111823    5.791911    1.210856
     22          6           0       -8.081161    6.246263    0.258713
     23          6           0       -9.135959    6.814191   -0.430100
     24          7           0       -9.185468    0.958296   -0.390393
     25          6           0       -9.896104    2.034706   -0.373756
     26          6           0      -11.262425    1.908524   -0.773145
     27          6           0      -11.413990    0.473473   -1.034275
     28          6           0      -10.090795   -0.063323   -0.813730
     29          6           0      -12.225751    2.987347   -1.017286
     30          6           0      -12.693795   -0.131278   -1.519165
     31          6           0      -12.750620   -0.518547   -3.036444
     32          7           0       -7.435836   -1.243777   -0.222520
     33          6           0       -8.587897   -2.115697   -0.612964
     34          6           0       -8.197019   -3.406735   -0.646581
     35          6           0       -6.852546   -3.382035   -0.252461
     36          6           0       -6.459439   -2.066723   -0.006066
     37          6           0       -8.853146   -4.705848   -1.110825
     38          6           0       -5.725297   -4.256756   -0.062796
     39          8           0       -5.645571   -5.529710   -0.107570
     40          6           0       -4.560003   -3.356927    0.464669
     41          6           0       -3.925962   -3.776156    1.820972
     42          8           0       -4.232710   -3.361871    2.890071
     43          8           0       -2.989145   -4.854792    1.612123
     44          6           0       -2.621145   -5.425054    2.882209
     45          6           0        2.738596   -1.193933   -1.185583
     46          6           0        4.060632   -0.608273   -0.659236
     47          6           0        4.948291    0.088550   -1.251995
     48          6           0        4.802562    0.677029   -2.620676
     49          6           0        6.220330    0.405516   -0.495437
     50          6           0        7.381609   -0.467612   -1.053995
     51          6           0        8.654721   -0.165875   -0.202950
     52          6           0       10.034496   -0.837203   -0.713618
     53          6           0       10.014554   -2.295612   -0.960198
     54          6           0       11.321380   -0.135741   -0.077130
     55          6           0       12.574660   -0.588907   -0.517066
     56          6           0       13.710667    0.169662    0.234138
     57          6           0       15.161471   -0.258699   -0.268337
     58          6           0       15.472338   -1.802989   -0.343947
     59          6           0       16.243164    0.718903    0.448423
     60          6           0       17.668294    0.580784   -0.086551
     61          6           0       18.665685    1.493087    0.621714
     62          6           0       20.136162    1.650415    0.186784
     63          6           0       20.198944    2.120253   -1.285635
     64          6           0       20.871612    2.561539    1.201194
     65          1           0       -3.942111    3.386712    1.696936
     66          1           0      -10.028280    4.130897   -0.235982
     67          1           0      -10.369498   -2.313971   -1.322191
     68          1           0       -2.877842   -1.396699    2.106986
     69          1           0       -2.144244    1.413449    1.314724
     70          1           0       -1.694037    0.750795    3.682442
     71          1           0       -2.883852    2.145665    3.484255
     72          1           0       -3.559441    0.680726    3.796554
     73          1           0       -2.189091   -1.751568   -0.498183
     74          1           0       -2.336884   -0.041732   -0.573099
     75          1           0       -0.452909    0.068536    1.248535
     76          1           0       -0.465227   -1.794260    0.994362
     77          1           0       -4.113866    5.681463    0.619295
     78          1           0       -5.497840    6.817170    1.165879
     79          1           0       -4.979210    5.491203    2.195356
     80          1           0       -7.584709    6.939944    0.878446
     81          1           0       -9.707186    6.186657   -1.192551
     82          1           0       -9.330291    7.863261   -0.182051
     83          1           0      -12.416530    3.482138   -0.080983
     84          1           0      -11.972051    3.707862   -1.739166
     85          1           0      -13.275538    2.685999   -1.605795
     86          1           0      -12.876065   -0.916814   -0.967545
     87          1           0      -13.471462    0.538785   -1.210449
     88          1           0      -12.729827    0.126729   -3.852950
     89          1           0      -12.094419   -1.268924   -3.419817
     90          1           0      -13.754299   -1.037159   -3.222148
     91          1           0       -9.901248   -4.567830   -0.711673
     92          1           0       -8.803796   -4.698470   -2.285536
     93          1           0       -8.320527   -5.564708   -0.614930
     94          1           0       -3.640124   -3.515779   -0.260576
     95          1           0       -2.344407   -6.639905    2.551090
     96          1           0       -1.724308   -4.896266    3.293920
     97          1           0       -3.614400   -5.498039    3.366378
     98          1           0        2.742277   -2.304834   -1.279500
     99          1           0        2.642566   -0.753904   -2.169598
    100          1           0        4.215869   -0.705666    0.516846
    101          1           0        4.751746    1.866439   -2.665650
    102          1           0        5.605135    0.546050   -3.416780
    103          1           0        3.812527    0.551496   -3.182935
    104          1           0        6.205720    1.559454   -0.715275
    105          1           0        5.949503    0.298392    0.503844
    106          1           0        7.188174   -1.422228   -0.953423
    107          1           0        7.399788   -0.216948   -2.134717
    108          1           0        8.906614    1.062259    0.012121
    109          1           0        8.596440   -0.521717    0.872907
    110          1           0       10.036079   -0.453953   -2.014047
    111          1           0        9.207833   -2.619300   -1.670891
    112          1           0       11.006014   -2.748961   -1.573371
    113          1           0        9.966282   -2.777629    0.014805
    114          1           0       10.914039    0.868350   -0.100343
    115          1           0       11.380816   -0.340505    1.121137
    116          1           0       12.742902   -1.589643   -0.314224
    117          1           0       12.619638   -0.326808   -1.579483
    118          1           0       13.621099    1.464579    0.232797
    119          1           0       13.709045    0.032125    1.400688
    120          1           0       15.310629    0.223847   -1.225940
    121          1           0       14.772969   -2.445519   -0.728994
    122          1           0       16.578685   -1.677739   -0.526235
    123          1           0       15.316247   -2.156710    0.724082
    124          1           0       15.664802    1.707990    0.533661
    125          1           0       16.090052    0.248774    1.604211
    126          1           0       17.987040   -0.473093    0.038759
    127          1           0       17.668173    0.760284   -1.246632
    128          1           0       18.222087    2.435919    0.493077
    129          1           0       18.520050    1.185800    1.798390
    130          1           0       20.612307    0.715665    0.257768
    131          1           0       19.477332    2.968870   -1.661491
    132          1           0       21.210231    2.313709   -1.533819
    133          1           0       19.982357    1.172164   -1.947839
    134          1           0       20.685218    2.257537    2.276464
    135          1           0       21.906214    2.648811    0.826308
    136          1           0       20.554876    3.730461    1.126132
    137          1           0       -7.329698    1.595904    0.701528
    138          1           0       -7.718546   -0.234217   -0.416794
 ---------------------------------------------------------------------

 SCF Done:  E(RB3LYP) =  -2733.05498627     A.U. after   17 cycles

 Excitation energies and oscillator strengths:

 Excited State   1:      Singlet-A      2.0756 eV  597.34 nm  f=0.1150  <S**2>=0.000
     235 -> 237       -0.30325
     235 -> 238        0.28355
     236 -> 237        0.53884
     236 -> 238        0.16789
 This state for optimization and/or second-order correction.
 Total Energy, E(TD-HF/TD-DFT) =  -2732.97870875
 Copying the excited state density for this state as the 1-particle RhoCI density.

 The electronic state is 1-A.
 Alpha  occ. eigenvalues --  -19.17688 -19.16407 -19.13840 -19.11600 -19.10997
 Alpha  occ. eigenvalues --  -14.38203 -14.36154 -14.32746 -14.30500 -10.31904
 Alpha  occ. eigenvalues --  -10.31180 -10.27280 -10.25112 -10.24919 -10.24709
 Alpha  occ. eigenvalues --  -10.23979 -10.23383 -10.23361 -10.23147 -10.22610
 Alpha  occ. eigenvalues --  -10.22395 -10.21994 -10.21516 -10.21408 -10.21270
 Alpha  occ. eigenvalues --  -10.21211 -10.21189 -10.21123 -10.21089 -10.21066
 Alpha  occ. eigenvalues --  -10.20978 -10.20949 -10.20860 -10.20823 -10.20783
 Alpha  occ. eigenvalues --  -10.20617 -10.20577 -10.20410 -10.20179 -10.20057
 Alpha  occ. eigenvalues --  -10.19605 -10.19581 -10.19514 -10.19448 -10.19430
 Alpha  occ. eigenvalues --  -10.19392 -10.19378 -10.19212 -10.19157 -10.19128
 Alpha  occ. eigenvalues --  -10.19087 -10.19080 -10.19024 -10.18991 -10.18852
 Alpha  occ. eigenvalues --  -10.18691 -10.18675 -10.18658 -10.18519 -10.18371
 Alpha  occ. eigenvalues --  -10.18264 -10.18161 -10.18104 -10.17586  -1.10864
 Alpha  occ. eigenvalues --   -1.08197  -1.01308  -1.00496  -0.99374  -0.98758
 Alpha  occ. eigenvalues --   -0.97612  -0.94344  -0.94091  -0.83937  -0.83427
 Alpha  occ. eigenvalues --   -0.83205  -0.81674  -0.81565  -0.81030  -0.80624
 Alpha  occ. eigenvalues --   -0.80540  -0.79711  -0.78870  -0.78686  -0.77586
 Alpha  occ. eigenvalues --   -0.77126  -0.76157  -0.75438  -0.74987  -0.74258
 Alpha  occ. eigenvalues --   -0.73520  -0.72729  -0.72210  -0.71695  -0.71642
 Alpha  occ. eigenvalues --   -0.69919  -0.69478  -0.68383  -0.68026  -0.67187
 Alpha  occ. eigenvalues --   -0.66977  -0.66560  -0.66313  -0.66081  -0.65058
 Alpha  occ. eigenvalues --   -0.64746  -0.63889  -0.63239  -0.62687  -0.61826
 Alpha  occ. eigenvalues --   -0.61517  -0.59445  -0.58729  -0.57901  -0.57527
 Alpha  occ. eigenvalues --   -0.56729  -0.56463  -0.55820  -0.55293  -0.54241
 Alpha  occ. eigenvalues --   -0.54191  -0.54161  -0.53193  -0.53112  -0.52823
 Alpha  occ. eigenvalues --   -0.52347  -0.52110  -0.51660  -0.50698  -0.50454
 Alpha  occ. eigenvalues --   -0.49957  -0.49379  -0.49308  -0.48751  -0.48035
 Alpha  occ. eigenvalues --   -0.47795  -0.47588  -0.47526  -0.47034  -0.46944
 Alpha  occ. eigenvalues --   -0.46843  -0.46493  -0.46423  -0.46174  -0.45916
 Alpha  occ. eigenvalues --   -0.45436  -0.45283  -0.45160  -0.44687  -0.44596
 Alpha  occ. eigenvalues --   -0.44468  -0.44228  -0.44085  -0.44028  -0.43806
 Alpha  occ. eigenvalues --   -0.43396  -0.43207  -0.42976  -0.42819  -0.42763
 Alpha  occ. eigenvalues --   -0.42292  -0.42068  -0.41963  -0.41802  -0.41635
 Alpha  occ. eigenvalues --   -0.41309  -0.41038  -0.40994  -0.40856  -0.40786
 Alpha  occ. eigenvalues --   -0.40431  -0.40302  -0.40083  -0.40018  -0.39681
 Alpha  occ. eigenvalues --   -0.39481  -0.39120  -0.38955  -0.38619  -0.38523
 Alpha  occ. eigenvalues --   -0.38298  -0.38204  -0.38154  -0.37883  -0.37759
 Alpha  occ. eigenvalues --   -0.37242  -0.37002  -0.36920  -0.36566  -0.36437
 Alpha  occ. eigenvalues --   -0.36254  -0.36058  -0.35907  -0.35575  -0.35358
 Alpha  occ. eigenvalues --   -0.35336  -0.35271  -0.35163  -0.35028  -0.34879
 Alpha  occ. eigenvalues --   -0.34684  -0.34383  -0.34368  -0.34216  -0.34043
 Alpha  occ. eigenvalues --   -0.33306  -0.33126  -0.32902  -0.32569  -0.32323
 Alpha  occ. eigenvalues --   -0.32059  -0.31788  -0.31769  -0.31525  -0.31441
 Alpha  occ. eigenvalues --   -0.31171  -0.30934  -0.30748  -0.30455  -0.29835
 Alpha  occ. eigenvalues --   -0.28974  -0.28934  -0.28428  -0.28046  -0.27701
 Alpha  occ. eigenvalues --   -0.27620  -0.27408  -0.27180  -0.26596  -0.25616
 Alpha  occ. eigenvalues --   -0.25588  -0.24251  -0.24083  -0.22153  -0.19784
 Alpha  occ. eigenvalues --   -0.19571
 Alpha virt. eigenvalues --   -0.10664  -0.08441  -0.04551  -0.02299  -0.00662
 Alpha virt. eigenvalues --    0.00392   0.00656   0.01148   0.02072   0.03060
 Alpha virt. eigenvalues --    0.03845   0.04178   0.04199   0.04704   0.04709

 Mulliken charges:
               1
     1  C    0.044725
     2  C   -0.055281
     3  C   -0.092720
     4  C   -0.044727
     5  N   -0.164740
     6  C   -0.110887
     7  C   -0.076400
     8  C   -0.036055
     9  C    0.020403
    10  C    0.060464
    11  C    0.137263
    12  C   -0.026454
    13  C    0.162812
    14  O   -0.221546
    15  O   -0.286721
    16  N   -0.066058
    17  C    0.141709
    18  C   -0.151770
    19  C    0.057103
    20  C    0.074601
    21  C    0.128261
    22  C   -0.075484
    23  C   -0.033994
    24  N   -0.245405
    25  C    0.044443
    26  C   -0.150820
    27  C   -0.129284
    28  C    0.100060
    29  C    0.082016
    30  C    0.238547
    31  C    0.017251
    32  N   -0.070500
    33  C   -0.054301
    34  C   -0.116521
    35  C    0.006892
    36  C    0.073952
    37  C    0.065436
    38  C    0.082216
    39  O   -0.239165
    40  C   -0.061785
    41  C    0.210186
    42  O   -0.188384
    43  O   -0.355593
    44  C    0.122372
    45  C    0.311828
    46  C   -0.141814
    47  C   -0.123872
    48  C   -0.022221
    49  C    0.084357
    50  C    0.150163
    51  C   -0.034772
    52  C   -0.153073
    53  C    0.004610
    54  C    0.013104
    55  C    0.191749
    56  C   -0.119178
    57  C   -0.070396
    58  C    0.077747
    59  C   -0.088547
    60  C    0.035933
    61  C    0.005454
    62  C   -0.020738
    63  C   -0.006459
    64  C   -0.006245
    65  H   -0.067194
    66  H   -0.050681
    67  H   -0.000451
    68  H    0.043761
    69  H   -0.005508
    70  H    0.043231
    71  H   -0.009865
    72  H    0.002328
    73  H    0.001124
    74  H   -0.008752
    75  H    0.048060
    76  H    0.030697
    77  H    0.053260
    78  H    0.019660
    79  H    0.017779
    80  H   -0.020815
    81  H    0.041298
    82  H    0.030775
    83  H    0.024278
    84  H    0.008801
    85  H    0.026293
    86  H   -0.054491
    87  H   -0.017075
    88  H   -0.008094
    89  H   -0.007091
    90  H   -0.003131
    91  H    0.029506
    92  H    0.064944
    93  H    0.064748
    94  H    0.070879
    95  H    0.046952
    96  H    0.051125
    97  H    0.051901
    98  H    0.024573
    99  H    0.001085
   100  H    0.008753
   101  H    0.024364
   102  H    0.030874
   103  H    0.019016
   104  H    0.010705
   105  H   -0.027500
   106  H   -0.039493
   107  H    0.006478
   108  H    0.019152
   109  H    0.008378
   110  H   -0.023598
   111  H    0.024941
   112  H    0.027124
   113  H    0.004962
   114  H   -0.006088
   115  H   -0.016052
   116  H   -0.016355
   117  H   -0.005028
   118  H    0.007284
   119  H    0.006137
   120  H   -0.016161
   121  H    0.003317
   122  H    0.028260
   123  H   -0.011932
   124  H    0.016986
   125  H   -0.000496
   126  H    0.007069
   127  H    0.009594
   128  H   -0.023871
   129  H    0.006828
   130  H   -0.019779
   131  H    0.035893
   132  H   -0.005649
   133  H    0.017039
   134  H    0.030579
   135  H    0.007414
   136  H    0.008883
   137  H    0.224928
   138  H    0.169391
 Sum of Mulliken charges =  -0.00000

 Dipole moment (field-independent basis, Debye):
    X=              1.5479    Y=              5.6743    Z=              0.3894  Tot=              5.8945
 Quadrupole moment (field-independent basis, Debye-Ang):
   XX=           -342.3033   YY=           -390.0430   ZZ=           -394.9603
   XY=            -33.3051   XZ=              3.8930   YZ=              0.4839

 Normal termination of Gaussian 16 at Fri Aug 23 19:39:57 2019.
