 Gaussian 16, Revision A.03,
 Gaussian 16:  ES64L-G16RevA.03 25-Dec-2016

 --------------------------
 # td=(NStates=1) B3LYP/SVP
 --------------------------

 --
 TD
 --
 Symbolic Z-matrix:
 Charge =  0 Multiplicity = 1

                         Standard orientation:
 ---------------------------------------------------------------------
 Center     Atomic      Atomic             Coordinates (Angstroms)
 Number     Number       Type             X           Y           Z
 ---------------------------------------------------------------------
      1          6           0       -5.086684   -2.005695    0.559823
      2          6           0       -4.793261    2.868418    1.254073
      3          6           0       -9.509167    3.172468   -0.182228
      4          6           0       -9.703576   -1.614151   -1.058939
      5          7           0       -5.192383    0.476463    0.731991
      6          6           0       -4.487282   -0.753276    0.835472
      7          6           0       -2.941607   -0.473518    1.388340
      8          6           0       -3.088244    1.067454    1.865927
      9          6           0       -4.410394    1.428937    1.292594
     10          6           0       -3.024680    1.079525    3.429793
     11          6           0       -2.094904   -0.663102    0.132306
     12          6           0       -0.560271   -0.514860    0.477221
     13          6           0        0.494513   -0.678762   -0.711328
     14          8           0        0.109713   -0.911185   -1.853852
     15          8           0        1.660553   -0.425284   -0.373193
     16          7           0       -7.210488    2.695777    0.509598
     17          6           0       -6.109064    3.321453    1.099164
     18          6           0       -6.510107    4.738254    1.165637
     19          6           0       -7.782895    4.896325    0.606431
     20          6           0       -8.230234    3.563541    0.339295
     21          6           0       -5.509706    5.758127    1.673514
     22          6           0       -8.334857    6.181327    0.479893
     23          6           0       -9.328679    6.428676   -0.414817
     24          7           0       -9.219976    0.757943   -0.445931
     25          6           0       -9.900170    1.966125   -0.608983
     26          6           0      -11.238455    1.679879   -1.071687
     27          6           0      -11.295240    0.365103   -1.304708
     28          6           0      -10.038757   -0.168118   -0.958774
     29          6           0      -12.348992    2.730531   -1.191963
     30          6           0      -12.563902   -0.398660   -1.711826
     31          6           0      -12.687121   -0.711758   -3.229855
     32          7           0       -7.453010   -1.418707   -0.273717
     33          6           0       -8.494624   -2.190200   -0.868641
     34          6           0       -8.049371   -3.565480   -0.918846
     35          6           0       -6.685516   -3.481198   -0.302441
     36          6           0       -6.404300   -2.113848   -0.064751
     37          6           0       -8.802675   -4.660774   -1.395253
     38          6           0       -5.617110   -4.359851    0.268552
     39          8           0       -5.491565   -5.584903    0.139452
     40          6           0       -4.394317   -3.351840    0.633396
     41          6           0       -3.837386   -3.874757    1.934215
     42          8           0       -4.280271   -3.444970    3.006303
     43          8           0       -2.889935   -4.791427    1.770911
     44          6           0       -2.417339   -5.485254    2.983424
     45          6           0        2.671290   -0.607273   -1.374296
     46          6           0        3.975819   -0.333404   -0.622770
     47          6           0        5.032293    0.394366   -1.009267
     48          6           0        4.954530    1.299765   -2.332057
     49          6           0        6.289049    0.414635   -0.224440
     50          6           0        7.444869   -0.121794   -0.895475
     51          6           0        8.755249   -0.129635   -0.086125
     52          6           0       10.061934   -0.591270   -0.822050
     53          6           0       10.055148   -2.104719   -1.074392
     54          6           0       11.254263   -0.221689    0.013293
     55          6           0       12.557691   -0.566782   -0.534302
     56          6           0       13.863032   -0.022620    0.102201
     57          6           0       15.233354   -0.315498   -0.457823
     58          6           0       15.539715   -1.836387   -0.610014
     59          6           0       16.338941    0.373478    0.331800
     60          6           0       17.711157    0.564191   -0.241533
     61          6           0       18.640159    1.361778    0.694281
     62          6           0       20.017916    1.407791    0.105214
     63          6           0       20.098207    2.276820   -1.178811
     64          6           0       21.148696    2.114205    1.208618
     65          1           0       -4.087780    3.571201    1.559956
     66          1           0      -10.119449    4.001311   -0.331649
     67          1           0      -10.352096   -2.252721   -1.437895
     68          1           0       -2.571245   -0.965049    2.270384
     69          1           0       -2.108023    1.549660    1.453385
     70          1           0       -2.026221    0.627332    3.423497
     71          1           0       -3.166047    2.131090    3.872641
     72          1           0       -3.846261    0.363110    3.685830
     73          1           0       -2.356119   -1.816909   -0.275016
     74          1           0       -2.341152   -0.038144   -0.724181
     75          1           0       -0.417257    0.349653    1.014053
     76          1           0       -0.325251   -1.297239    1.085774
     77          1           0       -4.554504    5.710102    1.234981
     78          1           0       -6.085071    6.924334    1.644060
     79          1           0       -5.456199    5.421039    2.739505
     80          1           0       -8.142277    6.946278    0.918149
     81          1           0      -10.119018    5.770890   -1.050585
     82          1           0       -9.589291    7.537528   -0.518032
     83          1           0      -11.987174    3.634785   -0.225225
     84          1           0      -12.273178    3.112838   -2.141741
     85          1           0      -13.375837    2.304840   -1.094212
     86          1           0      -12.701047   -1.390973   -1.154767
     87          1           0      -13.552554    0.219093   -1.378505
     88          1           0      -12.379655    0.145505   -3.843014
     89          1           0      -11.943042   -1.611606   -3.388354
     90          1           0      -13.602240   -1.284711   -3.554787
     91          1           0       -9.821387   -4.638210   -0.880373
     92          1           0       -8.759766   -4.785046   -2.635983
     93          1           0       -8.254379   -5.541887   -0.854882
     94          1           0       -3.641494   -3.619728   -0.095626
     95          1           0       -1.771245   -6.378526    2.610699
     96          1           0       -1.940531   -4.784939    3.655794
     97          1           0       -3.278882   -5.841781    3.594864
     98          1           0        2.800827   -1.671932   -1.908596
     99          1           0        2.370354   -0.072264   -2.274015
    100          1           0        4.049853   -0.928207    0.287601
    101          1           0        5.044168    2.439811   -2.109132
    102          1           0        5.878931    0.973713   -2.983256
    103          1           0        3.994618    1.117741   -3.102499
    104          1           0        6.609169    1.612913   -0.096573
    105          1           0        5.955976    0.044276    0.783846
    106          1           0        7.388235   -1.155330   -0.982455
    107          1           0        7.531189    0.161276   -1.938567
    108          1           0        8.999292    0.903391    0.295394
    109          1           0        8.458855   -0.967923    0.813942
    110          1           0       10.185099   -0.023232   -1.880486
    111          1           0        9.090823   -2.057622   -1.837634
    112          1           0       10.951062   -2.483019   -1.678990
    113          1           0        9.872063   -2.734123   -0.125979
    114          1           0       11.316617    0.905294    0.217170
    115          1           0       11.295153   -0.751061    1.034042
    116          1           0       12.683397   -1.524121   -0.535116
    117          1           0       12.505244   -0.060660   -1.595477
    118          1           0       13.753208    1.070973    0.246560
    119          1           0       13.997528   -0.631030    0.995792
    120          1           0       15.455945    0.098487   -1.395271
    121          1           0       14.766868   -2.313465   -1.267418
    122          1           0       16.465240   -1.972623   -0.828335
    123          1           0       15.320414   -2.321475    0.690421
    124          1           0       16.094477    1.297384    0.632224
    125          1           0       16.528712   -0.375329    1.173420
    126          1           0       18.064299   -0.413043   -0.740023
    127          1           0       17.481023    1.349646   -1.166200
    128          1           0       18.117674    2.382469    1.130664
    129          1           0       18.749099    0.711932    1.706014
    130          1           0       20.450396    0.467012   -0.211469
    131          1           0       19.905193    3.423591   -1.018146
    132          1           0       21.037057    2.301712   -1.502883
    133          1           0       19.567824    1.760412   -2.047084
    134          1           0       21.428208    1.353117    2.162309
    135          1           0       22.306892    2.086317    0.671842
    136          1           0       20.826100    3.181192    1.214540
    137          1           0       -7.213893    1.638179    0.299634
    138          1           0       -7.616121   -0.437666    0.024442
 ---------------------------------------------------------------------

 SCF Done:  E(RB3LYP) =  -2732.92830386     A.U. after   18 cycles

 Excitation energies and oscillator strengths:

 Excited State   1:      Singlet-A      1.9277 eV  643.18 nm  f=0.2227  <S**2>=0.000
     235 -> 237       -0.11961
     235 -> 238       -0.20709
     236 -> 237        0.65127
     236 -> 238       -0.13168
 This state for optimization and/or second-order correction.
 Total Energy, E(TD-HF/TD-DFT) =  -2732.85746310
 Copying the excited state density for this state as the 1-particle RhoCI density.

 The electronic state is 1-A.
 Alpha  occ. eigenvalues --  -19.20122 -19.18594 -19.12264 -19.11155 -19.10992
 Alpha  occ. eigenvalues --  -14.37049 -14.36972 -14.33321 -14.29701 -10.31225
 Alpha  occ. eigenvalues --  -10.31184 -10.28226 -10.26658 -10.25734 -10.24119
 Alpha  occ. eigenvalues --  -10.23755 -10.23729 -10.23630 -10.23491 -10.23013
 Alpha  occ. eigenvalues --  -10.22247 -10.22127 -10.21534 -10.21453 -10.21401
 Alpha  occ. eigenvalues --  -10.21366 -10.21350 -10.21244 -10.21018 -10.21004
 Alpha  occ. eigenvalues --  -10.20952 -10.20693 -10.20689 -10.20673 -10.20670
 Alpha  occ. eigenvalues --  -10.20636 -10.20613 -10.20550 -10.20516 -10.20380
 Alpha  occ. eigenvalues --  -10.20356 -10.20250 -10.20179 -10.20048 -10.19955
 Alpha  occ. eigenvalues --  -10.19884 -10.19648 -10.19624 -10.19572 -10.19533
 Alpha  occ. eigenvalues --  -10.19526 -10.19235 -10.19096 -10.18996 -10.18773
 Alpha  occ. eigenvalues --  -10.18274 -10.18208 -10.18016 -10.17988 -10.17909
 Alpha  occ. eigenvalues --  -10.17665 -10.17509 -10.17074 -10.16879  -1.14264
 Alpha  occ. eigenvalues --   -1.08870  -1.01206  -0.99702  -0.99396  -0.98913
 Alpha  occ. eigenvalues --   -0.97600  -0.93830  -0.92645  -0.83815  -0.83635
 Alpha  occ. eigenvalues --   -0.82841  -0.82551  -0.81586  -0.81478  -0.80601
 Alpha  occ. eigenvalues --   -0.80303  -0.79550  -0.78940  -0.78765  -0.78435
 Alpha  occ. eigenvalues --   -0.76937  -0.76310  -0.75989  -0.75140  -0.74027
 Alpha  occ. eigenvalues --   -0.73738  -0.73381  -0.72534  -0.72108  -0.70583
 Alpha  occ. eigenvalues --   -0.69507  -0.69104  -0.68440  -0.67522  -0.67296
 Alpha  occ. eigenvalues --   -0.67086  -0.66920  -0.65887  -0.65289  -0.64809
 Alpha  occ. eigenvalues --   -0.64185  -0.62546  -0.62293  -0.61864  -0.60958
 Alpha  occ. eigenvalues --   -0.60242  -0.59291  -0.58710  -0.58297  -0.57778
 Alpha  occ. eigenvalues --   -0.56605  -0.56541  -0.55880  -0.55603  -0.55316
 Alpha  occ. eigenvalues --   -0.54594  -0.54469  -0.54265  -0.54160  -0.53658
 Alpha  occ. eigenvalues --   -0.52567  -0.52054  -0.51662  -0.50975  -0.50601
 Alpha  occ. eigenvalues --   -0.50143  -0.49966  -0.49314  -0.49029  -0.48459
 Alpha  occ. eigenvalues --   -0.48259  -0.48115  -0.47936  -0.47445  -0.47314
 Alpha  occ. eigenvalues --   -0.47003  -0.46446  -0.46180  -0.46023  -0.45814
 Alpha  occ. eigenvalues --   -0.45664  -0.45343  -0.45172  -0.44885  -0.44714
 Alpha  occ. eigenvalues --   -0.44560  -0.44355  -0.44099  -0.43868  -0.43789
 Alpha  occ. eigenvalues --   -0.43337  -0.43089  -0.42784  -0.42524  -0.42399
 Alpha  occ. eigenvalues --   -0.42302  -0.42076  -0.41895  -0.41808  -0.41439
 Alpha  occ. eigenvalues --   -0.41379  -0.41037  -0.40672  -0.40570  -0.40211
 Alpha  occ. eigenvalues --   -0.40025  -0.40017  -0.39943  -0.39488  -0.39256
 Alpha  occ. eigenvalues --   -0.39237  -0.38998  -0.38907  -0.38711  -0.38308
 Alpha  occ. eigenvalues --   -0.38086  -0.37960  -0.37812  -0.37459  -0.37364
 Alpha  occ. eigenvalues --   -0.37264  -0.37030  -0.36957  -0.36814  -0.36676
 Alpha  occ. eigenvalues --   -0.36365  -0.36134  -0.35914  -0.35873  -0.35677
 Alpha  occ. eigenvalues --   -0.35585  -0.35192  -0.34946  -0.34583  -0.34562
 Alpha  occ. eigenvalues --   -0.34374  -0.34343  -0.34053  -0.34005  -0.33832
 Alpha  occ. eigenvalues --   -0.33149  -0.33016  -0.32766  -0.32469  -0.32289
 Alpha  occ. eigenvalues --   -0.32242  -0.31983  -0.31609  -0.31591  -0.31142
 Alpha  occ. eigenvalues --   -0.31063  -0.30594  -0.30522  -0.30328  -0.30197
 Alpha  occ. eigenvalues --   -0.29805  -0.28915  -0.28125  -0.28092  -0.27649
 Alpha  occ. eigenvalues --   -0.26998  -0.26757  -0.26626  -0.26181  -0.25496
 Alpha  occ. eigenvalues --   -0.25370  -0.24330  -0.23162  -0.22806  -0.20611
 Alpha  occ. eigenvalues --   -0.17953
 Alpha virt. eigenvalues --   -0.10479  -0.07816  -0.04748  -0.02187  -0.00386
 Alpha virt. eigenvalues --   -0.00225   0.00472   0.01532   0.02082   0.03266
 Alpha virt. eigenvalues --    0.03554   0.03761   0.03927   0.03982   0.04130

 Mulliken charges:
               1
     1  C    0.024379
     2  C   -0.028963
     3  C   -0.073879
     4  C   -0.022387
     5  N   -0.206053
     6  C   -0.020461
     7  C   -0.043546
     8  C   -0.120124
     9  C    0.030015
    10  C    0.050422
    11  C    0.003238
    12  C    0.113059
    13  C    0.124596
    14  O   -0.271674
    15  O   -0.193584
    16  N   -0.093454
    17  C    0.118587
    18  C   -0.172940
    19  C    0.122239
    20  C    0.062460
    21  C    0.052816
    22  C    0.080071
    23  C   -0.121566
    24  N   -0.256623
    25  C    0.142196
    26  C   -0.140504
    27  C   -0.046797
    28  C    0.052685
    29  C    0.075165
    30  C   -0.013728
    31  C   -0.010781
    32  N   -0.006357
    33  C    0.108114
    34  C   -0.092277
    35  C   -0.065182
    36  C    0.068878
    37  C   -0.012676
    38  C    0.082665
    39  O   -0.203915
    40  C   -0.038308
    41  C    0.184032
    42  O   -0.262259
    43  O   -0.295633
    44  C    0.176769
    45  C    0.206325
    46  C   -0.081068
    47  C   -0.099859
    48  C   -0.049261
    49  C    0.069364
    50  C    0.086879
    51  C   -0.019166
    52  C   -0.099765
    53  C   -0.041936
    54  C    0.035204
    55  C    0.076767
    56  C    0.064109
    57  C   -0.015457
    58  C    0.026379
    59  C    0.062848
    60  C   -0.060408
    61  C    0.016485
    62  C   -0.079430
    63  C    0.041361
    64  C   -0.096655
    65  H   -0.050873
    66  H   -0.089937
    67  H   -0.098024
    68  H   -0.003539
    69  H    0.023402
    70  H    0.021630
    71  H    0.039483
    72  H    0.048510
    73  H    0.038972
    74  H    0.023419
    75  H   -0.010442
    76  H   -0.014983
    77  H    0.041128
    78  H    0.045057
    79  H    0.038023
    80  H   -0.141428
    81  H    0.066070
    82  H    0.019549
    83  H    0.048919
    84  H    0.009934
    85  H    0.024424
    86  H    0.011977
    87  H    0.016404
    88  H    0.029080
    89  H    0.005362
    90  H    0.020202
    91  H    0.043823
    92  H    0.081624
    93  H    0.058169
    94  H    0.053055
    95  H    0.064051
    96  H    0.028582
    97  H    0.042030
    98  H    0.054389
    99  H    0.020115
   100  H   -0.009295
   101  H    0.050926
   102  H    0.035449
   103  H    0.042251
   104  H    0.006586
   105  H    0.010579
   106  H   -0.036391
   107  H   -0.011576
   108  H    0.003445
   109  H    0.016320
   110  H    0.012146
   111  H    0.024686
   112  H    0.039994
   113  H    0.033875
   114  H   -0.009320
   115  H   -0.011965
   116  H   -0.053044
   117  H   -0.016929
   118  H   -0.008359
   119  H   -0.023249
   120  H   -0.047857
   121  H    0.037801
   122  H   -0.036650
   123  H    0.000060
   124  H   -0.045801
   125  H   -0.016920
   126  H    0.016094
   127  H    0.008211
   128  H    0.031403
   129  H    0.007359
   130  H   -0.000591
   131  H    0.013374
   132  H   -0.039430
   133  H    0.020877
   134  H    0.052840
   135  H    0.016973
   136  H    0.039364
   137  H    0.182801
   138  H    0.154374
 Sum of Mulliken charges =  -0.00000

 Dipole moment (field-independent basis, Debye):
    X=              3.9963    Y=              3.0991    Z=              0.2074  Tot=              5.0615
 Quadrupole moment (field-independent basis, Debye-Ang):
   XX=           -356.9038   YY=           -384.0789   ZZ=           -398.6421
   XY=            -20.9120   XZ=              0.5718   YZ=              0.3052

 Normal termination of Gaussian 16 at Wed Aug 21 07:17:37 2019.
