 Gaussian 16, Revision A.03,
 Gaussian 16:  ES64L-G16RevA.03 25-Dec-2016

 --------------------------
 # td=(NStates=1) B3LYP/SVP
 --------------------------

 --
 TD
 --
 Symbolic Z-matrix:
 Charge =  0 Multiplicity = 1

                         Standard orientation:
 ---------------------------------------------------------------------
 Center     Atomic      Atomic             Coordinates (Angstroms)
 Number     Number       Type             X           Y           Z
 ---------------------------------------------------------------------
      1          6           0       -5.088887   -1.937999    0.385278
      2          6           0       -4.749330    2.751559    1.572412
      3          6           0       -9.317932    3.321186   -0.201935
      4          6           0       -9.790768   -1.407298   -0.898645
      5          7           0       -5.217179    0.370728    0.966267
      6          6           0       -4.532132   -0.777834    0.847114
      7          6           0       -3.022336   -0.601350    1.243859
      8          6           0       -3.055795    0.821590    1.846596
      9          6           0       -4.414571    1.389460    1.412379
     10          6           0       -2.866338    0.699349    3.447926
     11          6           0       -2.030868   -0.738594    0.118251
     12          6           0       -0.628950   -0.684234    0.452431
     13          6           0        0.315994   -0.966758   -0.786653
     14          8           0        0.064195   -1.233247   -1.929412
     15          8           0        1.621909   -0.689954   -0.345431
     16          7           0       -7.036836    2.780651    0.550683
     17          6           0       -5.953052    3.330818    1.117169
     18          6           0       -6.155228    4.805290    0.999206
     19          6           0       -7.385195    5.007643    0.468003
     20          6           0       -8.061001    3.608378    0.233815
     21          6           0       -5.157725    5.775059    1.562804
     22          6           0       -8.016919    6.244860    0.316470
     23          6           0       -8.886199    6.743183   -0.715158
     24          7           0       -9.169765    0.943376   -0.483484
     25          6           0       -9.886323    2.093630   -0.459840
     26          6           0      -11.323374    1.873516   -0.886334
     27          6           0      -11.406820    0.490135   -1.062224
     28          6           0      -10.058006   -0.038477   -0.847159
     29          6           0      -12.263425    2.952690   -1.020821
     30          6           0      -12.649241   -0.266080   -1.422245
     31          6           0      -12.798474   -0.386212   -2.958014
     32          7           0       -7.390058   -1.322704   -0.429433
     33          6           0       -8.529061   -1.994351   -0.734223
     34          6           0       -8.185143   -3.427689   -0.604986
     35          6           0       -6.801421   -3.467433   -0.214082
     36          6           0       -6.379002   -2.162138   -0.042667
     37          6           0       -9.064715   -4.610971   -0.825808
     38          6           0       -5.636911   -4.360572   -0.037290
     39          8           0       -5.562268   -5.561049   -0.075155
     40          6           0       -4.442360   -3.348564    0.449277
     41          6           0       -3.847856   -3.885168    1.828344
     42          8           0       -4.033912   -3.352366    2.863789
     43          8           0       -3.067142   -4.984020    1.511997
     44          6           0       -2.505693   -5.627227    2.637811
     45          6           0        2.655018   -0.955849   -1.319304
     46          6           0        3.960617   -0.553068   -0.767100
     47          6           0        4.990328    0.115255   -1.336179
     48          6           0        4.909165    0.814359   -2.604464
     49          6           0        6.209909    0.326199   -0.574534
     50          6           0        7.490728   -0.283753   -1.177603
     51          6           0        8.748937   -0.226974   -0.228523
     52          6           0       10.021709   -0.666744   -0.870352
     53          6           0        9.838858   -2.151205   -1.080129
     54          6           0       11.244565   -0.337842   -0.040913
     55          6           0       12.630000   -0.452098   -0.619969
     56          6           0       13.729206   -0.175761    0.390518
     57          6           0       15.140223   -0.282894   -0.234297
     58          6           0       15.521780   -1.650181   -0.586716
     59          6           0       16.150363    0.531204    0.557640
     60          6           0       17.595930    0.559794   -0.046189
     61          6           0       18.453208    1.661153    0.703313
     62          6           0       19.879463    1.716131    0.278059
     63          6           0       20.262134    2.025931   -1.162983
     64          6           0       20.764582    2.514252    1.365016
     65          1           0       -4.034419    3.412481    1.942887
     66          1           0       -9.752432    4.381097   -0.260752
     67          1           0      -10.706354   -2.038956   -1.115222
     68          1           0       -2.809615   -1.126454    2.161546
     69          1           0       -2.432115    1.561511    1.343234
     70          1           0       -1.779766    0.218529    3.628045
     71          1           0       -2.959315    1.658029    3.981431
     72          1           0       -3.701412   -0.067958    3.434708
     73          1           0       -2.012081   -1.761216   -0.424884
     74          1           0       -2.256897    0.121019   -0.690118
     75          1           0       -0.288103    0.271436    1.039336
     76          1           0       -0.181021   -1.555106    1.124520
     77          1           0       -4.033991    5.615851    1.305926
     78          1           0       -5.587671    6.697380    1.345795
     79          1           0       -5.252695    5.753465    2.824445
     80          1           0       -7.694646    7.158822    1.239164
     81          1           0       -9.203138    6.282627   -1.501871
     82          1           0       -9.320121    7.731106   -0.754027
     83          1           0      -12.095951    3.812909   -0.200305
     84          1           0      -12.133918    3.622740   -1.729934
     85          1           0      -13.361509    2.590019   -1.153493
     86          1           0      -12.664487   -1.213111   -0.870156
     87          1           0      -13.445433    0.387657   -1.021512
     88          1           0      -12.639062    0.635491   -3.438610
     89          1           0      -11.989530   -1.061769   -3.479635
     90          1           0      -13.649133   -0.926710   -3.334301
     91          1           0       -9.795233   -4.794386    0.106965
     92          1           0       -9.690627   -4.344113   -1.814334
     93          1           0       -8.255306   -5.481480   -0.920522
     94          1           0       -3.568713   -3.367896   -0.295544
     95          1           0       -1.897315   -6.540553    2.243545
     96          1           0       -1.753430   -5.196247    3.065057
     97          1           0       -3.260641   -6.016641    3.313228
     98          1           0        2.547129   -2.075780   -1.599408
     99          1           0        2.490032   -0.248832   -2.153168
    100          1           0        4.189898   -1.119370    0.293238
    101          1           0        5.129622    1.790694   -2.542476
    102          1           0        5.480243    0.577256   -3.466586
    103          1           0        3.813369    0.703773   -3.236218
    104          1           0        6.518786    1.360728   -0.624799
    105          1           0        6.145100    0.000194    0.472700
    106          1           0        7.432486   -1.429740   -1.239930
    107          1           0        7.800703    0.248725   -2.097593
    108          1           0        9.044424    0.923076    0.167063
    109          1           0        8.574362   -0.654270    0.665986
    110          1           0       10.082433   -0.088172   -1.981723
    111          1           0        8.924144   -2.418680   -1.710731
    112          1           0       10.841231   -2.628227   -1.705987
    113          1           0        9.908777   -2.730099    0.059320
    114          1           0       11.208712    0.753913    0.201749
    115          1           0       11.243962   -0.598715    1.067144
    116          1           0       12.637882   -1.446138   -1.136790
    117          1           0       12.644454    0.277087   -1.409127
    118          1           0       13.705435    0.956679    0.836591
    119          1           0       13.497016   -0.786095    1.431283
    120          1           0       15.176257    0.050768   -1.294728
    121          1           0       14.740245   -2.197864   -1.162059
    122          1           0       16.226027   -1.669977   -1.405274
    123          1           0       15.747822   -2.134441    0.352848
    124          1           0       15.766154    1.512689    0.591672
    125          1           0       16.200119    0.198831    1.489149
    126          1           0       18.195787   -0.556150   -0.070397
    127          1           0       17.705112    0.824035   -1.171217
    128          1           0       18.035156    2.442062    0.693939
    129          1           0       18.465568    1.487499    1.826880
    130          1           0       20.224862    0.641412    0.598885
    131          1           0       20.194793    3.082432   -1.406722
    132          1           0       21.483758    1.990552   -1.327473
    133          1           0       19.777358    1.599877   -1.928605
    134          1           0       20.529094    2.115575    2.447200
    135          1           0       21.951489    2.303433    1.000624
    136          1           0       20.648873    3.698094    1.475388
    137          1           0       -7.458202    1.756317    0.538006
    138          1           0       -7.479782   -0.255819   -0.265909
 ---------------------------------------------------------------------

 SCF Done:  E(RB3LYP) =  -2732.99237958     A.U. after   16 cycles

 Excitation energies and oscillator strengths:

 Excited State   1:      Singlet-A      2.0713 eV  598.57 nm  f=0.1917  <S**2>=0.000
     235 -> 238       -0.30380
     236 -> 237        0.63412
 This state for optimization and/or second-order correction.
 Total Energy, E(TD-HF/TD-DFT) =  -2732.91625959
 Copying the excited state density for this state as the 1-particle RhoCI density.

 The electronic state is 1-A.
 Alpha  occ. eigenvalues --  -19.18082 -19.16343 -19.13854 -19.13582 -19.12443
 Alpha  occ. eigenvalues --  -14.37786 -14.36750 -14.31915 -14.30858 -10.32264
 Alpha  occ. eigenvalues --  -10.31860 -10.28136 -10.24568 -10.24486 -10.24063
 Alpha  occ. eigenvalues --  -10.23632 -10.23536 -10.23323 -10.23037 -10.22684
 Alpha  occ. eigenvalues --  -10.22630 -10.21941 -10.21765 -10.21744 -10.21735
 Alpha  occ. eigenvalues --  -10.21726 -10.21680 -10.21454 -10.21142 -10.20950
 Alpha  occ. eigenvalues --  -10.20882 -10.20823 -10.20717 -10.20703 -10.20580
 Alpha  occ. eigenvalues --  -10.20444 -10.20393 -10.20319 -10.20198 -10.20015
 Alpha  occ. eigenvalues --  -10.19967 -10.19852 -10.19851 -10.19803 -10.19718
 Alpha  occ. eigenvalues --  -10.19642 -10.19576 -10.19566 -10.19504 -10.19336
 Alpha  occ. eigenvalues --  -10.19325 -10.19179 -10.19097 -10.18750 -10.18719
 Alpha  occ. eigenvalues --  -10.18706 -10.18578 -10.18169 -10.18119 -10.18009
 Alpha  occ. eigenvalues --  -10.18000 -10.17045 -10.16713 -10.16369  -1.09559
 Alpha  occ. eigenvalues --   -1.08057  -1.03175  -1.02767  -1.00457  -0.98837
 Alpha  occ. eigenvalues --   -0.98139  -0.93824  -0.93447  -0.84464  -0.83672
 Alpha  occ. eigenvalues --   -0.82614  -0.82271  -0.81770  -0.81578  -0.81303
 Alpha  occ. eigenvalues --   -0.80039  -0.79872  -0.79317  -0.79005  -0.77402
 Alpha  occ. eigenvalues --   -0.76837  -0.75815  -0.75521  -0.74756  -0.74706
 Alpha  occ. eigenvalues --   -0.73660  -0.73221  -0.72634  -0.72214  -0.70165
 Alpha  occ. eigenvalues --   -0.69513  -0.69360  -0.68827  -0.68399  -0.68111
 Alpha  occ. eigenvalues --   -0.67587  -0.66638  -0.65775  -0.65710  -0.64947
 Alpha  occ. eigenvalues --   -0.64394  -0.63350  -0.62262  -0.62113  -0.61884
 Alpha  occ. eigenvalues --   -0.60520  -0.59308  -0.58876  -0.58298  -0.57561
 Alpha  occ. eigenvalues --   -0.56913  -0.56359  -0.56072  -0.55360  -0.55348
 Alpha  occ. eigenvalues --   -0.54380  -0.54263  -0.53855  -0.53358  -0.53061
 Alpha  occ. eigenvalues --   -0.52949  -0.52113  -0.50791  -0.50559  -0.50050
 Alpha  occ. eigenvalues --   -0.49926  -0.49527  -0.49503  -0.48617  -0.48453
 Alpha  occ. eigenvalues --   -0.48268  -0.47868  -0.47580  -0.47405  -0.47061
 Alpha  occ. eigenvalues --   -0.46807  -0.46495  -0.46211  -0.46140  -0.45634
 Alpha  occ. eigenvalues --   -0.45559  -0.45253  -0.45034  -0.44980  -0.44638
 Alpha  occ. eigenvalues --   -0.44541  -0.44268  -0.44109  -0.43823  -0.43556
 Alpha  occ. eigenvalues --   -0.43504  -0.43449  -0.43030  -0.42921  -0.42620
 Alpha  occ. eigenvalues --   -0.42479  -0.42291  -0.42111  -0.41962  -0.41438
 Alpha  occ. eigenvalues --   -0.41276  -0.40957  -0.40735  -0.40525  -0.40171
 Alpha  occ. eigenvalues --   -0.40139  -0.40106  -0.39990  -0.39709  -0.39541
 Alpha  occ. eigenvalues --   -0.39332  -0.39205  -0.38673  -0.38518  -0.38387
 Alpha  occ. eigenvalues --   -0.38296  -0.38225  -0.37823  -0.37744  -0.37476
 Alpha  occ. eigenvalues --   -0.37330  -0.37229  -0.37104  -0.36878  -0.36853
 Alpha  occ. eigenvalues --   -0.36625  -0.35932  -0.35757  -0.35645  -0.35402
 Alpha  occ. eigenvalues --   -0.35308  -0.35135  -0.35083  -0.34834  -0.34703
 Alpha  occ. eigenvalues --   -0.34638  -0.34419  -0.34313  -0.34132  -0.34056
 Alpha  occ. eigenvalues --   -0.33413  -0.33218  -0.33101  -0.32950  -0.32435
 Alpha  occ. eigenvalues --   -0.32294  -0.31790  -0.31645  -0.31483  -0.31300
 Alpha  occ. eigenvalues --   -0.31188  -0.30352  -0.30180  -0.29967  -0.29808
 Alpha  occ. eigenvalues --   -0.29576  -0.29497  -0.29106  -0.28713  -0.28383
 Alpha  occ. eigenvalues --   -0.27977  -0.27581  -0.27024  -0.25783  -0.25369
 Alpha  occ. eigenvalues --   -0.24797  -0.24665  -0.23870  -0.22659  -0.20100
 Alpha  occ. eigenvalues --   -0.18827
 Alpha virt. eigenvalues --   -0.10111  -0.07913  -0.04696  -0.02976  -0.00763
 Alpha virt. eigenvalues --   -0.00043   0.00236   0.00628   0.02292   0.02739
 Alpha virt. eigenvalues --    0.03344   0.03462   0.03916   0.04191   0.04358

 Mulliken charges:
               1
     1  C    0.074663
     2  C   -0.034210
     3  C   -0.044437
     4  C   -0.106364
     5  N   -0.161444
     6  C   -0.121109
     7  C    0.046274
     8  C   -0.077790
     9  C   -0.012318
    10  C    0.002817
    11  C    0.070140
    12  C   -0.072691
    13  C    0.193412
    14  O   -0.204812
    15  O   -0.366566
    16  N   -0.051580
    17  C    0.113184
    18  C   -0.142013
    19  C    0.100438
    20  C   -0.054918
    21  C    0.065417
    22  C   -0.179375
    23  C    0.013502
    24  N   -0.259857
    25  C    0.106747
    26  C   -0.091133
    27  C   -0.148389
    28  C    0.074003
    29  C    0.133176
    30  C    0.095096
    31  C   -0.009734
    32  N   -0.060929
    33  C    0.094441
    34  C   -0.152402
    35  C    0.004416
    36  C    0.051651
    37  C   -0.017175
    38  C    0.075838
    39  O   -0.152993
    40  C   -0.111977
    41  C    0.221655
    42  O   -0.176198
    43  O   -0.312863
    44  C    0.237156
    45  C    0.290846
    46  C   -0.166230
    47  C   -0.035362
    48  C    0.059960
    49  C    0.125151
    50  C   -0.021156
    51  C    0.004541
    52  C   -0.045995
    53  C   -0.074817
    54  C    0.002315
    55  C    0.090261
    56  C   -0.042132
    57  C   -0.076122
    58  C    0.073083
    59  C    0.169981
    60  C   -0.085736
    61  C    0.175142
    62  C   -0.080507
    63  C    0.070417
    64  C   -0.098749
    65  H   -0.055176
    66  H   -0.011552
    67  H   -0.002573
    68  H   -0.011351
    69  H   -0.012978
    70  H    0.044602
    71  H    0.030051
    72  H    0.062384
    73  H    0.030491
    74  H    0.036246
    75  H    0.051948
    76  H    0.042568
    77  H    0.061125
    78  H   -0.004118
    79  H    0.043263
    80  H    0.049442
    81  H   -0.024411
    82  H    0.025510
    83  H    0.014978
    84  H   -0.035137
    85  H    0.023775
    86  H    0.006500
    87  H    0.004743
    88  H    0.027273
    89  H    0.010161
    90  H    0.009516
    91  H    0.063032
    92  H    0.052282
    93  H    0.074693
    94  H    0.068033
    95  H    0.020270
    96  H   -0.023420
    97  H    0.031737
    98  H    0.040792
    99  H    0.004359
   100  H    0.011073
   101  H   -0.015340
   102  H    0.009119
   103  H    0.020070
   104  H   -0.010519
   105  H   -0.005222
   106  H    0.018959
   107  H    0.006828
   108  H   -0.015758
   109  H   -0.040791
   110  H    0.009893
   111  H    0.043264
   112  H    0.021690
   113  H    0.032076
   114  H   -0.029185
   115  H   -0.015134
   116  H   -0.001140
   117  H   -0.016849
   118  H    0.002033
   119  H    0.014830
   120  H   -0.026907
   121  H   -0.010945
   122  H   -0.005271
   123  H   -0.004249
   124  H   -0.018483
   125  H   -0.043369
   126  H    0.018330
   127  H    0.006737
   128  H   -0.122582
   129  H   -0.022413
   130  H    0.008743
   131  H   -0.009575
   132  H    0.011666
   133  H   -0.012831
   134  H    0.031031
   135  H    0.030979
   136  H    0.026199
   137  H    0.195521
   138  H    0.172823
 Sum of Mulliken charges =  -0.00000

 Dipole moment (field-independent basis, Debye):
    X=              1.2511    Y=              4.6638    Z=              0.5817  Tot=              4.8636
 Quadrupole moment (field-independent basis, Debye-Ang):
   XX=           -366.9719   YY=           -384.7984   ZZ=           -394.2453
   XY=            -18.8502   XZ=              2.0081   YZ=             -5.3410

 Normal termination of Gaussian 16 at Mon Aug 12 18:55:04 2019.
