 Gaussian 16, Revision A.03,
 Gaussian 16:  ES64L-G16RevA.03 25-Dec-2016

 --------------------------
 # td=(NStates=1) B3LYP/SVP
 --------------------------

 --
 TD
 --
 Symbolic Z-matrix:
 Charge =  0 Multiplicity = 1

                         Standard orientation:
 ---------------------------------------------------------------------
 Center     Atomic      Atomic             Coordinates (Angstroms)
 Number     Number       Type             X           Y           Z
 ---------------------------------------------------------------------
      1          6           0       -5.018251   -1.927556    0.479868
      2          6           0       -4.985292    2.739682    1.382917
      3          6           0       -9.552399    3.232432   -0.205275
      4          6           0       -9.849789   -1.575539   -0.930722
      5          7           0       -5.176077    0.435268    0.700678
      6          6           0       -4.482276   -0.747042    0.832857
      7          6           0       -3.050047   -0.481600    1.193124
      8          6           0       -3.202473    0.909960    1.842319
      9          6           0       -4.523301    1.386084    1.343738
     10          6           0       -3.081775    1.044036    3.354987
     11          6           0       -2.008741   -0.617024    0.056231
     12          6           0       -0.531242   -0.422347    0.456979
     13          6           0        0.502418   -0.775667   -0.576226
     14          8           0        0.212254   -1.162679   -1.705472
     15          8           0        1.758047   -0.621412   -0.185887
     16          7           0       -7.243186    2.761225    0.496042
     17          6           0       -6.089005    3.364947    0.968139
     18          6           0       -6.427096    4.716834    1.068907
     19          6           0       -7.814514    4.936558    0.643060
     20          6           0       -8.251392    3.628611    0.192941
     21          6           0       -5.478950    5.864993    1.536439
     22          6           0       -8.402954    6.224728    0.418008
     23          6           0       -9.273193    6.393541   -0.583367
     24          7           0       -9.306364    0.675239   -0.391174
     25          6           0       -9.945716    1.908802   -0.490159
     26          6           0      -11.270574    1.698766   -0.969134
     27          6           0      -11.419366    0.385101   -1.151842
     28          6           0      -10.171344   -0.182392   -0.864561
     29          6           0      -12.405916    2.755404   -1.354102
     30          6           0      -12.579079   -0.423188   -1.716109
     31          6           0      -12.531919   -0.841863   -3.366564
     32          7           0       -7.384928   -1.340473   -0.088776
     33          6           0       -8.593712   -2.132121   -0.516146
     34          6           0       -8.127001   -3.535634   -0.613663
     35          6           0       -6.726164   -3.468030   -0.181747
     36          6           0       -6.374455   -2.168710    0.109734
     37          6           0       -8.974923   -4.691876   -0.944423
     38          6           0       -5.539800   -4.269536   -0.042254
     39          8           0       -5.414059   -5.467260    0.025699
     40          6           0       -4.307748   -3.348668    0.556323
     41          6           0       -3.756878   -3.789810    1.787019
     42          8           0       -4.228031   -3.387667    2.890339
     43          8           0       -2.898886   -4.732619    1.666120
     44          6           0       -2.357808   -5.404703    2.787163
     45          6           0        2.686586   -0.799986   -1.347878
     46          6           0        4.045630   -0.501664   -0.743454
     47          6           0        4.948464    0.339925   -1.123569
     48          6           0        4.899180    1.183916   -2.300208
     49          6           0        6.347349    0.318615   -0.258473
     50          6           0        7.516172   -0.327332   -0.959657
     51          6           0        8.739961   -0.066363   -0.141855
     52          6           0       10.006309   -0.641470   -0.749149
     53          6           0       10.001713   -2.167036   -1.084386
     54          6           0       11.364035   -0.192305    0.018585
     55          6           0       12.687621   -0.401043   -0.748596
     56          6           0       13.860613    0.028575    0.181134
     57          6           0       15.257007   -0.107218   -0.656251
     58          6           0       15.445025   -1.585173   -0.718267
     59          6           0       16.382249    0.495621    0.320249
     60          6           0       17.793280    0.571029   -0.227403
     61          6           0       18.721966    1.341404    0.708566
     62          6           0       20.186143    1.418104    0.274924
     63          6           0       20.247921    2.177334   -1.107439
     64          6           0       21.021746    2.117013    1.321779
     65          1           0       -4.466343    3.434695    1.894999
     66          1           0      -10.249177    4.059267   -0.161242
     67          1           0      -10.640767   -2.556389   -0.859439
     68          1           0       -2.376742   -1.110670    1.837436
     69          1           0       -2.571683    1.716894    1.095970
     70          1           0       -2.077311    0.963778    3.721408
     71          1           0       -3.513553    2.050343    3.609184
     72          1           0       -3.822115    0.210974    3.798351
     73          1           0       -2.140592   -1.570124   -0.373395
     74          1           0       -2.282143    0.065787   -1.073355
     75          1           0       -0.198159    0.649247    0.774589
     76          1           0       -0.308134   -1.072121    1.227269
     77          1           0       -4.474867    5.865839    1.162166
     78          1           0       -5.922824    6.830097    1.341685
     79          1           0       -5.477941    5.948807    2.612429
     80          1           0       -7.927450    7.076407    1.040765
     81          1           0       -9.480694    5.651429   -1.235026
     82          1           0       -9.786001    7.187068   -0.771153
     83          1           0      -12.673589    3.489855   -0.389387
     84          1           0      -12.134734    3.486690   -2.133533
     85          1           0      -13.301604    2.295997   -1.612743
     86          1           0      -12.618418   -1.258800   -0.950077
     87          1           0      -13.369658   -0.028576   -1.653583
     88          1           0      -12.523787    0.172360   -3.916579
     89          1           0      -11.826116   -1.594597   -3.466709
     90          1           0      -13.572044   -1.263169   -3.724870
     91          1           0       -9.768906   -4.725754   -0.088969
     92          1           0       -9.670440   -4.752840   -1.877941
     93          1           0       -8.297927   -5.561294   -0.879764
     94          1           0       -3.442932   -3.324685   -0.355139
     95          1           0       -1.663662   -6.095863    2.314091
     96          1           0       -1.938447   -4.705045    3.555141
     97          1           0       -3.186848   -5.821603    3.240551
     98          1           0        2.612443   -1.923338   -1.478797
     99          1           0        2.428583   -0.055498   -2.208160
    100          1           0        3.938531   -0.885785    0.268940
    101          1           0        5.120498    2.197068   -2.140974
    102          1           0        5.671010    0.731579   -3.040452
    103          1           0        3.788760    1.245219   -2.872428
    104          1           0        6.523512    1.545147   -0.325510
    105          1           0        6.344868   -0.198575    0.742780
    106          1           0        7.536931   -1.435180   -1.084693
    107          1           0        7.777126    0.219580   -1.944068
    108          1           0        8.740462    0.989994    0.092801
    109          1           0        8.687069   -0.582004    0.835784
    110          1           0       10.173235   -0.123787   -1.878645
    111          1           0        9.081390   -2.367147   -1.693166
    112          1           0       10.704403   -2.522774   -1.739770
    113          1           0        9.966954   -2.833430   -0.019365
    114          1           0       10.878909    0.822987    0.372796
    115          1           0       11.524170   -0.913915    0.960384
    116          1           0       12.552954   -1.464026   -0.945487
    117          1           0       12.760926    0.340190   -1.601688
    118          1           0       13.638157    1.135863    0.527636
    119          1           0       14.067077   -0.437989    1.184298
    120          1           0       15.165526    0.194187   -1.571135
    121          1           0       14.506111   -2.429040   -0.774844
    122          1           0       16.389506   -1.936667   -1.309891
    123          1           0       15.850962   -1.970073    0.510859
    124          1           0       15.982305    1.550768    0.753821
    125          1           0       16.315504   -0.187658    1.273416
    126          1           0       18.174616   -0.562431   -0.514010
    127          1           0       17.698407    1.150657   -1.169744
    128          1           0       18.333621    2.292480    0.851466
    129          1           0       18.612755    0.810458    1.839680
    130          1           0       20.729488    0.413280    0.108061
    131          1           0       20.114794    3.370396   -1.063451
    132          1           0       21.533205    2.247885   -1.233922
    133          1           0       19.788532    1.558870   -1.912215
    134          1           0       20.786501    1.450566    2.290883
    135          1           0       22.193576    1.909588    0.927002
    136          1           0       20.702856    3.099361    1.397771
    137          1           0       -7.317678    1.786370    0.696419
    138          1           0       -7.371440   -0.227593   -0.337990
 ---------------------------------------------------------------------

 SCF Done:  E(RB3LYP) =  -2732.90508872     A.U. after   17 cycles

 Excitation energies and oscillator strengths:

 Excited State   1:      Singlet-A      1.9874 eV  623.85 nm  f=0.1826  <S**2>=0.000
     235 -> 237       -0.20086
     235 -> 238        0.21908
     236 -> 237        0.61529
     236 -> 238        0.17190
 This state for optimization and/or second-order correction.
 Total Energy, E(TD-HF/TD-DFT) =  -2732.83205255
 Copying the excited state density for this state as the 1-particle RhoCI density.

 The electronic state is 1-A.
 Alpha  occ. eigenvalues --  -19.18158 -19.17975 -19.11765 -19.11131 -19.10131
 Alpha  occ. eigenvalues --  -14.36700 -14.35898 -14.31993 -14.29468 -10.30892
 Alpha  occ. eigenvalues --  -10.30427 -10.27712 -10.25623 -10.24399 -10.24028
 Alpha  occ. eigenvalues --  -10.23726 -10.23155 -10.22985 -10.22903 -10.22862
 Alpha  occ. eigenvalues --  -10.22431 -10.22142 -10.21687 -10.21496 -10.21216
 Alpha  occ. eigenvalues --  -10.21200 -10.21199 -10.21139 -10.21134 -10.21007
 Alpha  occ. eigenvalues --  -10.20890 -10.20868 -10.20860 -10.20758 -10.20708
 Alpha  occ. eigenvalues --  -10.20694 -10.20637 -10.20608 -10.20123 -10.20093
 Alpha  occ. eigenvalues --  -10.20088 -10.20071 -10.19999 -10.19983 -10.19780
 Alpha  occ. eigenvalues --  -10.19774 -10.19614 -10.19614 -10.19531 -10.19530
 Alpha  occ. eigenvalues --  -10.19406 -10.19317 -10.19298 -10.19288 -10.19096
 Alpha  occ. eigenvalues --  -10.18893 -10.18796 -10.18355 -10.18213 -10.17927
 Alpha  occ. eigenvalues --  -10.17788 -10.17769 -10.17636 -10.17003  -1.11121
 Alpha  occ. eigenvalues --   -1.09522  -1.02777  -0.98943  -0.98090  -0.97361
 Alpha  occ. eigenvalues --   -0.96245  -0.95203  -0.94645  -0.83410  -0.82908
 Alpha  occ. eigenvalues --   -0.81996  -0.81588  -0.81360  -0.81207  -0.80823
 Alpha  occ. eigenvalues --   -0.79904  -0.79837  -0.78885  -0.78499  -0.77638
 Alpha  occ. eigenvalues --   -0.77149  -0.76705  -0.76308  -0.74891  -0.74340
 Alpha  occ. eigenvalues --   -0.74014  -0.73309  -0.72229  -0.71969  -0.70924
 Alpha  occ. eigenvalues --   -0.70737  -0.69157  -0.68682  -0.67805  -0.67523
 Alpha  occ. eigenvalues --   -0.66189  -0.65960  -0.65733  -0.64990  -0.64678
 Alpha  occ. eigenvalues --   -0.64489  -0.63654  -0.62914  -0.62384  -0.61418
 Alpha  occ. eigenvalues --   -0.60306  -0.58463  -0.57926  -0.57632  -0.56794
 Alpha  occ. eigenvalues --   -0.56677  -0.56598  -0.55858  -0.55316  -0.54975
 Alpha  occ. eigenvalues --   -0.54405  -0.54385  -0.53939  -0.53633  -0.53227
 Alpha  occ. eigenvalues --   -0.52556  -0.52165  -0.51181  -0.50974  -0.50370
 Alpha  occ. eigenvalues --   -0.49762  -0.49503  -0.49123  -0.48939  -0.48395
 Alpha  occ. eigenvalues --   -0.47788  -0.47556  -0.47460  -0.47273  -0.47028
 Alpha  occ. eigenvalues --   -0.46829  -0.46261  -0.46200  -0.45834  -0.45536
 Alpha  occ. eigenvalues --   -0.45384  -0.45028  -0.44938  -0.44724  -0.44101
 Alpha  occ. eigenvalues --   -0.43993  -0.43895  -0.43866  -0.43848  -0.43544
 Alpha  occ. eigenvalues --   -0.43117  -0.42787  -0.42740  -0.42442  -0.42387
 Alpha  occ. eigenvalues --   -0.42313  -0.42029  -0.41752  -0.41653  -0.41476
 Alpha  occ. eigenvalues --   -0.41412  -0.41268  -0.40630  -0.40413  -0.40229
 Alpha  occ. eigenvalues --   -0.40150  -0.39793  -0.39786  -0.39369  -0.38986
 Alpha  occ. eigenvalues --   -0.38817  -0.38695  -0.38415  -0.38327  -0.38120
 Alpha  occ. eigenvalues --   -0.38071  -0.37759  -0.37645  -0.37541  -0.37416
 Alpha  occ. eigenvalues --   -0.37211  -0.37097  -0.37018  -0.36812  -0.36667
 Alpha  occ. eigenvalues --   -0.36455  -0.36399  -0.36063  -0.35907  -0.35672
 Alpha  occ. eigenvalues --   -0.35597  -0.35006  -0.34973  -0.34790  -0.34636
 Alpha  occ. eigenvalues --   -0.34511  -0.34327  -0.34025  -0.33722  -0.33568
 Alpha  occ. eigenvalues --   -0.33291  -0.33084  -0.32873  -0.32352  -0.32300
 Alpha  occ. eigenvalues --   -0.31970  -0.31786  -0.31762  -0.31201  -0.31083
 Alpha  occ. eigenvalues --   -0.30849  -0.30330  -0.30039  -0.29927  -0.29452
 Alpha  occ. eigenvalues --   -0.29341  -0.29185  -0.28185  -0.27623  -0.27511
 Alpha  occ. eigenvalues --   -0.26696  -0.26494  -0.25987  -0.25829  -0.25311
 Alpha  occ. eigenvalues --   -0.25231  -0.24140  -0.23307  -0.22761  -0.20468
 Alpha  occ. eigenvalues --   -0.18629
 Alpha virt. eigenvalues --   -0.10752  -0.08090  -0.04317  -0.02204  -0.00590
 Alpha virt. eigenvalues --    0.00307   0.00728   0.01092   0.01929   0.02980
 Alpha virt. eigenvalues --    0.03068   0.03789   0.03927   0.04070   0.04231

 Mulliken charges:
               1
     1  C    0.033276
     2  C   -0.023439
     3  C   -0.122153
     4  C   -0.100632
     5  N   -0.162140
     6  C   -0.018548
     7  C   -0.016680
     8  C   -0.077502
     9  C   -0.024774
    10  C    0.082955
    11  C    0.007011
    12  C    0.094578
    13  C    0.133138
    14  O   -0.266151
    15  O   -0.323590
    16  N   -0.063084
    17  C    0.093578
    18  C   -0.142368
    19  C    0.015830
    20  C    0.058437
    21  C    0.137927
    22  C   -0.055545
    23  C    0.078092
    24  N   -0.205589
    25  C    0.125981
    26  C   -0.128067
    27  C   -0.102147
    28  C    0.042973
    29  C    0.074367
    30  C    0.215847
    31  C   -0.029733
    32  N   -0.135397
    33  C    0.032664
    34  C   -0.085062
    35  C    0.014401
    36  C    0.074066
    37  C    0.017941
    38  C    0.039825
    39  O   -0.172143
    40  C   -0.108415
    41  C    0.209857
    42  O   -0.304310
    43  O   -0.241220
    44  C    0.226556
    45  C    0.256230
    46  C   -0.114480
    47  C   -0.075612
    48  C    0.021080
    49  C    0.016458
    50  C    0.006178
    51  C    0.044953
    52  C   -0.137595
    53  C    0.022111
    54  C   -0.042298
    55  C    0.083552
    56  C   -0.044990
    57  C    0.060244
    58  C   -0.124227
    59  C   -0.049016
    60  C    0.040366
    61  C    0.027698
    62  C   -0.096030
    63  C   -0.072747
    64  C    0.010064
    65  H   -0.087512
    66  H   -0.015466
    67  H    0.050155
    68  H   -0.005734
    69  H    0.030351
    70  H    0.019004
    71  H    0.016923
    72  H    0.055365
    73  H   -0.009751
    74  H    0.019320
    75  H    0.049145
    76  H   -0.003956
    77  H    0.027100
    78  H   -0.013080
    79  H    0.009823
    80  H    0.020171
    81  H   -0.000613
    82  H   -0.034702
    83  H    0.024224
    84  H    0.022714
    85  H   -0.004104
    86  H    0.000821
    87  H   -0.133104
    88  H    0.038532
    89  H    0.022735
    90  H    0.017860
    91  H    0.049697
    92  H    0.052208
    93  H    0.048221
    94  H    0.078874
    95  H    0.042489
    96  H    0.031823
    97  H    0.011902
    98  H    0.036358
    99  H    0.052807
   100  H   -0.001421
   101  H    0.014362
   102  H    0.048454
   103  H    0.031840
   104  H    0.016709
   105  H    0.017441
   106  H    0.017444
   107  H    0.002454
   108  H   -0.010680
   109  H   -0.011257
   110  H   -0.007974
   111  H    0.003667
   112  H   -0.001392
   113  H    0.024979
   114  H    0.010852
   115  H    0.003406
   116  H    0.013771
   117  H    0.014781
   118  H    0.005339
   119  H    0.002239
   120  H   -0.054517
   121  H    0.052534
   122  H    0.032945
   123  H   -0.005702
   124  H    0.008187
   125  H    0.011840
   126  H    0.021289
   127  H    0.002541
   128  H   -0.026542
   129  H    0.000034
   130  H    0.010679
   131  H    0.034953
   132  H    0.003482
   133  H    0.048187
   134  H    0.028052
   135  H    0.033435
   136  H    0.000431
   137  H    0.135410
   138  H    0.214593
 Sum of Mulliken charges =  -0.00000

 Dipole moment (field-independent basis, Debye):
    X=              2.5794    Y=              4.4495    Z=              0.1730  Tot=              5.1460
 Quadrupole moment (field-independent basis, Debye-Ang):
   XX=           -367.7028   YY=           -376.4359   ZZ=           -398.5345
   XY=            -20.7909   XZ=              5.1421   YZ=             -0.1659

 Normal termination of Gaussian 16 at Mon Aug 19 16:18:06 2019.
