 Gaussian 16, Revision A.03,
 Gaussian 16:  ES64L-G16RevA.03 25-Dec-2016

 --------------------------
 # td=(NStates=1) B3LYP/SVP
 --------------------------

 --
 TD
 --
 Symbolic Z-matrix:
 Charge =  0 Multiplicity = 1

                         Standard orientation:
 ---------------------------------------------------------------------
 Center     Atomic      Atomic             Coordinates (Angstroms)
 Number     Number       Type             X           Y           Z
 ---------------------------------------------------------------------
      1          6           0       -5.171144   -1.929349    0.503774
      2          6           0       -4.728845    2.739032    1.347494
      3          6           0       -9.352961    3.305757   -0.283533
      4          6           0       -9.835472   -1.433540   -1.093852
      5          7           0       -5.161978    0.418130    0.765447
      6          6           0       -4.535102   -0.768095    0.836184
      7          6           0       -3.032556   -0.636754    1.286490
      8          6           0       -3.091709    0.906318    1.845964
      9          6           0       -4.366803    1.393412    1.370596
     10          6           0       -2.950460    0.960836    3.382776
     11          6           0       -2.060498   -0.845935    0.139576
     12          6           0       -0.570803   -0.851157    0.678255
     13          6           0        0.463515   -1.272962   -0.354491
     14          8           0        0.180117   -1.761279   -1.367929
     15          8           0        1.755097   -0.859868   -0.063410
     16          7           0       -7.030263    2.722364    0.384050
     17          6           0       -5.868328    3.435312    0.899511
     18          6           0       -6.261831    4.763140    1.014269
     19          6           0       -7.546933    4.933925    0.567936
     20          6           0       -8.077268    3.657304    0.203729
     21          6           0       -5.297264    5.902327    1.512611
     22          6           0       -8.140780    6.201744    0.385598
     23          6           0       -9.092900    6.673736   -0.619488
     24          7           0       -9.271132    0.821392   -0.716487
     25          6           0       -9.889931    2.001971   -0.583276
     26          6           0      -11.274752    1.920630   -0.973166
     27          6           0      -11.427880    0.631860   -1.284973
     28          6           0      -10.160060   -0.036551   -0.999893
     29          6           0      -12.278360    3.028800   -0.898874
     30          6           0      -12.683350   -0.170201   -1.658145
     31          6           0      -12.831146   -0.432743   -3.243268
     32          7           0       -7.520955   -1.272788   -0.413460
     33          6           0       -8.540208   -2.050631   -0.822937
     34          6           0       -8.178292   -3.447749   -0.611419
     35          6           0       -6.870064   -3.356133   -0.260190
     36          6           0       -6.505317   -1.990521   -0.053337
     37          6           0       -9.124893   -4.607091   -0.996941
     38          6           0       -5.796091   -4.245732    0.064727
     39          8           0       -5.816638   -5.495903    0.078633
     40          6           0       -4.656652   -3.330164    0.641028
     41          6           0       -4.013693   -3.743255    1.853181
     42          8           0       -4.105427   -3.219859    2.936627
     43          8           0       -3.164192   -4.719934    1.566873
     44          6           0       -2.481007   -5.405857    2.715284
     45          6           0        2.761346   -1.274540   -1.120465
     46          6           0        4.039575   -0.755653   -0.543642
     47          6           0        4.964876   -0.025797   -1.009543
     48          6           0        4.826010    0.794079   -2.360628
     49          6           0        6.324309    0.152287   -0.347729
     50          6           0        7.507398   -0.417760   -1.086580
     51          6           0        8.783528   -0.128161   -0.343262
     52          6           0       10.087040   -0.730942   -0.903521
     53          6           0        9.983400   -2.350285   -0.813150
     54          6           0       11.251334   -0.091768   -0.214696
     55          6           0       12.709581   -0.508492   -0.675092
     56          6           0       13.854707    0.155517    0.129755
     57          6           0       15.335344   -0.168245   -0.555775
     58          6           0       15.732517   -1.609165   -0.619435
     59          6           0       16.339809    0.680569    0.346024
     60          6           0       17.693699    0.617404   -0.195473
     61          6           0       18.577163    1.606535    0.616142
     62          6           0       20.095910    1.714718    0.210558
     63          6           0       20.283258    2.070443   -1.162182
     64          6           0       20.950977    2.487816    1.224769
     65          1           0       -4.056942    3.260492    2.210131
     66          1           0      -10.002393    4.146502   -0.147724
     67          1           0      -10.683455   -2.187018   -1.335990
     68          1           0       -2.824823   -1.140024    2.150145
     69          1           0       -2.214468    1.408050    1.099247
     70          1           0       -1.862943    0.567670    3.878657
     71          1           0       -2.872076    2.015007    3.865242
     72          1           0       -3.743080    0.500720    3.900335
     73          1           0       -2.027239   -1.896187   -0.187221
     74          1           0       -2.113904   -0.102639   -0.668948
     75          1           0       -0.300888    0.197244    0.877653
     76          1           0       -0.414946   -1.634477    1.527229
     77          1           0       -4.226102    5.971668    1.141365
     78          1           0       -5.926832    6.874133    1.381962
     79          1           0       -5.162768    5.919844    2.636257
     80          1           0       -7.717412    7.173341    1.010550
     81          1           0       -9.282967    5.896016   -1.457192
     82          1           0       -9.446076    7.578510   -0.657760
     83          1           0      -12.396103    3.225156    0.237244
     84          1           0      -12.201720    3.896777   -1.653775
     85          1           0      -13.282130    2.616330   -0.979132
     86          1           0      -12.655256   -1.000757   -0.858958
     87          1           0      -13.568697    0.531574   -1.429115
     88          1           0      -12.895095    0.546866   -3.912611
     89          1           0      -11.927751   -0.839646   -3.764728
     90          1           0      -13.727710   -1.021294   -3.561168
     91          1           0      -10.016279   -4.560892   -0.687361
     92          1           0       -9.286500   -4.556288   -2.117128
     93          1           0       -8.653460   -5.452087   -0.612574
     94          1           0       -3.987097   -3.530017   -0.189189
     95          1           0       -2.051503   -6.328261    2.297557
     96          1           0       -1.773319   -4.624746    3.141014
     97          1           0       -3.215632   -5.727997    3.571893
     98          1           0        2.684935   -2.307465   -1.108314
     99          1           0        2.538586   -0.933629   -2.143341
    100          1           0        4.358982   -1.060476    0.493890
    101          1           0        5.029099    1.878633   -2.184247
    102          1           0        5.605672    0.171012   -2.986734
    103          1           0        3.900686    0.487647   -2.925652
    104          1           0        6.413904    1.192683   -0.229975
    105          1           0        6.241343   -0.404339    0.741589
    106          1           0        7.542167   -1.544863   -1.104854
    107          1           0        7.559586    0.163879   -2.145327
    108          1           0        9.003478    0.909253   -0.061855
    109          1           0        8.803860   -0.708999    0.657835
    110          1           0        9.930113   -0.433973   -2.001878
    111          1           0        9.079286   -2.986441   -1.117643
    112          1           0       10.785060   -2.956103   -1.361886
    113          1           0       10.280368   -2.589385    0.248136
    114          1           0       11.162700    1.096233   -0.257050
    115          1           0       11.079612   -0.037143    0.904540
    116          1           0       12.912325   -1.536030   -0.650872
    117          1           0       12.845334   -0.072677   -1.752683
    118          1           0       13.792541    1.255767    0.254862
    119          1           0       14.033014   -0.491000    1.185405
    120          1           0       15.111981    0.285790   -1.630419
    121          1           0       15.019604   -1.995417   -1.351569
    122          1           0       16.795467   -1.946898   -0.959479
    123          1           0       15.689417   -1.945453    0.316448
    124          1           0       15.931218    1.656722    0.220513
    125          1           0       16.249897    0.352728    1.273390
    126          1           0       18.271403   -0.419239   -0.090459
    127          1           0       17.689845    1.057784   -1.249757
    128          1           0       18.213158    2.619901    0.445948
    129          1           0       18.529300    1.451789    1.643648
    130          1           0       20.559702    0.668374    0.254563
    131          1           0       19.956408    3.107517   -1.418750
    132          1           0       21.447502    2.044564   -1.494534
    133          1           0       19.732066    1.352540   -1.850992
    134          1           0       20.766561    2.084530    2.299951
    135          1           0       21.899822    2.610145    0.994112
    136          1           0       20.783311    3.584775    1.338038
    137          1           0       -7.042101    1.770942    0.416647
    138          1           0       -7.802691   -0.247670   -0.184037
 ---------------------------------------------------------------------

 SCF Done:  E(RB3LYP) =  -2733.07595968     A.U. after   17 cycles

 Excitation energies and oscillator strengths:

 Excited State   1:      Singlet-A      2.0009 eV  619.66 nm  f=0.1348  <S**2>=0.000
     235 -> 237       -0.15415
     235 -> 238       -0.30460
     236 -> 237        0.60429
     236 -> 238       -0.11028
 This state for optimization and/or second-order correction.
 Total Energy, E(TD-HF/TD-DFT) =  -2733.00242978
 Copying the excited state density for this state as the 1-particle RhoCI density.

 The electronic state is 1-A.
 Alpha  occ. eigenvalues --  -19.17641 -19.16232 -19.12307 -19.12140 -19.11734
 Alpha  occ. eigenvalues --  -14.37257 -14.35891 -14.31991 -14.29802 -10.30909
 Alpha  occ. eigenvalues --  -10.30396 -10.27853 -10.26199 -10.24510 -10.23953
 Alpha  occ. eigenvalues --  -10.23778 -10.23469 -10.23421 -10.22614 -10.22546
 Alpha  occ. eigenvalues --  -10.22453 -10.21770 -10.21595 -10.21558 -10.21437
 Alpha  occ. eigenvalues --  -10.21066 -10.20975 -10.20914 -10.20816 -10.20783
 Alpha  occ. eigenvalues --  -10.20531 -10.20487 -10.20433 -10.20295 -10.20264
 Alpha  occ. eigenvalues --  -10.20197 -10.20194 -10.20169 -10.20066 -10.20062
 Alpha  occ. eigenvalues --  -10.19966 -10.19964 -10.19960 -10.19955 -10.19954
 Alpha  occ. eigenvalues --  -10.19737 -10.19654 -10.19633 -10.19551 -10.19229
 Alpha  occ. eigenvalues --  -10.19025 -10.18771 -10.18592 -10.18495 -10.18334
 Alpha  occ. eigenvalues --  -10.18320 -10.18308 -10.17960 -10.17892 -10.17456
 Alpha  occ. eigenvalues --  -10.17268 -10.17087 -10.17039 -10.16431  -1.09245
 Alpha  occ. eigenvalues --   -1.09102  -1.01247  -1.00325  -1.00077  -0.99989
 Alpha  occ. eigenvalues --   -0.97014  -0.96020  -0.93558  -0.85478  -0.82826
 Alpha  occ. eigenvalues --   -0.82087  -0.81879  -0.80986  -0.80883  -0.80370
 Alpha  occ. eigenvalues --   -0.80270  -0.79699  -0.79513  -0.78414  -0.77435
 Alpha  occ. eigenvalues --   -0.76918  -0.75747  -0.75265  -0.74566  -0.73430
 Alpha  occ. eigenvalues --   -0.73090  -0.72878  -0.72409  -0.71513  -0.70579
 Alpha  occ. eigenvalues --   -0.69679  -0.69146  -0.68497  -0.68334  -0.68144
 Alpha  occ. eigenvalues --   -0.67428  -0.67193  -0.66684  -0.66459  -0.65295
 Alpha  occ. eigenvalues --   -0.64880  -0.63757  -0.63126  -0.62193  -0.61703
 Alpha  occ. eigenvalues --   -0.61344  -0.59118  -0.58453  -0.58054  -0.56935
 Alpha  occ. eigenvalues --   -0.56466  -0.55740  -0.55218  -0.55193  -0.54920
 Alpha  occ. eigenvalues --   -0.54820  -0.54735  -0.53993  -0.53546  -0.52727
 Alpha  occ. eigenvalues --   -0.52535  -0.52065  -0.51113  -0.50594  -0.50095
 Alpha  occ. eigenvalues --   -0.49395  -0.48957  -0.48717  -0.48500  -0.48236
 Alpha  occ. eigenvalues --   -0.48202  -0.47979  -0.47425  -0.47031  -0.46947
 Alpha  occ. eigenvalues --   -0.46661  -0.46507  -0.46221  -0.46039  -0.45687
 Alpha  occ. eigenvalues --   -0.45560  -0.45288  -0.44839  -0.44558  -0.44505
 Alpha  occ. eigenvalues --   -0.44356  -0.44300  -0.43765  -0.43682  -0.43559
 Alpha  occ. eigenvalues --   -0.43434  -0.43149  -0.43073  -0.42999  -0.42877
 Alpha  occ. eigenvalues --   -0.42382  -0.42145  -0.42005  -0.41486  -0.41393
 Alpha  occ. eigenvalues --   -0.41320  -0.41021  -0.40839  -0.40638  -0.40364
 Alpha  occ. eigenvalues --   -0.40273  -0.39926  -0.39640  -0.39470  -0.39438
 Alpha  occ. eigenvalues --   -0.39209  -0.38946  -0.38782  -0.38648  -0.38464
 Alpha  occ. eigenvalues --   -0.38392  -0.37825  -0.37806  -0.37564  -0.37442
 Alpha  occ. eigenvalues --   -0.37316  -0.37226  -0.37057  -0.36888  -0.36417
 Alpha  occ. eigenvalues --   -0.36233  -0.36072  -0.35942  -0.35870  -0.35852
 Alpha  occ. eigenvalues --   -0.35696  -0.35512  -0.35488  -0.34927  -0.34593
 Alpha  occ. eigenvalues --   -0.34499  -0.34301  -0.34259  -0.34075  -0.33704
 Alpha  occ. eigenvalues --   -0.33275  -0.33098  -0.33071  -0.32888  -0.32753
 Alpha  occ. eigenvalues --   -0.32656  -0.32313  -0.31523  -0.31505  -0.30726
 Alpha  occ. eigenvalues --   -0.30648  -0.30440  -0.30378  -0.29874  -0.29778
 Alpha  occ. eigenvalues --   -0.29513  -0.29286  -0.28138  -0.27725  -0.27637
 Alpha  occ. eigenvalues --   -0.27114  -0.27017  -0.26935  -0.26845  -0.26232
 Alpha  occ. eigenvalues --   -0.25268  -0.24874  -0.23699  -0.23164  -0.19492
 Alpha  occ. eigenvalues --   -0.19233
 Alpha virt. eigenvalues --   -0.10668  -0.08026  -0.04576  -0.02911  -0.00213
 Alpha virt. eigenvalues --    0.00182   0.01281   0.02011   0.02454   0.03505
 Alpha virt. eigenvalues --    0.03901   0.04235   0.04555   0.04665   0.04861

 Mulliken charges:
               1
     1  C    0.007745
     2  C   -0.073507
     3  C   -0.078737
     4  C   -0.079616
     5  N   -0.185299
     6  C   -0.121293
     7  C    0.043387
     8  C   -0.084868
     9  C   -0.028923
    10  C    0.012780
    11  C    0.083438
    12  C   -0.007333
    13  C    0.139242
    14  O   -0.189997
    15  O   -0.373393
    16  N   -0.107796
    17  C    0.112155
    18  C   -0.094328
    19  C    0.118413
    20  C    0.077014
    21  C    0.054851
    22  C   -0.176123
    23  C   -0.000528
    24  N   -0.149295
    25  C    0.050880
    26  C   -0.148240
    27  C   -0.091060
    28  C    0.014494
    29  C    0.103005
    30  C    0.037501
    31  C   -0.037810
    32  N    0.034961
    33  C   -0.001360
    34  C   -0.183035
    35  C   -0.011477
    36  C    0.079844
    37  C    0.240950
    38  C    0.031984
    39  O   -0.199743
    40  C    0.025808
    41  C    0.198201
    42  O   -0.225894
    43  O   -0.316318
    44  C    0.148650
    45  C    0.355439
    46  C   -0.070408
    47  C   -0.188109
    48  C    0.031397
    49  C    0.083761
    50  C    0.040498
    51  C   -0.048853
    52  C   -0.015951
    53  C   -0.048121
    54  C   -0.005458
    55  C    0.096612
    56  C   -0.060030
    57  C   -0.176254
    58  C    0.086655
    59  C    0.143090
    60  C    0.014144
    61  C    0.040643
    62  C   -0.058201
    63  C   -0.024343
    64  C    0.075205
    65  H    0.016618
    66  H   -0.017032
    67  H    0.009848
    68  H   -0.030566
    69  H    0.039248
    70  H    0.033754
    71  H    0.024349
    72  H    0.028741
    73  H    0.023016
    74  H    0.020090
    75  H    0.031076
    76  H    0.051017
    77  H    0.047114
    78  H    0.011754
    79  H    0.022416
    80  H    0.043899
    81  H    0.050678
    82  H   -0.019010
    83  H    0.029351
    84  H    0.053882
    85  H   -0.019926
    86  H    0.037002
    87  H    0.007634
    88  H    0.018547
    89  H    0.018679
    90  H    0.026086
    91  H   -0.053477
    92  H    0.032237
    93  H    0.020469
    94  H    0.054650
    95  H    0.053758
    96  H    0.049565
    97  H    0.057623
    98  H   -0.006674
    99  H    0.022304
   100  H   -0.018909
   101  H    0.047582
   102  H    0.031400
   103  H    0.008638
   104  H   -0.016326
   105  H    0.011313
   106  H    0.007017
   107  H    0.024050
   108  H   -0.013781
   109  H   -0.010372
   110  H   -0.006309
   111  H    0.036850
   112  H    0.012563
   113  H    0.011954
   114  H   -0.003954
   115  H   -0.008995
   116  H   -0.005087
   117  H    0.007557
   118  H    0.011567
   119  H    0.008016
   120  H   -0.001481
   121  H    0.015623
   122  H    0.025694
   123  H   -0.032157
   124  H   -0.023558
   125  H   -0.051730
   126  H    0.017966
   127  H    0.007633
   128  H   -0.021446
   129  H   -0.033997
   130  H   -0.010527
   131  H    0.000071
   132  H    0.013049
   133  H    0.022743
   134  H    0.015341
   135  H   -0.042560
   136  H   -0.017672
   137  H    0.087150
   138  H    0.185322
 Sum of Mulliken charges =  -0.00000

 Dipole moment (field-independent basis, Debye):
    X=              1.8769    Y=              2.9249    Z=              0.9907  Tot=              3.6138
 Quadrupole moment (field-independent basis, Debye-Ang):
   XX=           -354.2837   YY=           -382.0383   ZZ=           -394.0307
   XY=            -21.8492   XZ=              5.9317   YZ=             -1.3540

 Normal termination of Gaussian 16 at Mon Aug 26 14:13:07 2019.
