 Gaussian 16, Revision A.03,
 Gaussian 16:  ES64L-G16RevA.03 25-Dec-2016

 --------------------------
 # td=(NStates=1) B3LYP/SVP
 --------------------------

 --
 TD
 --
 Symbolic Z-matrix:
 Charge =  0 Multiplicity = 1

                         Standard orientation:
 ---------------------------------------------------------------------
 Center     Atomic      Atomic             Coordinates (Angstroms)
 Number     Number       Type             X           Y           Z
 ---------------------------------------------------------------------
      1          6           0       -5.094681   -1.983705    0.560486
      2          6           0       -4.809454    2.785570    1.282184
      3          6           0       -9.427232    3.285077   -0.378504
      4          6           0       -9.806220   -1.520843   -0.890449
      5          7           0       -5.281516    0.432880    0.868523
      6          6           0       -4.507253   -0.649671    0.772621
      7          6           0       -3.117979   -0.562788    1.251326
      8          6           0       -3.201034    0.837031    1.874137
      9          6           0       -4.478724    1.454428    1.350334
     10          6           0       -3.182761    0.915601    3.387986
     11          6           0       -2.180854   -0.723374    0.082090
     12          6           0       -0.621483   -0.367135    0.454639
     13          6           0        0.369915   -0.735190   -0.598478
     14          8           0        0.209919   -1.231506   -1.671441
     15          8           0        1.622148   -0.316315   -0.195868
     16          7           0       -7.062806    2.788642    0.380025
     17          6           0       -6.065859    3.445857    0.919772
     18          6           0       -6.328778    4.763310    1.013242
     19          6           0       -7.671459    5.051483    0.445642
     20          6           0       -8.050594    3.676601    0.049240
     21          6           0       -5.451238    5.918180    1.470919
     22          6           0       -8.331932    6.321705    0.442912
     23          6           0       -9.327677    6.663179   -0.406642
     24          7           0       -9.226404    0.823384   -0.427966
     25          6           0       -9.872148    1.918176   -0.556322
     26          6           0      -11.257529    1.715988   -1.057841
     27          6           0      -11.374808    0.344360   -1.145062
     28          6           0      -10.119269   -0.202629   -0.850509
     29          6           0      -12.422103    2.735426   -1.282918
     30          6           0      -12.574968   -0.457505   -1.548655
     31          6           0      -12.780435   -0.717989   -3.113313
     32          7           0       -7.504165   -1.335496   -0.041617
     33          6           0       -8.581832   -2.108946   -0.601239
     34          6           0       -8.134564   -3.537487   -0.577132
     35          6           0       -6.789715   -3.461027   -0.157852
     36          6           0       -6.455087   -2.150571    0.103632
     37          6           0       -9.051405   -4.693856   -1.054471
     38          6           0       -5.666465   -4.328323   -0.015012
     39          8           0       -5.551942   -5.558766   -0.096632
     40          6           0       -4.490706   -3.337781    0.465651
     41          6           0       -3.911386   -3.823648    1.767965
     42          8           0       -4.189333   -3.451744    2.864332
     43          8           0       -2.944467   -4.777259    1.554033
     44          6           0       -2.553826   -5.387599    2.729427
     45          6           0        2.722333   -0.727972   -1.117473
     46          6           0        4.025954   -0.556282   -0.526216
     47          6           0        5.055120    0.139915   -1.076008
     48          6           0        4.955729    0.945310   -2.336157
     49          6           0        6.375704    0.291931   -0.402862
     50          6           0        7.567524   -0.459584   -0.927384
     51          6           0        8.949052   -0.166486   -0.235961
     52          6           0       10.129825   -0.631065   -0.831166
     53          6           0       10.040159   -2.176785   -1.278417
     54          6           0       11.373804   -0.265932    0.064302
     55          6           0       12.782645   -0.418454   -0.654949
     56          6           0       13.873998    0.002539    0.247978
     57          6           0       15.294662   -0.107237   -0.417052
     58          6           0       15.634159   -1.554283   -0.828236
     59          6           0       16.341517    0.404030    0.586254
     60          6           0       17.791612    0.521667   -0.069057
     61          6           0       18.744175    1.405433    0.702901
     62          6           0       20.171410    1.520977    0.281121
     63          6           0       20.208059    2.025631   -1.171558
     64          6           0       21.070769    2.282809    1.195596
     65          1           0       -4.044155    3.340010    1.864945
     66          1           0      -10.038781    4.189214   -0.318659
     67          1           0      -10.858471   -2.124155   -1.032878
     68          1           0       -2.830646   -1.367660    1.951961
     69          1           0       -2.400331    1.579662    1.490172
     70          1           0       -1.999904    0.423625    3.556458
     71          1           0       -3.437530    1.929980    3.687397
     72          1           0       -3.748886    0.023928    3.632939
     73          1           0       -2.300780   -1.774375   -0.208131
     74          1           0       -2.475300   -0.128271   -0.775555
     75          1           0       -0.574948    0.627891    0.675553
     76          1           0       -0.452149   -1.093242    1.385750
     77          1           0       -4.510685    5.902901    0.960968
     78          1           0       -6.094330    6.734352    1.508384
     79          1           0       -5.176318    6.043989    2.638467
     80          1           0       -7.879201    7.055021    0.947112
     81          1           0       -9.876268    6.120421   -1.172337
     82          1           0       -9.583054    7.746415   -0.577798
     83          1           0      -12.499154    3.104875   -0.173389
     84          1           0      -11.906505    3.567141   -2.014846
     85          1           0      -13.363683    2.217839   -1.744129
     86          1           0      -12.351987   -1.378323   -1.105392
     87          1           0      -13.471680    0.065454   -1.370475
     88          1           0      -12.714179    0.362905   -3.624023
     89          1           0      -11.866554   -1.295641   -3.578163
     90          1           0      -13.703139   -1.280482   -3.528657
     91          1           0       -9.857048   -4.938291   -0.165794
     92          1           0       -9.678163   -4.515400   -1.979705
     93          1           0       -8.513636   -5.766855   -1.154338
     94          1           0       -3.714514   -3.503420   -0.289326
     95          1           0       -2.159028   -6.382479    2.519103
     96          1           0       -1.768065   -4.628084    3.413136
     97          1           0       -3.331299   -5.623510    3.614268
     98          1           0        2.531541   -1.893366   -1.355961
     99          1           0        2.553724   -0.059884   -1.898722
    100          1           0        4.185693   -1.219063    0.285679
    101          1           0        5.191783    1.977155   -2.299685
    102          1           0        5.537403    0.481215   -3.153557
    103          1           0        3.981385    0.702534   -2.805765
    104          1           0        6.585691    1.334960   -0.216590
    105          1           0        6.305305   -0.145432    0.641886
    106          1           0        7.260164   -1.474778   -0.893952
    107          1           0        7.721006    0.069378   -1.892083
    108          1           0        9.074761    0.907067   -0.059150
    109          1           0        8.880953   -0.760420    0.527034
    110          1           0       10.421748    0.037471   -1.584702
    111          1           0        9.274141   -2.330960   -2.164339
    112          1           0       11.120726   -2.322455   -1.601070
    113          1           0        9.916707   -2.793852   -0.405499
    114          1           0       11.263463    0.743903    0.440037
    115          1           0       11.559687   -1.048037    0.961298
    116          1           0       12.779914   -1.528947   -1.082944
    117          1           0       12.759974    0.228955   -1.634872
    118          1           0       13.904744    1.097358    0.530146
    119          1           0       13.592218   -0.434675    1.168775
    120          1           0       15.324343    0.541441   -1.306672
    121          1           0       14.884853   -2.164976   -1.339692
    122          1           0       16.695275   -1.759054   -1.113176
    123          1           0       15.794584   -2.146520    0.131021
    124          1           0       16.107408    1.611863    0.902329
    125          1           0       16.236951   -0.307114    1.440713
    126          1           0       18.285418   -0.527434   -0.225802
    127          1           0       17.632333    0.874139   -1.107056
    128          1           0       18.233928    2.407958    0.775601
    129          1           0       18.750175    1.000391    1.763995
    130          1           0       20.614751    0.527321    0.171688
    131          1           0       19.612704    3.069047   -1.340853
    132          1           0       21.172859    2.199059   -1.489567
    133          1           0       19.571291    1.421962   -1.914524
    134          1           0       21.237610    1.863437    2.147177
    135          1           0       22.045194    2.224859    0.652573
    136          1           0       20.921701    3.292070    1.237304
    137          1           0       -6.934519    1.776531    0.189737
    138          1           0       -7.775579   -0.338089    0.425295
 ---------------------------------------------------------------------

 SCF Done:  E(RB3LYP) =  -2733.08995262     A.U. after   17 cycles

 Excitation energies and oscillator strengths:

 Excited State   1:      Singlet-A      1.8938 eV  654.68 nm  f=0.2435  <S**2>=0.000
     235 -> 237       -0.23652
     235 -> 238        0.21325
     236 -> 237        0.61525
     236 -> 238        0.14474
 This state for optimization and/or second-order correction.
 Total Energy, E(TD-HF/TD-DFT) =  -2733.02035605
 Copying the excited state density for this state as the 1-particle RhoCI density.

 The electronic state is 1-A.
 Alpha  occ. eigenvalues --  -19.18126 -19.15810 -19.12935 -19.12539 -19.12214
 Alpha  occ. eigenvalues --  -14.37566 -14.37309 -14.32626 -14.30143 -10.31504
 Alpha  occ. eigenvalues --  -10.30894 -10.28180 -10.25504 -10.24821 -10.24303
 Alpha  occ. eigenvalues --  -10.23961 -10.23691 -10.23448 -10.23425 -10.23344
 Alpha  occ. eigenvalues --  -10.22608 -10.22523 -10.22288 -10.22038 -10.21596
 Alpha  occ. eigenvalues --  -10.21523 -10.21335 -10.21188 -10.21100 -10.21059
 Alpha  occ. eigenvalues --  -10.20950 -10.20689 -10.20659 -10.20653 -10.20448
 Alpha  occ. eigenvalues --  -10.20421 -10.20350 -10.20194 -10.20169 -10.20013
 Alpha  occ. eigenvalues --  -10.19989 -10.19962 -10.19959 -10.19407 -10.19364
 Alpha  occ. eigenvalues --  -10.19276 -10.19235 -10.19223 -10.19199 -10.18992
 Alpha  occ. eigenvalues --  -10.18918 -10.18633 -10.18416 -10.18212 -10.18207
 Alpha  occ. eigenvalues --  -10.18148 -10.18004 -10.17898 -10.17891 -10.17883
 Alpha  occ. eigenvalues --  -10.17873 -10.17839 -10.16629 -10.16031  -1.10575
 Alpha  occ. eigenvalues --   -1.07990  -1.01875  -1.01528  -1.00273  -0.99372
 Alpha  occ. eigenvalues --   -0.97625  -0.95241  -0.94780  -0.85171  -0.83482
 Alpha  occ. eigenvalues --   -0.82423  -0.82178  -0.81672  -0.81537  -0.81195
 Alpha  occ. eigenvalues --   -0.80434  -0.80086  -0.79215  -0.78866  -0.77827
 Alpha  occ. eigenvalues --   -0.77248  -0.76349  -0.75683  -0.75067  -0.74279
 Alpha  occ. eigenvalues --   -0.73269  -0.73015  -0.72396  -0.71775  -0.70772
 Alpha  occ. eigenvalues --   -0.70320  -0.69192  -0.68246  -0.68089  -0.67887
 Alpha  occ. eigenvalues --   -0.66847  -0.66760  -0.66181  -0.65928  -0.65174
 Alpha  occ. eigenvalues --   -0.64025  -0.63170  -0.62774  -0.62303  -0.61748
 Alpha  occ. eigenvalues --   -0.61157  -0.59228  -0.58416  -0.57721  -0.57192
 Alpha  occ. eigenvalues --   -0.56434  -0.56321  -0.56096  -0.55711  -0.55057
 Alpha  occ. eigenvalues --   -0.54974  -0.54899  -0.54492  -0.53814  -0.53673
 Alpha  occ. eigenvalues --   -0.53046  -0.52006  -0.51958  -0.51274  -0.50601
 Alpha  occ. eigenvalues --   -0.50033  -0.49832  -0.49710  -0.49121  -0.48669
 Alpha  occ. eigenvalues --   -0.48507  -0.48007  -0.47700  -0.47302  -0.47081
 Alpha  occ. eigenvalues --   -0.46929  -0.46532  -0.46344  -0.46101  -0.45882
 Alpha  occ. eigenvalues --   -0.45674  -0.45369  -0.45308  -0.45209  -0.44987
 Alpha  occ. eigenvalues --   -0.44826  -0.44425  -0.44116  -0.44078  -0.44018
 Alpha  occ. eigenvalues --   -0.43820  -0.43759  -0.43378  -0.43253  -0.42977
 Alpha  occ. eigenvalues --   -0.42913  -0.42368  -0.42363  -0.42226  -0.41973
 Alpha  occ. eigenvalues --   -0.41737  -0.41290  -0.40921  -0.40897  -0.40564
 Alpha  occ. eigenvalues --   -0.39782  -0.39749  -0.39704  -0.39347  -0.39146
 Alpha  occ. eigenvalues --   -0.38974  -0.38826  -0.38467  -0.38252  -0.38142
 Alpha  occ. eigenvalues --   -0.37819  -0.37771  -0.37627  -0.37542  -0.37458
 Alpha  occ. eigenvalues --   -0.37392  -0.37220  -0.36869  -0.36829  -0.36601
 Alpha  occ. eigenvalues --   -0.36423  -0.36313  -0.36258  -0.35914  -0.35764
 Alpha  occ. eigenvalues --   -0.35469  -0.35335  -0.35208  -0.34965  -0.34790
 Alpha  occ. eigenvalues --   -0.34609  -0.34520  -0.34305  -0.34142  -0.34089
 Alpha  occ. eigenvalues --   -0.33915  -0.33668  -0.33022  -0.32831  -0.32741
 Alpha  occ. eigenvalues --   -0.32163  -0.32124  -0.31900  -0.31478  -0.31440
 Alpha  occ. eigenvalues --   -0.31180  -0.30874  -0.30647  -0.30531  -0.29566
 Alpha  occ. eigenvalues --   -0.29494  -0.28786  -0.28642  -0.28117  -0.27951
 Alpha  occ. eigenvalues --   -0.27913  -0.27547  -0.27241  -0.26418  -0.26106
 Alpha  occ. eigenvalues --   -0.25275  -0.24660  -0.23660  -0.22795  -0.20393
 Alpha  occ. eigenvalues --   -0.18950
 Alpha virt. eigenvalues --   -0.11549  -0.08085  -0.04821  -0.02951  -0.00876
 Alpha virt. eigenvalues --   -0.00636   0.00316   0.00571   0.01655   0.03020
 Alpha virt. eigenvalues --    0.03316   0.03984   0.04173   0.04733   0.04749

 Mulliken charges:
               1
     1  C    0.015725
     2  C   -0.035427
     3  C   -0.071978
     4  C   -0.139131
     5  N   -0.188430
     6  C   -0.023195
     7  C   -0.038266
     8  C   -0.056083
     9  C   -0.055919
    10  C    0.076583
    11  C    0.041627
    12  C    0.051902
    13  C    0.184166
    14  O   -0.213391
    15  O   -0.375884
    16  N    0.013421
    17  C    0.063614
    18  C   -0.160503
    19  C    0.030445
    20  C    0.011145
    21  C    0.123826
    22  C    0.054635
    23  C   -0.066485
    24  N   -0.197447
    25  C    0.069153
    26  C   -0.181622
    27  C   -0.076387
    28  C    0.043856
    29  C    0.004775
    30  C    0.152441
    31  C   -0.096148
    32  N   -0.119837
    33  C    0.092386
    34  C   -0.067205
    35  C    0.012987
    36  C    0.075142
    37  C   -0.013587
    38  C    0.057620
    39  O   -0.184328
    40  C   -0.084194
    41  C    0.196232
    42  O   -0.195598
    43  O   -0.272787
    44  C    0.095987
    45  C    0.292958
    46  C   -0.058890
    47  C   -0.143081
    48  C    0.119602
    49  C    0.058953
    50  C    0.041434
    51  C    0.144927
    52  C   -0.024319
    53  C    0.011662
    54  C   -0.061725
    55  C   -0.042024
    56  C    0.077428
    57  C   -0.041151
    58  C    0.025408
    59  C   -0.037530
    60  C   -0.005939
    61  C    0.042568
    62  C   -0.061653
    63  C   -0.014098
    64  C    0.117337
    65  H   -0.023820
    66  H   -0.008058
    67  H    0.029231
    68  H    0.013791
    69  H    0.002488
    70  H    0.022993
    71  H    0.034807
    72  H    0.029807
    73  H    0.009115
    74  H    0.007553
    75  H    0.014164
    76  H    0.052559
    77  H    0.035266
    78  H   -0.022302
    79  H    0.015152
    80  H   -0.055418
    81  H    0.029938
    82  H    0.027800
    83  H    0.062765
    84  H    0.054347
    85  H    0.051021
    86  H   -0.016428
    87  H   -0.007996
    88  H    0.025014
    89  H    0.019641
    90  H    0.039775
    91  H    0.048768
    92  H    0.050952
    93  H    0.064912
    94  H    0.056983
    95  H    0.036128
    96  H    0.025761
    97  H    0.047210
    98  H    0.050782
    99  H   -0.014970
   100  H   -0.028489
   101  H    0.021875
   102  H    0.013772
   103  H   -0.012918
   104  H   -0.009264
   105  H   -0.023011
   106  H   -0.002182
   107  H   -0.018781
   108  H   -0.016449
   109  H   -0.073723
   110  H   -0.047435
   111  H    0.051038
   112  H    0.005045
   113  H    0.010318
   114  H   -0.003249
   115  H    0.003646
   116  H    0.028638
   117  H   -0.003790
   118  H   -0.009762
   119  H   -0.027301
   120  H   -0.005164
   121  H    0.018614
   122  H    0.004703
   123  H   -0.022115
   124  H    0.015740
   125  H    0.011722
   126  H    0.006531
   127  H   -0.000585
   128  H   -0.008942
   129  H   -0.011414
   130  H   -0.015225
   131  H   -0.002340
   132  H   -0.011394
   133  H    0.022260
   134  H   -0.001562
   135  H   -0.012034
   136  H   -0.020409
   137  H    0.151961
   138  H    0.216241
 Sum of Mulliken charges =  -0.00000

 Dipole moment (field-independent basis, Debye):
    X=              0.7708    Y=              4.8334    Z=              0.2493  Tot=              4.9008
 Quadrupole moment (field-independent basis, Debye-Ang):
   XX=           -325.0836   YY=           -382.9197   ZZ=           -401.1203
   XY=            -24.3847   XZ=             10.2060   YZ=             -1.4281

 Normal termination of Gaussian 16 at Fri Aug 16 17:27:27 2019.
