 Gaussian 16, Revision A.03,
 Gaussian 16:  ES64L-G16RevA.03 25-Dec-2016

 --------------------------
 # td=(NStates=1) B3LYP/SVP
 --------------------------

 --
 TD
 --
 Symbolic Z-matrix:
 Charge =  0 Multiplicity = 1

                         Standard orientation:
 ---------------------------------------------------------------------
 Center     Atomic      Atomic             Coordinates (Angstroms)
 Number     Number       Type             X           Y           Z
 ---------------------------------------------------------------------
      1          6           0       -5.088382   -1.953932    0.446037
      2          6           0       -4.826223    2.798925    1.342806
      3          6           0       -9.360583    3.389757   -0.327844
      4          6           0       -9.802930   -1.434211   -0.960151
      5          7           0       -5.229670    0.499079    0.829807
      6          6           0       -4.512946   -0.707688    0.793707
      7          6           0       -3.074655   -0.524405    1.307071
      8          6           0       -3.066557    0.962800    1.782752
      9          6           0       -4.446043    1.501908    1.254138
     10          6           0       -3.185252    0.954814    3.344345
     11          6           0       -2.079091   -0.540833   -0.080574
     12          6           0       -0.615990   -0.494325    0.431917
     13          6           0        0.319747   -0.915679   -0.654407
     14          8           0        0.134438   -1.400927   -1.726252
     15          8           0        1.665685   -0.909241   -0.220799
     16          7           0       -6.994179    2.716846    0.426619
     17          6           0       -5.936613    3.422811    0.899055
     18          6           0       -6.281109    4.797567    0.964162
     19          6           0       -7.578809    5.004271    0.453733
     20          6           0       -8.055236    3.640351    0.192953
     21          6           0       -5.329017    5.916219    1.302815
     22          6           0       -8.255127    6.333630    0.339798
     23          6           0       -9.268157    6.651141   -0.579332
     24          7           0       -9.178653    0.896169   -0.565563
     25          6           0       -9.890313    2.022255   -0.608335
     26          6           0      -11.329983    1.841214   -0.960904
     27          6           0      -11.343359    0.444929   -1.041310
     28          6           0      -10.107885   -0.036142   -0.964863
     29          6           0      -12.327317    2.908716   -1.081150
     30          6           0      -12.620667   -0.302943   -1.363311
     31          6           0      -12.529868   -0.829666   -2.924815
     32          7           0       -7.390041   -1.278712   -0.340093
     33          6           0       -8.522856   -2.036843   -0.630816
     34          6           0       -8.131648   -3.407819   -0.651111
     35          6           0       -6.748439   -3.415602   -0.285995
     36          6           0       -6.309704   -2.069746   -0.075427
     37          6           0       -9.019765   -4.554252   -0.972234
     38          6           0       -5.660218   -4.324168    0.080552
     39          8           0       -5.575978   -5.515511    0.053071
     40          6           0       -4.555056   -3.410811    0.465879
     41          6           0       -3.823527   -3.705068    1.851960
     42          8           0       -3.912870   -3.032607    2.930695
     43          8           0       -3.248635   -4.975671    1.761057
     44          6           0       -2.597267   -5.276996    3.071866
     45          6           0        2.688534   -1.224931   -1.222581
     46          6           0        3.968560   -1.001734   -0.529735
     47          6           0        4.865224   -0.046426   -0.987727
     48          6           0        4.880567    0.517464   -2.282221
     49          6           0        6.185836   -0.004407   -0.253469
     50          6           0        7.531422   -0.538382   -1.045575
     51          6           0        8.779535   -0.410991   -0.205022
     52          6           0       10.119809   -0.858499   -0.813002
     53          6           0       10.044172   -2.308658   -1.286836
     54          6           0       11.405632   -0.445829   -0.004545
     55          6           0       12.690898   -0.607321   -0.702243
     56          6           0       13.851043    0.044958    0.119589
     57          6           0       15.303922   -0.169371   -0.548540
     58          6           0       15.696335   -1.617793   -0.760250
     59          6           0       16.256312    0.608587    0.380159
     60          6           0       17.710317    0.779313   -0.220006
     61          6           0       18.600056    1.647398    0.710116
     62          6           0       20.009531    1.768786    0.289985
     63          6           0       20.280772    2.598306   -0.994860
     64          6           0       20.924612    2.407693    1.428273
     65          1           0       -4.106346    3.198853    1.722955
     66          1           0       -9.898297    4.275390   -0.752074
     67          1           0      -10.600011   -1.958207   -1.218524
     68          1           0       -2.776977   -1.198157    2.084962
     69          1           0       -2.140619    1.550902    1.476416
     70          1           0       -2.187534    0.640358    3.913173
     71          1           0       -3.296095    1.912779    3.622756
     72          1           0       -3.941146    0.191260    3.807287
     73          1           0       -2.393219   -1.335895   -0.840508
     74          1           0       -2.222722    0.368740   -0.721780
     75          1           0       -0.479228    0.439862    0.722390
     76          1           0       -0.489406   -1.149120    1.363309
     77          1           0       -4.734665    5.919804    0.518162
     78          1           0       -6.036277    6.802237    1.339310
     79          1           0       -4.726507    5.672416    2.327681
     80          1           0       -7.760084    7.007200    1.097822
     81          1           0       -9.480707    5.879180   -1.391262
     82          1           0       -9.575941    7.690740   -0.693350
     83          1           0      -12.373211    3.575326   -0.056721
     84          1           0      -12.091825    3.562284   -1.774326
     85          1           0      -13.294442    2.468872   -1.265792
     86          1           0      -12.827287   -1.079373   -0.766525
     87          1           0      -13.627984    0.449129   -1.507957
     88          1           0      -12.779162   -0.112098   -3.653696
     89          1           0      -11.641835   -1.243047   -3.308003
     90          1           0      -13.406366   -1.506833   -3.072232
     91          1           0      -10.142568   -4.751964   -0.504504
     92          1           0       -9.370256   -4.375630   -2.009459
     93          1           0       -8.553310   -5.591306   -0.968919
     94          1           0       -3.741912   -3.401980   -0.298517
     95          1           0       -2.068884   -6.182639    2.837027
     96          1           0       -2.001192   -4.399173    3.450385
     97          1           0       -3.397669   -5.632107    3.945987
     98          1           0        2.381730   -2.329680   -1.282161
     99          1           0        2.621633   -0.821223   -2.125217
    100          1           0        4.121359   -1.522098    0.391305
    101          1           0        5.088317    1.544481   -2.000041
    102          1           0        5.645625    0.124503   -3.083639
    103          1           0        3.885339    0.709905   -2.713246
    104          1           0        6.383831    1.076266    0.022267
    105          1           0        6.310009   -0.518818    0.744375
    106          1           0        7.289387   -1.417335   -1.324339
    107          1           0        7.558707    0.085107   -1.951080
    108          1           0        8.861730    0.757973   -0.150602
    109          1           0        8.820778   -0.915967    0.773658
    110          1           0       10.365069   -0.094068   -1.585277
    111          1           0        9.105035   -2.477810   -1.992006
    112          1           0       11.161007   -2.488819   -1.671730
    113          1           0        9.689215   -2.815134   -0.449470
    114          1           0       11.170738    0.615296    0.154283
    115          1           0       11.232209   -1.052294    0.896829
    116          1           0       13.119027   -1.587018   -0.734750
    117          1           0       12.743676   -0.177249   -1.669871
    118          1           0       13.818716    1.132778    0.133891
    119          1           0       13.880800   -0.306347    1.188440
    120          1           0       15.321875    0.263213   -1.586385
    121          1           0       15.169226   -2.148893   -1.624229
    122          1           0       16.675190   -1.609565   -1.091879
    123          1           0       15.481238   -2.282960    0.120741
    124          1           0       15.702377    1.558003    0.730841
    125          1           0       16.167802    0.139472    1.433067
    126          1           0       18.171764   -0.278307   -0.266574
    127          1           0       17.537986    1.287052   -1.225777
    128          1           0       18.222841    2.646929    0.957165
    129          1           0       18.652049    1.159774    1.767347
    130          1           0       20.350543    0.723420    0.262012
    131          1           0       20.009605    3.722514   -0.875658
    132          1           0       21.440031    2.656944   -1.263143
    133          1           0       19.716214    1.990248   -1.894133
    134          1           0       20.966057    1.831237    2.447088
    135          1           0       21.873609    2.460752    1.016487
    136          1           0       20.292893    3.306825    1.499740
    137          1           0       -7.215115    1.775604    0.468879
    138          1           0       -7.573206   -0.304597   -0.117099
 ---------------------------------------------------------------------

 SCF Done:  E(RB3LYP) =  -2733.04428953     A.U. after   17 cycles

 Excitation energies and oscillator strengths:

 Excited State   1:      Singlet-A      2.0285 eV  611.20 nm  f=0.1229  <S**2>=0.000
     235 -> 237       -0.17770
     235 -> 238       -0.32134
     236 -> 237        0.58708
     236 -> 238       -0.12438
 This state for optimization and/or second-order correction.
 Total Energy, E(TD-HF/TD-DFT) =  -2732.96974248
 Copying the excited state density for this state as the 1-particle RhoCI density.

 The electronic state is 1-A.
 Alpha  occ. eigenvalues --  -19.19001 -19.14782 -19.14056 -19.12571 -19.11585
 Alpha  occ. eigenvalues --  -14.36614 -14.36278 -14.32129 -14.29496 -10.33373
 Alpha  occ. eigenvalues --  -10.31097 -10.27157 -10.25739 -10.24087 -10.23701
 Alpha  occ. eigenvalues --  -10.23665 -10.23533 -10.22812 -10.22654 -10.22636
 Alpha  occ. eigenvalues --  -10.22544 -10.22303 -10.21787 -10.21526 -10.21396
 Alpha  occ. eigenvalues --  -10.21205 -10.21192 -10.20990 -10.20753 -10.20703
 Alpha  occ. eigenvalues --  -10.20611 -10.20606 -10.20591 -10.20504 -10.20448
 Alpha  occ. eigenvalues --  -10.20441 -10.20110 -10.20081 -10.20000 -10.19954
 Alpha  occ. eigenvalues --  -10.19809 -10.19267 -10.19235 -10.19177 -10.19010
 Alpha  occ. eigenvalues --  -10.18961 -10.18815 -10.18773 -10.18758 -10.18641
 Alpha  occ. eigenvalues --  -10.18581 -10.18322 -10.18309 -10.18185 -10.18184
 Alpha  occ. eigenvalues --  -10.17973 -10.17951 -10.17745 -10.17720 -10.17698
 Alpha  occ. eigenvalues --  -10.17648 -10.17548 -10.17541 -10.16766  -1.07900
 Alpha  occ. eigenvalues --   -1.07155  -1.03359  -0.98776  -0.98728  -0.98033
 Alpha  occ. eigenvalues --   -0.97670  -0.94352  -0.93107  -0.85871  -0.82732
 Alpha  occ. eigenvalues --   -0.82336  -0.81852  -0.81506  -0.80988  -0.80402
 Alpha  occ. eigenvalues --   -0.79776  -0.79633  -0.79361  -0.78445  -0.77281
 Alpha  occ. eigenvalues --   -0.76758  -0.76382  -0.74891  -0.74334  -0.73967
 Alpha  occ. eigenvalues --   -0.73077  -0.72935  -0.72494  -0.71911  -0.71252
 Alpha  occ. eigenvalues --   -0.69951  -0.69580  -0.68556  -0.67847  -0.67640
 Alpha  occ. eigenvalues --   -0.67329  -0.66447  -0.66337  -0.65702  -0.64426
 Alpha  occ. eigenvalues --   -0.63774  -0.63020  -0.62638  -0.62574  -0.61982
 Alpha  occ. eigenvalues --   -0.61105  -0.59405  -0.59029  -0.57807  -0.57244
 Alpha  occ. eigenvalues --   -0.57001  -0.56335  -0.55861  -0.55598  -0.55265
 Alpha  occ. eigenvalues --   -0.54512  -0.54373  -0.54111  -0.53825  -0.53413
 Alpha  occ. eigenvalues --   -0.53258  -0.52309  -0.51472  -0.50832  -0.50492
 Alpha  occ. eigenvalues --   -0.49873  -0.49488  -0.49155  -0.48742  -0.48485
 Alpha  occ. eigenvalues --   -0.48272  -0.47587  -0.47447  -0.47287  -0.46888
 Alpha  occ. eigenvalues --   -0.46508  -0.46097  -0.45790  -0.45566  -0.45479
 Alpha  occ. eigenvalues --   -0.45394  -0.45158  -0.44709  -0.44563  -0.44526
 Alpha  occ. eigenvalues --   -0.44302  -0.44250  -0.44211  -0.44094  -0.43669
 Alpha  occ. eigenvalues --   -0.43453  -0.43250  -0.43226  -0.42864  -0.42779
 Alpha  occ. eigenvalues --   -0.42578  -0.42265  -0.42040  -0.41894  -0.41520
 Alpha  occ. eigenvalues --   -0.41453  -0.40942  -0.40935  -0.40618  -0.40430
 Alpha  occ. eigenvalues --   -0.40402  -0.40114  -0.39816  -0.39547  -0.39373
 Alpha  occ. eigenvalues --   -0.39296  -0.39017  -0.38624  -0.38507  -0.38260
 Alpha  occ. eigenvalues --   -0.38150  -0.38071  -0.38011  -0.37708  -0.37544
 Alpha  occ. eigenvalues --   -0.37418  -0.37196  -0.36902  -0.36872  -0.36755
 Alpha  occ. eigenvalues --   -0.36686  -0.36534  -0.36268  -0.36211  -0.35872
 Alpha  occ. eigenvalues --   -0.35854  -0.35753  -0.35363  -0.35314  -0.35012
 Alpha  occ. eigenvalues --   -0.34942  -0.34819  -0.34574  -0.34136  -0.33899
 Alpha  occ. eigenvalues --   -0.33758  -0.33480  -0.33224  -0.32655  -0.32651
 Alpha  occ. eigenvalues --   -0.32153  -0.32051  -0.31598  -0.31466  -0.31232
 Alpha  occ. eigenvalues --   -0.30938  -0.30750  -0.30520  -0.30117  -0.29582
 Alpha  occ. eigenvalues --   -0.28743  -0.28695  -0.28464  -0.27823  -0.27571
 Alpha  occ. eigenvalues --   -0.27300  -0.27201  -0.26640  -0.26248  -0.25507
 Alpha  occ. eigenvalues --   -0.24998  -0.24258  -0.23584  -0.22052  -0.19894
 Alpha  occ. eigenvalues --   -0.18890
 Alpha virt. eigenvalues --   -0.10166  -0.08522  -0.04687  -0.03136  -0.02460
 Alpha virt. eigenvalues --   -0.01420  -0.00210   0.00523   0.02120   0.03823
 Alpha virt. eigenvalues --    0.03952   0.04181   0.04217   0.04778   0.05156

 Mulliken charges:
               1
     1  C   -0.024224
     2  C    0.083797
     3  C   -0.094347
     4  C    0.008826
     5  N   -0.193793
     6  C   -0.053396
     7  C   -0.024590
     8  C   -0.065285
     9  C   -0.061278
    10  C    0.047766
    11  C   -0.042380
    12  C    0.137124
    13  C    0.171552
    14  O   -0.205610
    15  O   -0.389600
    16  N   -0.032350
    17  C    0.215168
    18  C   -0.181219
    19  C   -0.012178
    20  C    0.076693
    21  C    0.136929
    22  C   -0.041711
    23  C   -0.037991
    24  N   -0.223036
    25  C    0.017565
    26  C   -0.167537
    27  C   -0.073254
    28  C    0.051697
    29  C    0.179082
    30  C    0.053379
    31  C    0.003152
    32  N   -0.041518
    33  C    0.073525
    34  C   -0.074775
    35  C   -0.072465
    36  C    0.127452
    37  C    0.008598
    38  C    0.087224
    39  O   -0.135872
    40  C    0.010428
    41  C    0.240081
    42  O   -0.277459
    43  O   -0.310719
    44  C    0.139055
    45  C    0.343689
    46  C   -0.045388
    47  C   -0.125203
    48  C    0.082742
    49  C   -0.008218
    50  C    0.095858
    51  C    0.000224
    52  C   -0.124219
    53  C    0.046473
    54  C    0.065210
    55  C    0.116311
    56  C   -0.032733
    57  C   -0.095323
    58  C    0.055377
    59  C   -0.023302
    60  C    0.050050
    61  C    0.019822
    62  C   -0.091263
    63  C   -0.054309
    64  C    0.022496
    65  H   -0.193429
    66  H   -0.011571
    67  H   -0.095653
    68  H    0.024530
    69  H    0.016438
    70  H    0.012941
    71  H   -0.027055
    72  H    0.058764
    73  H    0.037326
    74  H    0.013729
    75  H   -0.022567
    76  H    0.053363
    77  H    0.003247
    78  H    0.012115
    79  H    0.049653
    80  H    0.028986
    81  H    0.062786
    82  H    0.036388
    83  H    0.033736
    84  H   -0.019781
    85  H   -0.004994
    86  H   -0.013988
    87  H    0.031582
    88  H   -0.010523
    89  H    0.010357
    90  H    0.000552
    91  H    0.043549
    92  H    0.024777
    93  H    0.049786
    94  H    0.066731
    95  H    0.033939
    96  H    0.059026
    97  H    0.057339
    98  H    0.003738
    99  H   -0.032571
   100  H   -0.020167
   101  H   -0.006962
   102  H    0.070331
   103  H    0.004392
   104  H   -0.005034
   105  H    0.000300
   106  H   -0.054465
   107  H   -0.002320
   108  H    0.001674
   109  H   -0.001065
   110  H   -0.033387
   111  H    0.024496
   112  H    0.044491
   113  H   -0.021738
   114  H   -0.013268
   115  H   -0.016238
   116  H   -0.012911
   117  H   -0.021061
   118  H   -0.009847
   119  H    0.002427
   120  H   -0.011040
   121  H    0.007248
   122  H   -0.019496
   123  H    0.011975
   124  H   -0.008629
   125  H   -0.013074
   126  H    0.026270
   127  H    0.020005
   128  H   -0.017922
   129  H   -0.003053
   130  H   -0.015325
   131  H    0.026742
   132  H    0.025400
   133  H    0.038319
   134  H    0.020710
   135  H   -0.000902
   136  H    0.006136
   137  H    0.116758
   138  H    0.136186
 Sum of Mulliken charges =  -0.00000

 Dipole moment (field-independent basis, Debye):
    X=              1.7199    Y=              4.9785    Z=              0.3374  Tot=              5.2781
 Quadrupole moment (field-independent basis, Debye-Ang):
   XX=           -350.7893   YY=           -382.0646   ZZ=           -393.4423
   XY=            -28.0546   XZ=              7.8514   YZ=             -7.0290

 Normal termination of Gaussian 16 at Thu Aug 22 09:09:06 2019.
