 Gaussian 16, Revision A.03,
 Gaussian 16:  ES64L-G16RevA.03 25-Dec-2016

 --------------------------
 # td=(NStates=1) B3LYP/SVP
 --------------------------

 --
 TD
 --
 Symbolic Z-matrix:
 Charge =  0 Multiplicity = 1

                         Standard orientation:
 ---------------------------------------------------------------------
 Center     Atomic      Atomic             Coordinates (Angstroms)
 Number     Number       Type             X           Y           Z
 ---------------------------------------------------------------------
      1          6           0       -5.086086   -1.945738    0.593562
      2          6           0       -4.717685    2.772692    1.453377
      3          6           0       -9.371201    3.334513   -0.232980
      4          6           0       -9.857395   -1.472097   -0.964529
      5          7           0       -5.116604    0.405137    0.904229
      6          6           0       -4.378151   -0.781707    0.928091
      7          6           0       -2.969357   -0.562991    1.247440
      8          6           0       -2.934968    0.905372    1.838234
      9          6           0       -4.372073    1.410453    1.394958
     10          6           0       -2.939804    0.846295    3.345195
     11          6           0       -2.080450   -0.755762   -0.001588
     12          6           0       -0.673189   -0.854754    0.492997
     13          6           0        0.315503   -0.991402   -0.685242
     14          8           0        0.009493   -1.216407   -1.804751
     15          8           0        1.663968   -0.782003   -0.279042
     16          7           0       -7.076501    2.690671    0.551499
     17          6           0       -5.940687    3.290318    1.076767
     18          6           0       -6.253590    4.723139    1.167631
     19          6           0       -7.533401    4.971000    0.548750
     20          6           0       -8.134688    3.635305    0.256610
     21          6           0       -5.296058    5.709195    1.647090
     22          6           0       -8.238932    6.266218    0.421655
     23          6           0       -8.972504    6.631222   -0.661586
     24          7           0       -9.139758    0.901757   -0.594998
     25          6           0       -9.841685    2.040599   -0.541068
     26          6           0      -11.220811    1.850944   -0.940537
     27          6           0      -11.368902    0.504506   -1.261365
     28          6           0      -10.112120   -0.090393   -0.820314
     29          6           0      -12.274965    2.975611   -1.036821
     30          6           0      -12.600922   -0.263324   -1.790239
     31          6           0      -12.609625   -0.566715   -3.181812
     32          7           0       -7.553191   -1.268922   -0.156861
     33          6           0       -8.611711   -2.002253   -0.598206
     34          6           0       -8.119846   -3.408468   -0.590204
     35          6           0       -6.832507   -3.457845   -0.319305
     36          6           0       -6.402704   -2.044367    0.081224
     37          6           0       -8.894199   -4.569616   -1.220139
     38          6           0       -5.741148   -4.267474    0.089779
     39          8           0       -5.684271   -5.506197    0.030316
     40          6           0       -4.576252   -3.380161    0.588560
     41          6           0       -3.918187   -3.840808    1.951800
     42          8           0       -4.187906   -3.362636    2.994459
     43          8           0       -3.051479   -4.887383    1.772978
     44          6           0       -2.459248   -5.377227    2.953960
     45          6           0        2.622677   -1.035505   -1.426476
     46          6           0        3.951992   -0.680852   -0.718926
     47          6           0        4.890372    0.076017   -1.196089
     48          6           0        4.857746    0.802165   -2.550637
     49          6           0        6.289572    0.298125   -0.574581
     50          6           0        7.491726   -0.380319   -1.248674
     51          6           0        8.789917   -0.180796   -0.333420
     52          6           0       10.041714   -0.672827   -0.850860
     53          6           0       10.068070   -2.133576   -1.180231
     54          6           0       11.256279   -0.282504   -0.013724
     55          6           0       12.565597   -0.520118   -0.589305
     56          6           0       13.773443   -0.045469    0.267796
     57          6           0       15.211899   -0.102632   -0.472009
     58          6           0       15.582558   -1.597052   -0.952481
     59          6           0       16.330319    0.556686    0.480032
     60          6           0       17.706885    0.610053   -0.076818
     61          6           0       18.662481    1.452794    0.821985
     62          6           0       20.080795    1.626252    0.266373
     63          6           0       20.032059    2.463213   -0.989875
     64          6           0       20.939574    2.128328    1.349571
     65          1           0       -3.950747    3.268847    2.058256
     66          1           0       -9.986371    4.090304   -0.415547
     67          1           0      -10.589004   -2.178507   -1.360869
     68          1           0       -2.692065   -1.240454    1.985835
     69          1           0       -2.366144    1.620523    1.443284
     70          1           0       -1.885492    0.525350    3.849508
     71          1           0       -3.148578    1.760761    3.938651
     72          1           0       -3.781717    0.334742    3.815609
     73          1           0       -2.339122   -1.483395   -0.871563
     74          1           0       -2.211507    0.252367   -0.507521
     75          1           0       -0.469406   -0.011725    0.942597
     76          1           0       -0.541819   -1.774562    1.384892
     77          1           0       -4.261009    5.965458    1.000403
     78          1           0       -5.757835    6.663977    1.606763
     79          1           0       -4.901486    5.542445    2.675775
     80          1           0       -8.009799    7.032670    1.054651
     81          1           0       -9.165739    6.014796   -1.613340
     82          1           0       -9.467198    7.774303   -0.818035
     83          1           0      -12.692397    3.289107   -0.058214
     84          1           0      -11.702549    4.087292   -1.360173
     85          1           0      -13.337860    2.721430   -1.443101
     86          1           0      -12.552732   -1.184607   -1.312318
     87          1           0      -13.689817    0.411512   -1.667264
     88          1           0      -12.840090    0.473173   -3.792635
     89          1           0      -11.690431   -0.914114   -3.453277
     90          1           0      -13.514543   -1.255716   -3.460427
     91          1           0       -9.993900   -4.675276   -0.763126
     92          1           0       -9.030614   -4.564138   -2.335832
     93          1           0       -8.216763   -5.364732   -1.081681
     94          1           0       -3.760509   -3.746586   -0.106285
     95          1           0       -1.691704   -6.169570    2.811557
     96          1           0       -2.108648   -4.325471    3.504543
     97          1           0       -3.294892   -5.902431    3.632248
     98          1           0        2.732480   -2.144009   -1.778951
     99          1           0        2.401207   -0.455453   -2.327243
    100          1           0        4.064560   -1.009047    0.329618
    101          1           0        5.299747    1.889987   -2.371791
    102          1           0        5.402556    0.410484   -3.461893
    103          1           0        3.738263    0.962930   -2.966465
    104          1           0        6.423970    1.363349   -0.608563
    105          1           0        6.327551    0.157525    0.431670
    106          1           0        7.166369   -1.390494   -1.365813
    107          1           0        7.741659   -0.026750   -2.124751
    108          1           0        8.956193    0.983394   -0.072866
    109          1           0        8.644406   -0.471012    0.787122
    110          1           0       10.108630   -0.218200   -1.805003
    111          1           0        9.169590   -2.666379   -1.831880
    112          1           0       11.154337   -2.494112   -1.461699
    113          1           0       10.057929   -2.647725   -0.308405
    114          1           0       11.211960    0.809116    0.626117
    115          1           0       11.162331   -0.818202    1.015829
    116          1           0       12.705479   -1.496430   -0.955846
    117          1           0       12.543700   -0.206373   -1.560867
    118          1           0       13.519257    0.987018    0.554798
    119          1           0       13.470924   -0.323724    1.339081
    120          1           0       15.166741    0.481242   -1.237748
    121          1           0       14.987969   -2.056566   -1.662054
    122          1           0       16.518109   -1.486097   -1.657553
    123          1           0       15.599820   -2.335053   -0.067521
    124          1           0       15.880462    1.467085    0.611481
    125          1           0       16.288548   -0.005383    1.548681
    126          1           0       18.306056   -0.401970   -0.355173
    127          1           0       17.723941    1.217150   -1.039526
    128          1           0       18.153553    2.477501    1.014843
    129          1           0       18.633984    0.894332    1.963139
    130          1           0       20.439969    0.511696    0.003246
    131          1           0       19.685887    3.556088   -0.946609
    132          1           0       21.174395    2.478020   -1.319553
    133          1           0       19.689067    1.884632   -1.799438
    134          1           0       20.717513    1.614577    2.399670
    135          1           0       21.954231    2.004326    1.106030
    136          1           0       20.653321    3.322917    1.704560
    137          1           0       -7.010873    1.681996    0.543447
    138          1           0       -7.476101   -0.301231   -0.274617
 ---------------------------------------------------------------------

 SCF Done:  E(RB3LYP) =  -2732.99606325     A.U. after   17 cycles

 Excitation energies and oscillator strengths:

 Excited State   1:      Singlet-A      2.0454 eV  606.18 nm  f=0.1611  <S**2>=0.000
     235 -> 238        0.32385
     236 -> 237        0.62641
 This state for optimization and/or second-order correction.
 Total Energy, E(TD-HF/TD-DFT) =  -2732.92089802
 Copying the excited state density for this state as the 1-particle RhoCI density.

 The electronic state is 1-A.
 Alpha  occ. eigenvalues --  -19.18252 -19.17427 -19.13953 -19.13606 -19.11576
 Alpha  occ. eigenvalues --  -14.37415 -14.37063 -14.32658 -14.29826 -10.32306
 Alpha  occ. eigenvalues --  -10.32007 -10.27643 -10.26439 -10.25820 -10.24761
 Alpha  occ. eigenvalues --  -10.24728 -10.24354 -10.23782 -10.23765 -10.23269
 Alpha  occ. eigenvalues --  -10.22201 -10.22154 -10.22084 -10.21540 -10.21530
 Alpha  occ. eigenvalues --  -10.21464 -10.21421 -10.21260 -10.21106 -10.21019
 Alpha  occ. eigenvalues --  -10.21005 -10.20874 -10.20870 -10.20823 -10.20749
 Alpha  occ. eigenvalues --  -10.20665 -10.20563 -10.20147 -10.19812 -10.19800
 Alpha  occ. eigenvalues --  -10.19771 -10.19729 -10.19601 -10.19511 -10.19488
 Alpha  occ. eigenvalues --  -10.19425 -10.19376 -10.19250 -10.19134 -10.19060
 Alpha  occ. eigenvalues --  -10.19024 -10.18950 -10.18864 -10.18756 -10.18589
 Alpha  occ. eigenvalues --  -10.18570 -10.18489 -10.18464 -10.18385 -10.18316
 Alpha  occ. eigenvalues --  -10.18146 -10.17828 -10.17569 -10.16446  -1.10554
 Alpha  occ. eigenvalues --   -1.08605  -1.02652  -1.01054  -1.00165  -0.97976
 Alpha  occ. eigenvalues --   -0.96155  -0.94282  -0.92985  -0.85048  -0.83279
 Alpha  occ. eigenvalues --   -0.82707  -0.81733  -0.81535  -0.81322  -0.81298
 Alpha  occ. eigenvalues --   -0.80576  -0.79872  -0.79405  -0.78950  -0.77957
 Alpha  occ. eigenvalues --   -0.77196  -0.76532  -0.76112  -0.75118  -0.74770
 Alpha  occ. eigenvalues --   -0.73424  -0.73321  -0.72455  -0.71291  -0.70521
 Alpha  occ. eigenvalues --   -0.70068  -0.68960  -0.68493  -0.67828  -0.67187
 Alpha  occ. eigenvalues --   -0.66802  -0.66758  -0.66170  -0.65910  -0.65247
 Alpha  occ. eigenvalues --   -0.64398  -0.63140  -0.62564  -0.61986  -0.61399
 Alpha  occ. eigenvalues --   -0.60113  -0.59952  -0.59611  -0.58932  -0.58821
 Alpha  occ. eigenvalues --   -0.57634  -0.56482  -0.56343  -0.55871  -0.55681
 Alpha  occ. eigenvalues --   -0.55396  -0.54996  -0.54447  -0.53567  -0.53545
 Alpha  occ. eigenvalues --   -0.52542  -0.52342  -0.51795  -0.50750  -0.50354
 Alpha  occ. eigenvalues --   -0.50224  -0.49435  -0.48951  -0.48394  -0.48264
 Alpha  occ. eigenvalues --   -0.47970  -0.47575  -0.47474  -0.47282  -0.47075
 Alpha  occ. eigenvalues --   -0.46905  -0.46455  -0.46244  -0.46092  -0.45842
 Alpha  occ. eigenvalues --   -0.45712  -0.45502  -0.45286  -0.44856  -0.44812
 Alpha  occ. eigenvalues --   -0.44434  -0.44348  -0.44187  -0.43870  -0.43737
 Alpha  occ. eigenvalues --   -0.43550  -0.42985  -0.42856  -0.42717  -0.42694
 Alpha  occ. eigenvalues --   -0.42097  -0.42074  -0.41791  -0.41466  -0.41349
 Alpha  occ. eigenvalues --   -0.41197  -0.40909  -0.40541  -0.40439  -0.40366
 Alpha  occ. eigenvalues --   -0.40220  -0.40156  -0.39966  -0.39832  -0.39443
 Alpha  occ. eigenvalues --   -0.39287  -0.39060  -0.38762  -0.38559  -0.38407
 Alpha  occ. eigenvalues --   -0.38272  -0.38061  -0.37760  -0.37529  -0.37313
 Alpha  occ. eigenvalues --   -0.37213  -0.37084  -0.37001  -0.36931  -0.36633
 Alpha  occ. eigenvalues --   -0.36367  -0.36347  -0.36220  -0.36157  -0.35778
 Alpha  occ. eigenvalues --   -0.35682  -0.35580  -0.35230  -0.34970  -0.34791
 Alpha  occ. eigenvalues --   -0.34359  -0.34323  -0.34166  -0.34059  -0.33894
 Alpha  occ. eigenvalues --   -0.33492  -0.33078  -0.32918  -0.32839  -0.32412
 Alpha  occ. eigenvalues --   -0.32011  -0.31873  -0.31842  -0.31253  -0.31229
 Alpha  occ. eigenvalues --   -0.30771  -0.30754  -0.30731  -0.30465  -0.30337
 Alpha  occ. eigenvalues --   -0.29783  -0.29054  -0.28867  -0.28670  -0.28346
 Alpha  occ. eigenvalues --   -0.27956  -0.27322  -0.26975  -0.26862  -0.26549
 Alpha  occ. eigenvalues --   -0.25594  -0.24918  -0.23937  -0.22066  -0.20516
 Alpha  occ. eigenvalues --   -0.18910
 Alpha virt. eigenvalues --   -0.10175  -0.08541  -0.05241  -0.02558  -0.01163
 Alpha virt. eigenvalues --   -0.00601   0.00025   0.01216   0.01316   0.02602
 Alpha virt. eigenvalues --    0.03674   0.03966   0.04109   0.04292   0.04873

 Mulliken charges:
               1
     1  C    0.083532
     2  C   -0.059293
     3  C   -0.025710
     4  C   -0.086840
     5  N   -0.200349
     6  C   -0.078546
     7  C    0.084095
     8  C    0.034072
     9  C   -0.092494
    10  C    0.020437
    11  C   -0.008268
    12  C    0.083155
    13  C    0.195901
    14  O   -0.192912
    15  O   -0.375128
    16  N   -0.117651
    17  C    0.174730
    18  C   -0.128031
    19  C    0.032461
    20  C    0.163867
    21  C    0.059226
    22  C    0.021930
    23  C   -0.121908
    24  N   -0.244143
    25  C    0.098922
    26  C   -0.109919
    27  C   -0.122624
    28  C    0.106412
    29  C    0.012964
    30  C    0.089978
    31  C   -0.003953
    32  N   -0.013296
    33  C    0.069831
    34  C   -0.155181
    35  C    0.032741
    36  C    0.036463
    37  C    0.055610
    38  C    0.068383
    39  O   -0.202782
    40  C   -0.043854
    41  C    0.175019
    42  O   -0.178591
    43  O   -0.295039
    44  C    0.101321
    45  C    0.252841
    46  C   -0.077823
    47  C   -0.106475
    48  C   -0.038454
    49  C    0.120550
    50  C    0.153682
    51  C   -0.077009
    52  C    0.059789
    53  C    0.017418
    54  C   -0.095732
    55  C    0.159779
    56  C    0.017844
    57  C    0.040288
    58  C    0.006910
    59  C    0.064063
    60  C    0.010955
    61  C   -0.081127
    62  C   -0.093202
    63  C    0.042625
    64  C    0.019966
    65  H   -0.017186
    66  H   -0.120074
    67  H   -0.011560
    68  H   -0.029587
    69  H   -0.042771
    70  H    0.031398
    71  H    0.000404
    72  H    0.026595
    73  H    0.060145
    74  H    0.010193
    75  H   -0.030710
    76  H    0.064593
    77  H    0.038855
    78  H   -0.008395
    79  H    0.029536
    80  H   -0.021756
    81  H    0.056171
    82  H    0.054091
    83  H    0.015980
    84  H    0.042887
    85  H    0.026167
    86  H   -0.019069
    87  H    0.019620
    88  H    0.015450
    89  H   -0.006696
    90  H    0.026965
    91  H    0.040885
    92  H    0.036805
    93  H    0.022502
    94  H    0.056537
    95  H    0.050910
    96  H    0.050538
    97  H    0.046899
    98  H    0.049029
    99  H    0.028464
   100  H   -0.004063
   101  H    0.027583
   102  H    0.043408
   103  H    0.022610
   104  H   -0.026824
   105  H   -0.048637
   106  H   -0.002804
   107  H   -0.050177
   108  H   -0.002638
   109  H   -0.012195
   110  H   -0.027749
   111  H    0.038823
   112  H    0.007760
   113  H   -0.042101
   114  H   -0.001552
   115  H   -0.011960
   116  H   -0.044407
   117  H   -0.067003
   118  H   -0.032169
   119  H   -0.017249
   120  H   -0.060540
   121  H   -0.011261
   122  H    0.013262
   123  H    0.030707
   124  H   -0.029103
   125  H    0.012124
   126  H    0.022802
   127  H   -0.008108
   128  H    0.001508
   129  H    0.004897
   130  H    0.007953
   131  H    0.036730
   132  H   -0.002069
   133  H    0.001419
   134  H    0.018340
   135  H    0.001906
   136  H    0.012997
   137  H    0.136298
   138  H    0.126241
 Sum of Mulliken charges =  -0.00000

 Dipole moment (field-independent basis, Debye):
    X=              2.9545    Y=              4.3540    Z=              0.1820  Tot=              5.2649
 Quadrupole moment (field-independent basis, Debye-Ang):
   XX=           -367.8493   YY=           -385.3918   ZZ=           -394.3092
   XY=            -25.4183   XZ=             -6.2702   YZ=              3.0180

 Normal termination of Gaussian 16 at Tue Aug 27 14:07:02 2019.
