 Gaussian 16, Revision A.03,
 Gaussian 16:  ES64L-G16RevA.03 25-Dec-2016

 --------------------------
 # td=(NStates=1) B3LYP/SVP
 --------------------------

 --
 TD
 --
 Symbolic Z-matrix:
 Charge =  0 Multiplicity = 1

                         Standard orientation:
 ---------------------------------------------------------------------
 Center     Atomic      Atomic             Coordinates (Angstroms)
 Number     Number       Type             X           Y           Z
 ---------------------------------------------------------------------
      1          6           0       -5.065184   -2.041710    0.420196
      2          6           0       -4.707265    2.755417    1.413544
      3          6           0       -9.204258    3.406953   -0.316909
      4          6           0       -9.826139   -1.321365   -0.890221
      5          7           0       -5.143697    0.400130    0.724125
      6          6           0       -4.486941   -0.878342    0.819383
      7          6           0       -3.047144   -0.588316    1.258014
      8          6           0       -3.123915    0.741874    1.838169
      9          6           0       -4.411002    1.366149    1.331255
     10          6           0       -2.996002    0.848032    3.454621
     11          6           0       -1.993626   -0.930788    0.055859
     12          6           0       -0.573089   -0.888904    0.488983
     13          6           0        0.322888   -1.186161   -0.665997
     14          8           0        0.101832   -1.814242   -1.702270
     15          8           0        1.648540   -0.748989   -0.337969
     16          7           0       -6.937856    2.739597    0.435218
     17          6           0       -5.835562    3.365143    1.073843
     18          6           0       -6.162940    4.858593    1.174275
     19          6           0       -7.407457    4.988218    0.549411
     20          6           0       -7.899866    3.716103    0.143482
     21          6           0       -5.149650    5.769183    1.690951
     22          6           0       -8.116870    6.349229    0.619000
     23          6           0       -8.882693    6.758549   -0.353829
     24          7           0       -9.066979    0.995202   -0.552365
     25          6           0       -9.732626    2.166835   -0.617396
     26          6           0      -11.164285    2.035148   -1.049622
     27          6           0      -11.339740    0.773799   -1.165515
     28          6           0       -9.995185    0.014173   -0.885089
     29          6           0      -12.074841    3.163416   -1.309246
     30          6           0      -12.607277   -0.029125   -1.558642
     31          6           0      -12.759724   -0.348620   -3.088489
     32          7           0       -7.565536   -1.326299   -0.153973
     33          6           0       -8.611400   -1.931828   -0.588655
     34          6           0       -8.238417   -3.361652   -0.712425
     35          6           0       -6.946913   -3.559754   -0.158778
     36          6           0       -6.535749   -2.131029   -0.007537
     37          6           0       -9.173303   -4.516054   -0.944263
     38          6           0       -5.811272   -4.319241    0.119932
     39          8           0       -5.688694   -5.598845   -0.006861
     40          6           0       -4.526499   -3.387455    0.452984
     41          6           0       -4.010115   -3.883404    1.777139
     42          8           0       -4.322495   -3.430668    2.811926
     43          8           0       -3.146877   -4.962761    1.540579
     44          6           0       -2.804065   -5.608185    2.787888
     45          6           0        2.604752   -1.099582   -1.311650
     46          6           0        4.000090   -0.686760   -0.648442
     47          6           0        4.981981   -0.029136   -1.287469
     48          6           0        4.910356    0.443195   -2.807640
     49          6           0        6.270946    0.343104   -0.509524
     50          6           0        7.513225   -0.406549   -1.085443
     51          6           0        8.725296   -0.146438   -0.268906
     52          6           0       10.061436   -0.661364   -0.920482
     53          6           0       10.038188   -2.138358   -1.153467
     54          6           0       11.194993   -0.246422    0.014847
     55          6           0       12.595862   -0.453481   -0.535487
     56          6           0       13.783620    0.067794    0.430801
     57          6           0       15.193412   -0.128526   -0.216561
     58          6           0       15.471662   -1.611292   -0.384143
     59          6           0       16.325101    0.587127    0.644358
     60          6           0       17.674903    0.658739   -0.205240
     61          6           0       18.607332    1.502583    0.689180
     62          6           0       20.091955    1.649807    0.133365
     63          6           0       20.211497    2.331839   -1.159153
     64          6           0       20.936009    2.312092    1.236548
     65          1           0       -3.984776    3.314648    1.832984
     66          1           0       -9.909355    4.386107   -0.341877
     67          1           0      -10.842216   -1.930406   -1.308959
     68          1           0       -2.778304   -1.384704    2.161549
     69          1           0       -2.302054    1.421482    1.504555
     70          1           0       -2.052488    0.538313    3.685220
     71          1           0       -3.384641    1.912429    3.778353
     72          1           0       -3.726927    0.245968    3.824863
     73          1           0       -2.604484   -1.852137   -0.399810
     74          1           0       -2.343590   -0.232910   -0.759909
     75          1           0       -0.412443    0.051268    1.003345
     76          1           0       -0.661995   -1.670491    1.109851
     77          1           0       -4.233967    5.756849    0.966971
     78          1           0       -5.539249    6.830684    1.751684
     79          1           0       -4.690902    5.747683    2.778871
     80          1           0       -7.774793    7.071173    1.539726
     81          1           0       -9.160946    6.235676   -1.249112
     82          1           0       -9.405755    7.801938   -0.386439
     83          1           0      -12.406230    3.752791   -0.316629
     84          1           0      -11.750874    3.868696   -1.970464
     85          1           0      -13.107634    2.946268   -1.831090
     86          1           0      -12.664483   -0.874237   -0.879425
     87          1           0      -13.468616    0.470276   -1.218346
     88          1           0      -12.396528    0.547172   -3.733917
     89          1           0      -11.942174   -0.893990   -3.417312
     90          1           0      -13.541489   -0.845406   -3.194949
     91          1           0      -10.147960   -4.378913   -0.293948
     92          1           0       -9.569710   -4.219451   -1.882672
     93          1           0       -8.552204   -5.591107   -0.747532
     94          1           0       -3.691072   -3.456604   -0.182950
     95          1           0       -2.203064   -6.426497    2.233275
     96          1           0       -2.039005   -4.905021    3.535099
     97          1           0       -3.556776   -6.075266    3.314285
     98          1           0        2.626692   -2.366397   -1.560468
     99          1           0        2.500256   -0.587424   -2.292554
    100          1           0        4.101603   -1.252401    0.361135
    101          1           0        4.831961    1.492553   -2.667066
    102          1           0        5.623169   -0.014650   -3.574263
    103          1           0        3.841120    0.450365   -3.216264
    104          1           0        6.501655    1.509632   -0.729827
    105          1           0        6.144874    0.105964    0.596224
    106          1           0        7.257407   -1.379599   -1.120091
    107          1           0        7.667389    0.103957   -2.036406
    108          1           0        8.782949    1.031173   -0.193121
    109          1           0        8.661773   -0.469521    0.676832
    110          1           0       10.226021    0.068214   -1.868295
    111          1           0        9.366516   -2.484778   -1.899868
    112          1           0       11.068855   -2.407443   -1.398194
    113          1           0        9.949261   -2.641555    0.085978
    114          1           0       10.928405    0.787379    0.586202
    115          1           0       11.181633   -0.878520    0.983291
    116          1           0       12.680348   -1.611303   -0.655973
    117          1           0       12.763883    0.121267   -1.569043
    118          1           0       13.564482    1.056886    0.597664
    119          1           0       13.747372   -0.535450    1.328621
    120          1           0       15.020933    0.339547   -1.257088
    121          1           0       14.767325   -2.249520   -1.017552
    122          1           0       16.336777   -1.836033   -0.895632
    123          1           0       15.431002   -1.811542    0.647755
    124          1           0       16.017531    1.615292    0.787113
    125          1           0       16.521633    0.159193    1.569781
    126          1           0       18.161385   -0.352235   -0.597910
    127          1           0       17.462422    1.389399   -1.303868
    128          1           0       18.233258    2.681367    0.695383
    129          1           0       18.659061    1.144719    1.587216
    130          1           0       20.505498    0.595194    0.179742
    131          1           0       19.622157    3.253016   -1.149605
    132          1           0       21.265832    2.492493   -1.397522
    133          1           0       19.899953    1.782620   -2.053783
    134          1           0       21.050510    1.496284    2.018944
    135          1           0       22.044669    2.381345    0.792795
    136          1           0       20.759627    3.435950    1.360145
    137          1           0       -7.098915    1.689244    0.300701
    138          1           0       -7.338476   -0.402843   -0.091559
 ---------------------------------------------------------------------

 SCF Done:  E(RB3LYP) =  -2732.95445878     A.U. after   17 cycles

 Excitation energies and oscillator strengths:

 Excited State   1:      Singlet-A      2.0514 eV  604.40 nm  f=0.2757  <S**2>=0.000
     235 -> 238        0.21280
     236 -> 237        0.66765
 This state for optimization and/or second-order correction.
 Total Energy, E(TD-HF/TD-DFT) =  -2732.87907232
 Copying the excited state density for this state as the 1-particle RhoCI density.

 The electronic state is 1-A.
 Alpha  occ. eigenvalues --  -19.17572 -19.17542 -19.14031 -19.13402 -19.11013
 Alpha  occ. eigenvalues --  -14.38457 -14.36834 -14.32689 -14.30895 -10.32681
 Alpha  occ. eigenvalues --  -10.31234 -10.27815 -10.25459 -10.25121 -10.24466
 Alpha  occ. eigenvalues --  -10.24203 -10.24143 -10.23662 -10.23534 -10.22912
 Alpha  occ. eigenvalues --  -10.22346 -10.22143 -10.22023 -10.21882 -10.21724
 Alpha  occ. eigenvalues --  -10.21686 -10.21672 -10.21348 -10.21281 -10.21274
 Alpha  occ. eigenvalues --  -10.21023 -10.20972 -10.20852 -10.20770 -10.20404
 Alpha  occ. eigenvalues --  -10.20349 -10.20337 -10.20270 -10.20219 -10.20033
 Alpha  occ. eigenvalues --  -10.19987 -10.19944 -10.19563 -10.19555 -10.19473
 Alpha  occ. eigenvalues --  -10.19282 -10.19176 -10.19051 -10.19028 -10.18941
 Alpha  occ. eigenvalues --  -10.18932 -10.18837 -10.18637 -10.18635 -10.18587
 Alpha  occ. eigenvalues --  -10.18343 -10.18233 -10.18022 -10.17351 -10.17344
 Alpha  occ. eigenvalues --  -10.17202 -10.17086 -10.16914 -10.16591  -1.09289
 Alpha  occ. eigenvalues --   -1.07805  -1.02871  -1.01878  -1.00320  -0.97725
 Alpha  occ. eigenvalues --   -0.96219  -0.93432  -0.93026  -0.85016  -0.82381
 Alpha  occ. eigenvalues --   -0.81992  -0.81755  -0.81459  -0.80948  -0.80508
 Alpha  occ. eigenvalues --   -0.80291  -0.79982  -0.79639  -0.79274  -0.77968
 Alpha  occ. eigenvalues --   -0.76817  -0.76209  -0.76035  -0.75140  -0.74198
 Alpha  occ. eigenvalues --   -0.73771  -0.73030  -0.71892  -0.71331  -0.71205
 Alpha  occ. eigenvalues --   -0.70020  -0.69456  -0.68814  -0.68347  -0.67604
 Alpha  occ. eigenvalues --   -0.67558  -0.66885  -0.66364  -0.65975  -0.65079
 Alpha  occ. eigenvalues --   -0.64390  -0.63881  -0.63249  -0.62336  -0.60838
 Alpha  occ. eigenvalues --   -0.59900  -0.58955  -0.58271  -0.57770  -0.57060
 Alpha  occ. eigenvalues --   -0.56385  -0.56205  -0.55808  -0.55594  -0.54980
 Alpha  occ. eigenvalues --   -0.54757  -0.54077  -0.53678  -0.53513  -0.53106
 Alpha  occ. eigenvalues --   -0.52819  -0.52102  -0.51506  -0.51188  -0.50478
 Alpha  occ. eigenvalues --   -0.50008  -0.49916  -0.49121  -0.48748  -0.48719
 Alpha  occ. eigenvalues --   -0.48559  -0.47938  -0.47869  -0.47524  -0.46911
 Alpha  occ. eigenvalues --   -0.46753  -0.46639  -0.46412  -0.46062  -0.45933
 Alpha  occ. eigenvalues --   -0.45858  -0.45557  -0.45317  -0.44645  -0.44565
 Alpha  occ. eigenvalues --   -0.44264  -0.44142  -0.43981  -0.43872  -0.43695
 Alpha  occ. eigenvalues --   -0.43502  -0.43241  -0.42962  -0.42684  -0.42577
 Alpha  occ. eigenvalues --   -0.42442  -0.42218  -0.41942  -0.41752  -0.41384
 Alpha  occ. eigenvalues --   -0.41183  -0.40902  -0.40796  -0.40635  -0.40370
 Alpha  occ. eigenvalues --   -0.40203  -0.40013  -0.39934  -0.39639  -0.39571
 Alpha  occ. eigenvalues --   -0.39287  -0.39063  -0.38989  -0.38519  -0.38258
 Alpha  occ. eigenvalues --   -0.38117  -0.38022  -0.37712  -0.37504  -0.37270
 Alpha  occ. eigenvalues --   -0.37027  -0.36892  -0.36666  -0.36456  -0.36301
 Alpha  occ. eigenvalues --   -0.36247  -0.36106  -0.35822  -0.35564  -0.35481
 Alpha  occ. eigenvalues --   -0.35398  -0.35125  -0.34655  -0.34192  -0.34177
 Alpha  occ. eigenvalues --   -0.33836  -0.33749  -0.33632  -0.33581  -0.33451
 Alpha  occ. eigenvalues --   -0.33344  -0.32814  -0.32714  -0.32432  -0.32299
 Alpha  occ. eigenvalues --   -0.32155  -0.31786  -0.31729  -0.31228  -0.31179
 Alpha  occ. eigenvalues --   -0.31170  -0.30686  -0.30590  -0.30409  -0.30117
 Alpha  occ. eigenvalues --   -0.29933  -0.29402  -0.28831  -0.28527  -0.28150
 Alpha  occ. eigenvalues --   -0.27388  -0.27033  -0.26926  -0.26574  -0.25547
 Alpha  occ. eigenvalues --   -0.24945  -0.24586  -0.24204  -0.24187  -0.20463
 Alpha  occ. eigenvalues --   -0.18703
 Alpha virt. eigenvalues --   -0.10554  -0.06734  -0.05608  -0.02123  -0.01984
 Alpha virt. eigenvalues --    0.00071   0.00484   0.00658   0.01581   0.03587
 Alpha virt. eigenvalues --    0.03632   0.03675   0.03959   0.04119   0.04414

 Mulliken charges:
               1
     1  C    0.058916
     2  C   -0.029921
     3  C   -0.162424
     4  C   -0.146456
     5  N   -0.239390
     6  C   -0.057907
     7  C   -0.087282
     8  C   -0.051038
     9  C    0.006097
    10  C    0.122019
    11  C   -0.054233
    12  C    0.234066
    13  C    0.205944
    14  O   -0.222837
    15  O   -0.338649
    16  N   -0.154024
    17  C    0.151967
    18  C   -0.074745
    19  C   -0.015469
    20  C    0.124199
    21  C   -0.001687
    22  C   -0.027538
    23  C   -0.057697
    24  N   -0.237291
    25  C    0.082508
    26  C   -0.079469
    27  C   -0.115878
    28  C    0.037047
    29  C    0.070550
    30  C    0.067880
    31  C    0.148229
    32  N    0.188207
    33  C    0.071360
    34  C   -0.177409
    35  C    0.104460
    36  C   -0.113128
    37  C    0.051262
    38  C    0.028262
    39  O   -0.258970
    40  C    0.029095
    41  C    0.175162
    42  O   -0.170703
    43  O   -0.327929
    44  C    0.140285
    45  C    0.182243
    46  C   -0.105198
    47  C   -0.120855
    48  C    0.059640
    49  C    0.002636
    50  C    0.093854
    51  C    0.047493
    52  C   -0.082983
    53  C    0.042974
    54  C   -0.037096
    55  C   -0.040067
    56  C    0.085160
    57  C   -0.087318
    58  C    0.073280
    59  C    0.100070
    60  C   -0.087153
    61  C    0.064458
    62  C   -0.118596
    63  C    0.081003
    64  C   -0.009529
    65  H   -0.082117
    66  H    0.020777
    67  H    0.049359
    68  H    0.027432
    69  H   -0.005019
    70  H    0.004095
    71  H    0.019968
    72  H   -0.003622
    73  H    0.028128
    74  H    0.005243
    75  H    0.032117
    76  H    0.000437
    77  H    0.055206
    78  H    0.014156
    79  H    0.049184
    80  H    0.051279
    81  H    0.030987
    82  H    0.035713
    83  H    0.035173
    84  H   -0.005661
    85  H    0.018979
    86  H   -0.010050
    87  H   -0.026913
    88  H    0.015751
    89  H   -0.030989
    90  H   -0.036421
    91  H    0.035467
    92  H    0.010155
    93  H    0.093306
    94  H    0.036053
    95  H    0.045610
    96  H    0.048825
    97  H    0.030989
    98  H    0.043034
    99  H    0.016210
   100  H    0.019266
   101  H    0.003314
   102  H    0.070124
   103  H   -0.004228
   104  H    0.014447
   105  H    0.010540
   106  H   -0.024846
   107  H   -0.008515
   108  H   -0.010271
   109  H   -0.049838
   110  H    0.007075
   111  H    0.020218
   112  H    0.002427
   113  H    0.016867
   114  H    0.001240
   115  H   -0.015704
   116  H    0.029783
   117  H    0.011001
   118  H   -0.026121
   119  H   -0.019627
   120  H   -0.010671
   121  H    0.011202
   122  H   -0.019125
   123  H   -0.010355
   124  H   -0.007084
   125  H   -0.015851
   126  H    0.035750
   127  H    0.015174
   128  H    0.009410
   129  H   -0.057714
   130  H   -0.015055
   131  H    0.001174
   132  H   -0.003942
   133  H    0.002025
   134  H    0.024546
   135  H   -0.003257
   136  H    0.023289
   137  H    0.181924
   138  H    0.099109
 Sum of Mulliken charges =  -0.00000

 Dipole moment (field-independent basis, Debye):
    X=              0.6704    Y=              6.2810    Z=              1.0702  Tot=              6.4067
 Quadrupole moment (field-independent basis, Debye-Ang):
   XX=           -341.6527   YY=           -390.1799   ZZ=           -391.8605
   XY=            -40.4702   XZ=              7.1763   YZ=             -3.0955

 Normal termination of Gaussian 16 at Wed Aug 14 09:22:56 2019.
