 Gaussian 16, Revision A.03,
 Gaussian 16:  ES64L-G16RevA.03 25-Dec-2016

 --------------------------
 # td=(NStates=1) B3LYP/SVP
 --------------------------

 --
 TD
 --
 Symbolic Z-matrix:
 Charge =  0 Multiplicity = 1

                         Standard orientation:
 ---------------------------------------------------------------------
 Center     Atomic      Atomic             Coordinates (Angstroms)
 Number     Number       Type             X           Y           Z
 ---------------------------------------------------------------------
      1          6           0       -5.180577   -1.985879    0.425355
      2          6           0       -4.768598    2.674144    1.440597
      3          6           0       -9.352308    3.371093   -0.366201
      4          6           0       -9.733553   -1.561557   -1.228828
      5          7           0       -5.173476    0.430673    0.850427
      6          6           0       -4.610323   -0.763478    0.880670
      7          6           0       -3.072077   -0.578200    1.373773
      8          6           0       -3.070053    0.840218    1.940281
      9          6           0       -4.451741    1.409222    1.438370
     10          6           0       -3.120250    0.806600    3.484064
     11          6           0       -2.130328   -0.856378    0.121206
     12          6           0       -0.690788   -0.615826    0.608274
     13          6           0        0.302263   -0.830881   -0.491068
     14          8           0        0.071957   -1.102740   -1.591869
     15          8           0        1.642385   -0.714679   -0.026642
     16          7           0       -6.984742    2.734343    0.441711
     17          6           0       -6.006115    3.342393    0.986887
     18          6           0       -6.306250    4.673993    1.296115
     19          6           0       -7.576557    4.970971    0.647473
     20          6           0       -8.048689    3.621909    0.104094
     21          6           0       -5.391514    5.792189    1.903409
     22          6           0       -8.202672    6.201295    0.395575
     23          6           0       -9.091589    6.558144   -0.555685
     24          7           0       -9.139429    0.897736   -0.454746
     25          6           0       -9.829923    2.124244   -0.596355
     26          6           0      -11.152883    1.826903   -1.118771
     27          6           0      -11.254875    0.533475   -1.380839
     28          6           0       -9.925004   -0.017414   -0.996770
     29          6           0      -12.303334    2.765309   -1.137894
     30          6           0      -12.422839   -0.272048   -1.861621
     31          6           0      -12.371105   -0.577249   -3.311149
     32          7           0       -7.378817   -1.313860   -0.411337
     33          6           0       -8.510068   -2.088848   -0.834163
     34          6           0       -8.188413   -3.519780   -0.726234
     35          6           0       -6.780664   -3.510390   -0.217481
     36          6           0       -6.418967   -2.169196    0.055422
     37          6           0       -9.078862   -4.641231   -1.048361
     38          6           0       -5.621588   -4.265482   -0.010581
     39          8           0       -5.575500   -5.505059   -0.045369
     40          6           0       -4.441785   -3.384472    0.498740
     41          6           0       -3.897496   -3.814734    1.882730
     42          8           0       -4.185571   -3.299086    2.909871
     43          8           0       -3.270576   -4.869213    1.637427
     44          6           0       -2.759432   -5.601409    2.837255
     45          6           0        2.568079   -0.784608   -1.175774
     46          6           0        3.936336   -0.457865   -0.544339
     47          6           0        4.899287    0.407958   -1.015895
     48          6           0        4.764752    1.266255   -2.228702
     49          6           0        6.199866    0.431695   -0.249375
     50          6           0        7.425336   -0.172832   -0.956130
     51          6           0        8.755817   -0.210260   -0.115590
     52          6           0       10.020923   -0.673784   -0.831019
     53          6           0       10.045835   -2.047746   -1.512190
     54          6           0       11.282503   -0.365656    0.018102
     55          6           0       12.686305   -0.416868   -0.752532
     56          6           0       13.886711   -0.096779    0.189327
     57          6           0       15.277523   -0.087511   -0.428672
     58          6           0       15.600785   -1.555302   -0.703078
     59          6           0       16.299624    0.510303    0.369747
     60          6           0       17.687886    0.660645   -0.231447
     61          6           0       18.660999    1.363563    0.683117
     62          6           0       20.177285    1.329848    0.145833
     63          6           0       20.318065    2.093886   -1.226281
     64          6           0       21.125309    2.043128    1.130547
     65          1           0       -4.111640    3.419933    1.772843
     66          1           0      -10.082351    4.123172   -0.363154
     67          1           0      -10.730510   -2.095734   -1.717219
     68          1           0       -2.570155   -1.319284    2.098531
     69          1           0       -2.156044    1.436554    1.846692
     70          1           0       -2.169106    0.260821    4.014278
     71          1           0       -3.213397    1.772655    3.910980
     72          1           0       -3.801253    0.193439    3.787242
     73          1           0       -2.277281   -1.884161   -0.028825
     74          1           0       -2.268424   -0.053910   -0.671621
     75          1           0       -0.453090    0.294914    1.026783
     76          1           0       -0.365374   -1.459757    1.362090
     77          1           0       -4.305353    6.007946    1.377439
     78          1           0       -5.936529    6.712323    2.221171
     79          1           0       -5.146849    5.560523    2.871221
     80          1           0       -8.033893    6.952348    1.222995
     81          1           0       -9.203555    5.984519   -1.575755
     82          1           0       -9.709779    7.444858   -0.703267
     83          1           0      -12.483540    3.412617   -0.483977
     84          1           0      -12.026795    3.589827   -1.928498
     85          1           0      -13.304406    2.490155   -1.568138
     86          1           0      -12.462571   -1.162988   -1.486449
     87          1           0      -13.427271    0.087662   -1.717795
     88          1           0      -12.389557    0.359130   -3.706812
     89          1           0      -11.365552   -1.161484   -3.587876
     90          1           0      -13.195999   -1.178563   -3.755490
     91          1           0      -10.214602   -4.675226   -0.464133
     92          1           0       -9.241384   -4.673955   -2.100394
     93          1           0       -8.777343   -5.732214   -0.674464
     94          1           0       -3.728068   -3.518180   -0.276296
     95          1           0       -2.094263   -6.330654    2.401499
     96          1           0       -2.070395   -4.938494    3.520127
     97          1           0       -3.516672   -5.903057    3.461360
     98          1           0        2.678229   -1.845565   -1.577405
     99          1           0        2.499868    0.058337   -1.960941
    100          1           0        4.166150   -1.056766    0.321445
    101          1           0        5.219096    2.196076   -1.747598
    102          1           0        5.523900    0.908554   -3.145711
    103          1           0        3.792403    1.202754   -2.725227
    104          1           0        6.382962    1.463231    0.086568
    105          1           0        6.074042   -0.114793    0.659125
    106          1           0        6.983835   -1.213683   -1.115958
    107          1           0        7.633238    0.264090   -1.904853
    108          1           0        9.070507    0.779659    0.331954
    109          1           0        8.690119   -0.912904    0.783965
    110          1           0        9.898806    0.162440   -1.572593
    111          1           0        9.082933   -2.122486   -2.027804
    112          1           0       10.983447   -2.152602   -2.021060
    113          1           0       10.151511   -2.573272   -0.555652
    114          1           0       11.169978    0.676359    0.549205
    115          1           0       11.094385   -0.932932    1.057373
    116          1           0       12.739114   -1.408366   -1.224870
    117          1           0       12.443955    0.334674   -1.551677
    118          1           0       13.668038    1.036098    0.592902
    119          1           0       13.778607   -0.667272    1.118327
    120          1           0       15.103284    0.400984   -1.237003
    121          1           0       14.750964   -2.129734   -1.211711
    122          1           0       16.377863   -1.763059   -1.419042
    123          1           0       15.601291   -2.017824    0.210844
    124          1           0       15.799197    1.389639    0.690013
    125          1           0       16.384896   -0.235719    1.357874
    126          1           0       18.114567   -0.526494   -0.242179
    127          1           0       17.664905    1.031322   -1.286469
    128          1           0       18.342861    2.498268    0.703093
    129          1           0       18.447703    0.786882    1.690943
    130          1           0       20.507729    0.217917    0.096617
    131          1           0       19.814736    3.253876   -1.000130
    132          1           0       21.380697    2.096867   -1.357537
    133          1           0       19.716904    1.455955   -1.960869
    134          1           0       21.361388    1.349684    2.128326
    135          1           0       22.068350    2.136881    0.768152
    136          1           0       20.729053    3.027092    1.202259
    137          1           0       -7.082256    1.785371    0.329725
    138          1           0       -7.664201   -0.345649    0.009127
 ---------------------------------------------------------------------

 SCF Done:  E(RB3LYP) =  -2732.99453518     A.U. after   17 cycles

 Excitation energies and oscillator strengths:

 Excited State   1:      Singlet-A      1.9741 eV  628.05 nm  f=0.2064  <S**2>=0.000
     235 -> 238        0.26131
     236 -> 237        0.65364
 This state for optimization and/or second-order correction.
 Total Energy, E(TD-HF/TD-DFT) =  -2732.92198745
 Copying the excited state density for this state as the 1-particle RhoCI density.

 The electronic state is 1-A.
 Alpha  occ. eigenvalues --  -19.19607 -19.16250 -19.12855 -19.12199 -19.10999
 Alpha  occ. eigenvalues --  -14.37391 -14.36223 -14.31790 -14.31005 -10.31376
 Alpha  occ. eigenvalues --  -10.30527 -10.26746 -10.25912 -10.24973 -10.24460
 Alpha  occ. eigenvalues --  -10.23885 -10.23861 -10.23816 -10.23351 -10.22794
 Alpha  occ. eigenvalues --  -10.22572 -10.22404 -10.21958 -10.21912 -10.21032
 Alpha  occ. eigenvalues --  -10.20913 -10.20784 -10.20758 -10.20723 -10.20543
 Alpha  occ. eigenvalues --  -10.20491 -10.20489 -10.20282 -10.20204 -10.20197
 Alpha  occ. eigenvalues --  -10.20043 -10.19889 -10.19809 -10.19802 -10.19762
 Alpha  occ. eigenvalues --  -10.19711 -10.19639 -10.19584 -10.19565 -10.19518
 Alpha  occ. eigenvalues --  -10.19502 -10.19236 -10.19063 -10.18941 -10.18475
 Alpha  occ. eigenvalues --  -10.18442 -10.18312 -10.18306 -10.18175 -10.18065
 Alpha  occ. eigenvalues --  -10.18012 -10.17771 -10.17615 -10.17554 -10.17546
 Alpha  occ. eigenvalues --  -10.17307 -10.17266 -10.16567 -10.16554  -1.13058
 Alpha  occ. eigenvalues --   -1.09282  -1.02506  -1.00657  -1.00126  -0.99785
 Alpha  occ. eigenvalues --   -0.96712  -0.94242  -0.93719  -0.85391  -0.83337
 Alpha  occ. eigenvalues --   -0.82011  -0.81788  -0.81078  -0.81025  -0.80492
 Alpha  occ. eigenvalues --   -0.80476  -0.79787  -0.79333  -0.78975  -0.77365
 Alpha  occ. eigenvalues --   -0.76803  -0.76321  -0.75758  -0.75598  -0.74581
 Alpha  occ. eigenvalues --   -0.73923  -0.72835  -0.72412  -0.71639  -0.70532
 Alpha  occ. eigenvalues --   -0.69823  -0.69748  -0.69320  -0.68620  -0.68241
 Alpha  occ. eigenvalues --   -0.67518  -0.66380  -0.66017  -0.65763  -0.64439
 Alpha  occ. eigenvalues --   -0.64150  -0.63183  -0.62430  -0.62024  -0.61141
 Alpha  occ. eigenvalues --   -0.60562  -0.58766  -0.58577  -0.58081  -0.57628
 Alpha  occ. eigenvalues --   -0.56935  -0.56721  -0.56434  -0.56285  -0.54135
 Alpha  occ. eigenvalues --   -0.53990  -0.53818  -0.53759  -0.53462  -0.53223
 Alpha  occ. eigenvalues --   -0.52847  -0.52176  -0.51623  -0.51519  -0.50865
 Alpha  occ. eigenvalues --   -0.50426  -0.50290  -0.50069  -0.48586  -0.48220
 Alpha  occ. eigenvalues --   -0.48140  -0.48077  -0.47770  -0.47404  -0.47379
 Alpha  occ. eigenvalues --   -0.47008  -0.46952  -0.46580  -0.46058  -0.45903
 Alpha  occ. eigenvalues --   -0.45593  -0.45542  -0.45326  -0.44923  -0.44851
 Alpha  occ. eigenvalues --   -0.44335  -0.44083  -0.44059  -0.43818  -0.43745
 Alpha  occ. eigenvalues --   -0.43571  -0.43139  -0.43063  -0.42835  -0.42713
 Alpha  occ. eigenvalues --   -0.42476  -0.42448  -0.42019  -0.41800  -0.41620
 Alpha  occ. eigenvalues --   -0.41436  -0.41133  -0.40806  -0.40727  -0.40508
 Alpha  occ. eigenvalues --   -0.40434  -0.40082  -0.39951  -0.39555  -0.39250
 Alpha  occ. eigenvalues --   -0.39001  -0.38912  -0.38630  -0.38509  -0.38454
 Alpha  occ. eigenvalues --   -0.38137  -0.38059  -0.37793  -0.37631  -0.37424
 Alpha  occ. eigenvalues --   -0.37330  -0.37120  -0.36803  -0.36591  -0.36559
 Alpha  occ. eigenvalues --   -0.36334  -0.36055  -0.35958  -0.35593  -0.35506
 Alpha  occ. eigenvalues --   -0.35389  -0.34879  -0.34636  -0.34491  -0.34288
 Alpha  occ. eigenvalues --   -0.34126  -0.33979  -0.33895  -0.33881  -0.33707
 Alpha  occ. eigenvalues --   -0.33445  -0.33091  -0.33005  -0.32766  -0.32534
 Alpha  occ. eigenvalues --   -0.32234  -0.32187  -0.31951  -0.31621  -0.31419
 Alpha  occ. eigenvalues --   -0.31371  -0.30977  -0.30672  -0.30411  -0.30239
 Alpha  occ. eigenvalues --   -0.30188  -0.29415  -0.28854  -0.28191  -0.28118
 Alpha  occ. eigenvalues --   -0.27986  -0.27123  -0.26485  -0.25798  -0.25581
 Alpha  occ. eigenvalues --   -0.24181  -0.23637  -0.23278  -0.23170  -0.19967
 Alpha  occ. eigenvalues --   -0.19201
 Alpha virt. eigenvalues --   -0.10973  -0.08026  -0.04529  -0.02190   0.00288
 Alpha virt. eigenvalues --    0.00567   0.01243   0.01848   0.02549   0.03839
 Alpha virt. eigenvalues --    0.03991   0.04243   0.04271   0.04499   0.04693

 Mulliken charges:
               1
     1  C   -0.027560
     2  C   -0.012239
     3  C   -0.043963
     4  C   -0.142930
     5  N   -0.146001
     6  C   -0.016733
     7  C   -0.104038
     8  C   -0.027028
     9  C    0.067882
    10  C    0.100377
    11  C    0.131891
    12  C    0.016804
    13  C    0.150497
    14  O   -0.168445
    15  O   -0.379105
    16  N    0.072888
    17  C   -0.015055
    18  C   -0.136470
    19  C    0.013350
    20  C    0.088748
    21  C    0.102402
    22  C   -0.028008
    23  C   -0.092545
    24  N   -0.245761
    25  C    0.065387
    26  C   -0.090663
    27  C   -0.113976
    28  C   -0.004918
    29  C    0.165806
    30  C    0.208096
    31  C   -0.028504
    32  N   -0.124060
    33  C    0.137383
    34  C   -0.061499
    35  C    0.058872
    36  C    0.076729
    37  C   -0.011222
    38  C   -0.049802
    39  O   -0.208222
    40  C    0.019308
    41  C    0.178269
    42  O   -0.205478
    43  O   -0.233790
    44  C    0.194693
    45  C    0.266459
    46  C   -0.120085
    47  C   -0.156587
    48  C    0.035878
    49  C    0.099326
    50  C    0.029528
    51  C    0.001615
    52  C   -0.115004
    53  C    0.108786
    54  C   -0.089180
    55  C    0.065462
    56  C   -0.053824
    57  C    0.080336
    58  C    0.074071
    59  C    0.047440
    60  C   -0.028751
    61  C    0.021140
    62  C   -0.153105
    63  C   -0.020631
    64  C    0.084857
    65  H   -0.058800
    66  H   -0.032171
    67  H    0.065014
    68  H    0.007481
    69  H   -0.004263
    70  H    0.006057
    71  H    0.000013
    72  H   -0.032106
    73  H   -0.009368
    74  H    0.029651
    75  H    0.010412
    76  H    0.038709
    77  H    0.055399
    78  H    0.004638
    79  H   -0.017601
    80  H    0.011357
    81  H    0.039622
    82  H    0.026281
    83  H   -0.060706
    84  H   -0.010724
    85  H    0.010823
    86  H   -0.072432
    87  H   -0.020441
    88  H   -0.014326
    89  H    0.019892
    90  H    0.012617
    91  H    0.050447
    92  H    0.038895
    93  H    0.062806
    94  H    0.035898
    95  H    0.045060
    96  H    0.042811
    97  H    0.033569
    98  H    0.043298
    99  H    0.029797
   100  H   -0.016940
   101  H    0.037403
   102  H    0.041741
   103  H    0.018588
   104  H   -0.009902
   105  H   -0.020422
   106  H    0.010153
   107  H   -0.010383
   108  H    0.000367
   109  H   -0.018123
   110  H   -0.025069
   111  H    0.022381
   112  H    0.010857
   113  H   -0.004361
   114  H   -0.007420
   115  H   -0.006037
   116  H    0.011651
   117  H    0.011074
   118  H   -0.004027
   119  H   -0.005065
   120  H   -0.084708
   121  H   -0.018889
   122  H    0.008077
   123  H   -0.030475
   124  H   -0.030086
   125  H   -0.003773
   126  H    0.012912
   127  H    0.007782
   128  H    0.002973
   129  H    0.017575
   130  H    0.006432
   131  H    0.034593
   132  H    0.019649
   133  H    0.039876
   134  H    0.020112
   135  H   -0.029619
   136  H   -0.007536
   137  H    0.094974
   138  H    0.206953
 Sum of Mulliken charges =  -0.00000

 Dipole moment (field-independent basis, Debye):
    X=              0.5192    Y=              2.2177    Z=              0.6809  Tot=              2.3773
 Quadrupole moment (field-independent basis, Debye-Ang):
   XX=           -338.3100   YY=           -376.2470   ZZ=           -395.6696
   XY=            -14.5976   XZ=             -0.6663   YZ=             -4.1484

 Normal termination of Gaussian 16 at Sun Aug 25 20:00:34 2019.
