 Gaussian 16, Revision A.03,
 Gaussian 16:  ES64L-G16RevA.03 25-Dec-2016

 --------------------------
 # td=(NStates=1) B3LYP/SVP
 --------------------------

 --
 TD
 --
 Symbolic Z-matrix:
 Charge =  0 Multiplicity = 1

                         Standard orientation:
 ---------------------------------------------------------------------
 Center     Atomic      Atomic             Coordinates (Angstroms)
 Number     Number       Type             X           Y           Z
 ---------------------------------------------------------------------
      1          6           0       -5.153639   -1.962753    0.392229
      2          6           0       -4.794177    2.750121    1.367674
      3          6           0       -9.319002    3.411044   -0.312896
      4          6           0       -9.804460   -1.504825   -0.927754
      5          7           0       -5.084443    0.413233    0.813987
      6          6           0       -4.490421   -0.730822    0.834577
      7          6           0       -3.042743   -0.661569    1.305181
      8          6           0       -3.022039    0.915697    1.738378
      9          6           0       -4.334064    1.398652    1.311952
     10          6           0       -2.762068    0.991515    3.256147
     11          6           0       -2.036199   -0.916709    0.176472
     12          6           0       -0.553788   -0.802879    0.528003
     13          6           0        0.294773   -0.955405   -0.656504
     14          8           0        0.081714   -1.393957   -1.717857
     15          8           0        1.567986   -0.849806   -0.216968
     16          7           0       -7.115734    2.743892    0.533238
     17          6           0       -5.944779    3.346700    0.998044
     18          6           0       -6.236658    4.776582    1.072687
     19          6           0       -7.549259    4.941437    0.539194
     20          6           0       -8.080831    3.688213    0.258116
     21          6           0       -5.273765    5.911040    1.551322
     22          6           0       -8.138950    6.273449    0.278435
     23          6           0       -9.030106    6.668163   -0.543893
     24          7           0       -9.299456    0.823277   -0.487957
     25          6           0       -9.869782    2.008943   -0.639700
     26          6           0      -11.370413    1.845623   -0.863460
     27          6           0      -11.492949    0.448350   -1.050586
     28          6           0      -10.193419   -0.122693   -0.875521
     29          6           0      -12.343204    2.957538   -1.138348
     30          6           0      -12.866941   -0.266074   -1.462870
     31          6           0      -12.796396   -0.526197   -2.991943
     32          7           0       -7.577889   -1.270665   -0.220781
     33          6           0       -8.638080   -2.031233   -0.528892
     34          6           0       -8.138995   -3.374764   -0.543028
     35          6           0       -6.894432   -3.367049   -0.127112
     36          6           0       -6.511970   -2.124614    0.042428
     37          6           0       -9.197333   -4.578944   -0.880149
     38          6           0       -5.718745   -4.300028    0.171837
     39          8           0       -5.634733   -5.484628   -0.052550
     40          6           0       -4.538350   -3.350299    0.395753
     41          6           0       -3.883752   -3.835343    1.765708
     42          8           0       -4.020636   -3.347947    2.960142
     43          8           0       -3.025695   -4.876517    1.561322
     44          6           0       -2.444712   -5.553575    2.674821
     45          6           0        2.668902   -0.919641   -1.219222
     46          6           0        4.020105   -0.618735   -0.612696
     47          6           0        4.916884    0.088059   -1.213881
     48          6           0        4.761711    0.769114   -2.488413
     49          6           0        6.278441    0.316112   -0.360097
     50          6           0        7.456440   -0.191223   -1.149488
     51          6           0        8.802763   -0.030048   -0.330253
     52          6           0       10.020840   -0.532699   -1.150344
     53          6           0       10.124798   -1.999481   -1.499303
     54          6           0       11.246232   -0.171485   -0.233373
     55          6           0       12.664645   -0.498596   -0.820019
     56          6           0       13.837470    0.084555    0.102020
     57          6           0       15.234809   -0.126546   -0.453158
     58          6           0       15.599796   -1.693358   -0.371146
     59          6           0       16.280686    0.668097    0.543237
     60          6           0       17.692861    0.726977   -0.094264
     61          6           0       18.789257    1.513983    0.853964
     62          6           0       20.222688    1.449170    0.397556
     63          6           0       20.375273    1.961305   -0.979962
     64          6           0       21.010140    2.212056    1.397794
     65          1           0       -3.939373    3.417993    1.434586
     66          1           0      -10.065728    4.118528   -0.670081
     67          1           0      -10.563315   -2.129427   -1.266034
     68          1           0       -2.982420   -1.281746    2.131033
     69          1           0       -2.113725    1.401522    1.200236
     70          1           0       -1.775985    0.335668    3.638162
     71          1           0       -2.618938    2.193504    3.543234
     72          1           0       -3.834699    0.549340    3.668132
     73          1           0       -2.269091   -2.049144   -0.175394
     74          1           0       -2.185116   -0.330145   -0.609585
     75          1           0       -0.280717    0.065693    1.131087
     76          1           0       -0.322485   -1.447944    1.425641
     77          1           0       -4.285353    6.031346    0.899772
     78          1           0       -5.828329    6.751102    1.654340
     79          1           0       -4.933805    5.419948    2.534221
     80          1           0       -7.936240    7.062863    0.997207
     81          1           0       -9.733442    6.067639   -1.120054
     82          1           0       -9.159486    7.769424   -0.742664
     83          1           0      -12.685388    3.322492   -0.129646
     84          1           0      -11.823884    3.814197   -1.708531
     85          1           0      -13.313665    2.448188   -1.563988
     86          1           0      -12.757965   -1.264147   -0.903100
     87          1           0      -13.800410    0.422376   -1.075331
     88          1           0      -12.622095    0.484270   -3.540063
     89          1           0      -12.060372   -1.344856   -3.202415
     90          1           0      -13.734674   -1.012019   -3.337875
     91          1           0      -10.018594   -4.624765   -0.024325
     92          1           0       -9.567155   -4.418409   -1.956490
     93          1           0       -8.656371   -5.481964   -0.809351
     94          1           0       -3.932489   -3.637757   -0.383138
     95          1           0       -1.779473   -6.311798    2.289489
     96          1           0       -1.901152   -4.890104    3.402510
     97          1           0       -3.372921   -6.060539    3.161278
     98          1           0        2.770285   -1.871834   -1.617759
     99          1           0        2.232723   -0.293052   -2.030970
    100          1           0        4.273518   -1.416414    0.131578
    101          1           0        4.936629    1.809995   -2.519204
    102          1           0        5.801971    0.351676   -2.976930
    103          1           0        3.920213    0.668839   -3.014931
    104          1           0        6.389527    1.403810   -0.005192
    105          1           0        6.176456   -0.233097    0.597127
    106          1           0        7.426221   -1.321954   -1.342966
    107          1           0        7.380877    0.159051   -2.113948
    108          1           0        8.985980    1.036000   -0.041301
    109          1           0        8.806053   -0.736577    0.610000
    110          1           0       10.154378    0.132917   -2.012290
    111          1           0        9.279824   -2.511321   -1.997126
    112          1           0       11.021521   -2.282908   -1.994035
    113          1           0       10.080510   -2.632294   -0.632083
    114          1           0       11.147177    0.915803    0.054530
    115          1           0       11.154069   -0.951228    0.372697
    116          1           0       12.791592   -1.605866   -0.677753
    117          1           0       12.919887    0.041497   -1.798369
    118          1           0       13.660072    1.133964    0.340353
    119          1           0       13.967792   -0.237104    1.036218
    120          1           0       15.429369    0.177868   -1.480295
    121          1           0       14.787247   -2.501088   -0.727729
    122          1           0       16.601062   -2.042972   -0.783496
    123          1           0       15.810182   -2.121888    0.618418
    124          1           0       15.864700    1.667687    0.725600
    125          1           0       16.239717    0.415393    1.601645
    126          1           0       17.959176   -0.374057   -0.197243
    127          1           0       17.917298    0.968342   -1.117210
    128          1           0       18.477553    2.622007    0.682702
    129          1           0       18.489329    1.229271    1.951417
    130          1           0       20.632166    0.368564    0.264827
    131          1           0       20.103124    3.016998   -1.288333
    132          1           0       21.446001    1.927054   -1.291644
    133          1           0       19.786210    1.270527   -1.653442
    134          1           0       20.885038    1.965373    2.482135
    135          1           0       22.033945    2.333078    1.155377
    136          1           0       20.651327    3.178883    1.259444
    137          1           0       -7.341678    1.648291    0.735576
    138          1           0       -7.399160   -0.295319   -0.551915
 ---------------------------------------------------------------------

 SCF Done:  E(RB3LYP) =  -2733.07392607     A.U. after   17 cycles

 Excitation energies and oscillator strengths:

 Excited State   1:      Singlet-A      2.0721 eV  598.34 nm  f=0.0793  <S**2>=0.000
     235 -> 237        0.11705
     235 -> 238       -0.36704
     236 -> 237        0.57608
     236 -> 238        0.12854
 This state for optimization and/or second-order correction.
 Total Energy, E(TD-HF/TD-DFT) =  -2732.99777672
 Copying the excited state density for this state as the 1-particle RhoCI density.

 The electronic state is 1-A.
 Alpha  occ. eigenvalues --  -19.18626 -19.15407 -19.13617 -19.12836 -19.12238
 Alpha  occ. eigenvalues --  -14.36882 -14.36261 -14.31713 -14.28988 -10.33459
 Alpha  occ. eigenvalues --  -10.30514 -10.28994 -10.25518 -10.23668 -10.23604
 Alpha  occ. eigenvalues --  -10.23185 -10.23043 -10.22965 -10.22540 -10.22494
 Alpha  occ. eigenvalues --  -10.22417 -10.22158 -10.21578 -10.21185 -10.21137
 Alpha  occ. eigenvalues --  -10.20966 -10.20930 -10.20897 -10.20822 -10.20792
 Alpha  occ. eigenvalues --  -10.20726 -10.20715 -10.20464 -10.20224 -10.20080
 Alpha  occ. eigenvalues --  -10.20022 -10.19747 -10.19719 -10.19684 -10.19509
 Alpha  occ. eigenvalues --  -10.19463 -10.19405 -10.19402 -10.19224 -10.19159
 Alpha  occ. eigenvalues --  -10.19147 -10.19129 -10.19047 -10.18978 -10.18778
 Alpha  occ. eigenvalues --  -10.18777 -10.18729 -10.18689 -10.18498 -10.18457
 Alpha  occ. eigenvalues --  -10.18407 -10.18279 -10.18215 -10.18050 -10.18030
 Alpha  occ. eigenvalues --  -10.17533 -10.17303 -10.16819 -10.16392  -1.09511
 Alpha  occ. eigenvalues --   -1.08414  -1.04222  -1.00110  -0.99742  -0.97253
 Alpha  occ. eigenvalues --   -0.97055  -0.96138  -0.93153  -0.86281  -0.82937
 Alpha  occ. eigenvalues --   -0.81755  -0.81618  -0.81522  -0.81137  -0.80688
 Alpha  occ. eigenvalues --   -0.79892  -0.79522  -0.78949  -0.77766  -0.77573
 Alpha  occ. eigenvalues --   -0.76799  -0.76077  -0.75595  -0.74438  -0.74018
 Alpha  occ. eigenvalues --   -0.73609  -0.72958  -0.72056  -0.70882  -0.70512
 Alpha  occ. eigenvalues --   -0.69982  -0.69492  -0.68591  -0.68353  -0.68149
 Alpha  occ. eigenvalues --   -0.67297  -0.66731  -0.65950  -0.65330  -0.65164
 Alpha  occ. eigenvalues --   -0.64049  -0.62214  -0.61700  -0.61014  -0.60748
 Alpha  occ. eigenvalues --   -0.59805  -0.59203  -0.58642  -0.58044  -0.57638
 Alpha  occ. eigenvalues --   -0.57575  -0.56748  -0.56234  -0.55815  -0.55564
 Alpha  occ. eigenvalues --   -0.55348  -0.54698  -0.54614  -0.53604  -0.53159
 Alpha  occ. eigenvalues --   -0.52461  -0.52183  -0.51723  -0.51513  -0.50481
 Alpha  occ. eigenvalues --   -0.49867  -0.49391  -0.49268  -0.49068  -0.48629
 Alpha  occ. eigenvalues --   -0.48028  -0.47447  -0.47322  -0.47146  -0.46837
 Alpha  occ. eigenvalues --   -0.46766  -0.46564  -0.46175  -0.45998  -0.45321
 Alpha  occ. eigenvalues --   -0.45096  -0.45021  -0.44944  -0.44847  -0.44481
 Alpha  occ. eigenvalues --   -0.44313  -0.44105  -0.43707  -0.43526  -0.43481
 Alpha  occ. eigenvalues --   -0.43348  -0.43227  -0.42977  -0.42913  -0.42831
 Alpha  occ. eigenvalues --   -0.42517  -0.42245  -0.41982  -0.41413  -0.41069
 Alpha  occ. eigenvalues --   -0.40810  -0.40527  -0.40396  -0.40328  -0.40223
 Alpha  occ. eigenvalues --   -0.40101  -0.39781  -0.39665  -0.39533  -0.39256
 Alpha  occ. eigenvalues --   -0.38898  -0.38712  -0.38561  -0.38365  -0.38303
 Alpha  occ. eigenvalues --   -0.38090  -0.38045  -0.37785  -0.37681  -0.37541
 Alpha  occ. eigenvalues --   -0.37431  -0.37354  -0.37130  -0.36974  -0.36872
 Alpha  occ. eigenvalues --   -0.36794  -0.36442  -0.36138  -0.36060  -0.35931
 Alpha  occ. eigenvalues --   -0.35763  -0.35550  -0.35265  -0.35156  -0.35057
 Alpha  occ. eigenvalues --   -0.35012  -0.34580  -0.34334  -0.34187  -0.33937
 Alpha  occ. eigenvalues --   -0.33870  -0.33625  -0.33247  -0.32822  -0.32597
 Alpha  occ. eigenvalues --   -0.32300  -0.32172  -0.31980  -0.31307  -0.31053
 Alpha  occ. eigenvalues --   -0.30400  -0.30308  -0.30033  -0.29990  -0.29626
 Alpha  occ. eigenvalues --   -0.29555  -0.29209  -0.28771  -0.27964  -0.27751
 Alpha  occ. eigenvalues --   -0.27497  -0.27121  -0.26425  -0.26160  -0.25725
 Alpha  occ. eigenvalues --   -0.24942  -0.24751  -0.23805  -0.21629  -0.19880
 Alpha  occ. eigenvalues --   -0.18708
 Alpha virt. eigenvalues --   -0.09533  -0.08582  -0.04830  -0.02303  -0.01303
 Alpha virt. eigenvalues --   -0.00057   0.00028   0.00805   0.02683   0.03534
 Alpha virt. eigenvalues --    0.03884   0.04203   0.04910   0.05048   0.05149

 Mulliken charges:
               1
     1  C   -0.011249
     2  C   -0.073760
     3  C   -0.073585
     4  C   -0.067117
     5  N   -0.089998
     6  C   -0.127934
     7  C    0.035836
     8  C   -0.056064
     9  C   -0.044512
    10  C   -0.069100
    11  C    0.086944
    12  C    0.006889
    13  C    0.189690
    14  O   -0.188114
    15  O   -0.357870
    16  N   -0.140491
    17  C    0.142475
    18  C   -0.162156
    19  C    0.063056
    20  C    0.160000
    21  C    0.114611
    22  C   -0.007056
    23  C   -0.084398
    24  N   -0.203399
    25  C   -0.027988
    26  C   -0.183710
    27  C   -0.098531
    28  C    0.035758
    29  C    0.055610
    30  C   -0.000824
    31  C    0.000118
    32  N   -0.038711
    33  C    0.111543
    34  C   -0.218629
    35  C    0.038724
    36  C    0.085225
    37  C    0.068302
    38  C    0.074235
    39  O   -0.149591
    40  C    0.019322
    41  C    0.235610
    42  O   -0.298735
    43  O   -0.300505
    44  C    0.166375
    45  C    0.256199
    46  C   -0.084480
    47  C   -0.144156
    48  C    0.158119
    49  C    0.071981
    50  C    0.032768
    51  C    0.007427
    52  C   -0.062672
    53  C    0.050900
    54  C    0.065069
    55  C    0.033306
    56  C    0.076991
    57  C   -0.037467
    58  C   -0.046166
    59  C    0.034086
    60  C    0.025321
    61  C   -0.036404
    62  C   -0.064312
    63  C   -0.020115
    64  C    0.120918
    65  H   -0.019485
    66  H   -0.043128
    67  H   -0.063638
    68  H   -0.014465
    69  H    0.018739
    70  H    0.053550
    71  H    0.037879
    72  H    0.058245
    73  H    0.033183
    74  H   -0.029831
    75  H    0.007212
    76  H    0.032085
    77  H    0.053646
    78  H   -0.009436
    79  H    0.040374
    80  H    0.010162
    81  H    0.008086
    82  H    0.026071
    83  H    0.027595
    84  H    0.055288
    85  H    0.026916
    86  H    0.017749
    87  H    0.037951
    88  H    0.040690
    89  H    0.017286
    90  H    0.009216
    91  H    0.055074
    92  H    0.047226
    93  H    0.016764
    94  H    0.036429
    95  H    0.034777
    96  H    0.047511
    97  H    0.047244
    98  H    0.001444
    99  H    0.016994
   100  H    0.008619
   101  H    0.001783
   102  H    0.028316
   103  H   -0.025199
   104  H    0.018335
   105  H   -0.009018
   106  H   -0.003673
   107  H   -0.025735
   108  H    0.002031
   109  H    0.008763
   110  H   -0.018928
   111  H   -0.000170
   112  H    0.013535
   113  H   -0.021739
   114  H    0.009087
   115  H   -0.052361
   116  H    0.018068
   117  H    0.012264
   118  H   -0.029065
   119  H   -0.057695
   120  H   -0.000827
   121  H    0.018217
   122  H    0.012263
   123  H   -0.007602
   124  H   -0.026359
   125  H   -0.011222
   126  H   -0.018171
   127  H   -0.012246
   128  H    0.007147
   129  H    0.014567
   130  H    0.002148
   131  H    0.009234
   132  H    0.004183
   133  H    0.018011
   134  H    0.010799
   135  H   -0.021703
   136  H   -0.035648
   137  H    0.206192
   138  H    0.164785
 Sum of Mulliken charges =  -0.00000

 Dipole moment (field-independent basis, Debye):
    X=              3.4007    Y=              3.1893    Z=              0.0602  Tot=              4.6627
 Quadrupole moment (field-independent basis, Debye-Ang):
   XX=           -363.1618   YY=           -376.0893   ZZ=           -398.7621
   XY=            -15.2965   XZ=              8.3050   YZ=             -3.5431

 Normal termination of Gaussian 16 at Tue Aug 13 15:24:41 2019.
