 Gaussian 16, Revision A.03,
 Gaussian 16:  ES64L-G16RevA.03 25-Dec-2016

 --------------------------
 # td=(NStates=1) B3LYP/SVP
 --------------------------

 --
 TD
 --
 Symbolic Z-matrix:
 Charge =  0 Multiplicity = 1

                         Standard orientation:
 ---------------------------------------------------------------------
 Center     Atomic      Atomic             Coordinates (Angstroms)
 Number     Number       Type             X           Y           Z
 ---------------------------------------------------------------------
      1          6           0       -5.040774   -1.937162    0.511259
      2          6           0       -4.861673    2.770169    1.366409
      3          6           0       -9.510613    3.245513   -0.160954
      4          6           0       -9.775538   -1.556696   -0.794223
      5          7           0       -5.252942    0.427392    0.800632
      6          6           0       -4.477162   -0.682490    0.889458
      7          6           0       -3.043770   -0.477339    1.246707
      8          6           0       -3.077021    0.942989    1.852290
      9          6           0       -4.470118    1.413837    1.277971
     10          6           0       -3.053644    1.033047    3.437081
     11          6           0       -2.146358   -0.702715    0.087806
     12          6           0       -0.618764   -0.559081    0.475780
     13          6           0        0.364450   -0.824120   -0.633864
     14          8           0        0.099782   -1.225201   -1.765376
     15          8           0        1.681454   -0.614642   -0.268712
     16          7           0       -7.182095    2.716719    0.620566
     17          6           0       -6.053438    3.405324    0.973517
     18          6           0       -6.309336    4.813738    0.959754
     19          6           0       -7.624861    4.940271    0.367988
     20          6           0       -8.220307    3.671795    0.157989
     21          6           0       -5.254154    5.885307    1.353385
     22          6           0       -8.230121    6.217300    0.192329
     23          6           0       -9.304851    6.438115   -0.673395
     24          7           0       -9.333854    0.757727   -0.352513
     25          6           0      -10.016979    2.020240   -0.461928
     26          6           0      -11.345087    1.771499   -0.895496
     27          6           0      -11.403359    0.338573   -1.121987
     28          6           0      -10.059290   -0.135572   -0.735147
     29          6           0      -12.428658    2.810490   -1.031061
     30          6           0      -12.664133   -0.359394   -1.556972
     31          6           0      -12.516493   -0.672746   -3.063637
     32          7           0       -7.363167   -1.294717   -0.239640
     33          6           0       -8.531478   -2.060091   -0.597777
     34          6           0       -8.060005   -3.396298   -0.719378
     35          6           0       -6.711157   -3.339291   -0.284446
     36          6           0       -6.340247   -2.006029   -0.040663
     37          6           0       -8.858456   -4.684436   -1.083291
     38          6           0       -5.659736   -4.310934    0.056487
     39          8           0       -5.643459   -5.528751   -0.073346
     40          6           0       -4.409343   -3.365883    0.393910
     41          6           0       -3.844375   -3.819377    1.716956
     42          8           0       -4.387675   -3.512238    2.810070
     43          8           0       -2.835247   -4.697950    1.495283
     44          6           0       -2.382908   -5.407222    2.658961
     45          6           0        2.654638   -0.680529   -1.304206
     46          6           0        4.046872   -0.719290   -0.632699
     47          6           0        4.954060    0.219460   -0.933258
     48          6           0        4.992645    1.181506   -2.140554
     49          6           0        6.193720    0.070007   -0.143405
     50          6           0        7.464164   -0.220668   -1.038669
     51          6           0        8.761572   -0.433864   -0.091586
     52          6           0       10.042162   -0.779913   -0.720322
     53          6           0       10.123717   -2.243470   -1.203525
     54          6           0       11.355345   -0.454075    0.001041
     55          6           0       12.748473   -0.705686   -0.596572
     56          6           0       13.868619   -0.191478    0.257380
     57          6           0       15.231411   -0.295860   -0.366564
     58          6           0       15.672488   -1.674407   -0.459569
     59          6           0       16.257328    0.612080    0.420625
     60          6           0       17.688509    0.676611   -0.135929
     61          6           0       18.600642    1.687265    0.672578
     62          6           0       20.038094    1.686135    0.191789
     63          6           0       20.189180    2.212190   -1.256698
     64          6           0       20.989545    2.466679    1.068084
     65          1           0       -4.075552    3.419400    1.710725
     66          1           0      -10.130687    4.183103   -0.346314
     67          1           0      -10.553384   -2.270798   -1.135453
     68          1           0       -2.668763   -1.266291    2.020740
     69          1           0       -2.214295    1.518907    1.613238
     70          1           0       -2.129517    0.621505    3.759942
     71          1           0       -3.007292    2.030952    3.801464
     72          1           0       -3.676449    0.384846    3.977770
     73          1           0       -2.449680   -1.702034   -0.424471
     74          1           0       -2.134571    0.134719   -0.767195
     75          1           0       -0.370314    0.460633    0.861909
     76          1           0       -0.470359   -1.190597    1.204460
     77          1           0       -4.325233    5.925798    0.775784
     78          1           0       -5.629573    6.811015    1.495951
     79          1           0       -4.851266    5.498314    2.395132
     80          1           0       -7.940411    7.008177    0.673063
     81          1           0       -9.508167    5.653547   -1.364831
     82          1           0       -9.778104    7.441413   -0.760300
     83          1           0      -12.647914    3.329674   -0.112466
     84          1           0      -12.134452    3.508998   -1.708350
     85          1           0      -13.530725    2.586416   -1.452709
     86          1           0      -12.850338   -1.334148   -0.934209
     87          1           0      -13.666512    0.060486   -1.414142
     88          1           0      -12.274415    0.116137   -3.640522
     89          1           0      -11.679207   -1.440679   -3.143329
     90          1           0      -13.503953   -1.123005   -3.535578
     91          1           0       -9.609507   -4.614972   -0.358866
     92          1           0       -9.138199   -4.553350   -2.263037
     93          1           0       -8.275095   -5.473482   -1.001827
     94          1           0       -3.679078   -3.379097   -0.460646
     95          1           0       -1.623340   -6.320634    2.507448
     96          1           0       -1.822925   -4.666723    3.349431
     97          1           0       -3.402573   -5.717439    3.266118
     98          1           0        2.576628   -1.726216   -1.793676
     99          1           0        2.456093    0.247536   -1.981644
    100          1           0        4.196952   -1.241377    0.169826
    101          1           0        5.750773    2.198434   -1.992851
    102          1           0        5.486607    0.754074   -3.032486
    103          1           0        3.938608    1.423377   -2.427383
    104          1           0        6.562210    1.016322    0.221398
    105          1           0        6.130149   -0.792653    0.726608
    106          1           0        7.117580   -1.066095   -1.577154
    107          1           0        7.739494    0.550250   -1.781827
    108          1           0        8.794081    0.561317    0.647859
    109          1           0        8.509578   -1.186337    0.675432
    110          1           0       10.195661   -0.264138   -1.822586
    111          1           0        9.148399   -2.511016   -1.666460
    112          1           0       10.810645   -2.623195   -2.141694
    113          1           0       10.390690   -3.022762   -0.391724
    114          1           0       11.199352    0.608781    0.364066
    115          1           0       11.381024   -0.922160    0.895642
    116          1           0       12.853380   -1.839972   -0.747647
    117          1           0       12.678080   -0.149029   -1.600637
    118          1           0       13.504310    0.929284    0.415346
    119          1           0       13.818179   -0.846192    1.192086
    120          1           0       15.394989    0.217835   -1.452939
    121          1           0       14.833608   -2.425164   -0.798589
    122          1           0       16.498854   -1.857236   -1.116335
    123          1           0       15.905337   -2.164273    0.635954
    124          1           0       15.769421    1.682336    0.576564
    125          1           0       16.167413    0.302726    1.529074
    126          1           0       18.079803   -0.294734   -0.279208
    127          1           0       17.607956    1.133611   -1.283064
    128          1           0       18.093213    2.621669    0.796118
    129          1           0       18.498794    1.144841    1.746572
    130          1           0       20.519958    0.719640    0.318700
    131          1           0       19.607830    3.113979   -1.319441
    132          1           0       21.081625    2.473878   -1.376455
    133          1           0       20.005264    1.317468   -2.100231
    134          1           0       20.638314    2.420690    2.270254
    135          1           0       22.112639    2.046653    0.829486
    136          1           0       21.069142    3.700686    0.664903
    137          1           0       -7.113555    1.682848    0.221455
    138          1           0       -7.252233   -0.200221   -0.447468
 ---------------------------------------------------------------------

 SCF Done:  E(RB3LYP) =  -2733.04445988     A.U. after   17 cycles

 Excitation energies and oscillator strengths:

 Excited State   1:      Singlet-A      1.9504 eV  635.69 nm  f=0.1329  <S**2>=0.000
     235 -> 237       -0.21682
     235 -> 238        0.22228
     236 -> 237        0.61238
     236 -> 238        0.15548
 This state for optimization and/or second-order correction.
 Total Energy, E(TD-HF/TD-DFT) =  -2732.97278455
 Copying the excited state density for this state as the 1-particle RhoCI density.

 The electronic state is 1-A.
 Alpha  occ. eigenvalues --  -19.19432 -19.17343 -19.13160 -19.12913 -19.12648
 Alpha  occ. eigenvalues --  -14.37453 -14.36124 -14.33053 -14.28939 -10.32497
 Alpha  occ. eigenvalues --  -10.32036 -10.28612 -10.27085 -10.25667 -10.23772
 Alpha  occ. eigenvalues --  -10.23677 -10.23288 -10.23268 -10.23141 -10.22943
 Alpha  occ. eigenvalues --  -10.22284 -10.22082 -10.21751 -10.21667 -10.21610
 Alpha  occ. eigenvalues --  -10.21217 -10.21151 -10.20931 -10.20889 -10.20674
 Alpha  occ. eigenvalues --  -10.20668 -10.20639 -10.20622 -10.20606 -10.20402
 Alpha  occ. eigenvalues --  -10.20382 -10.20351 -10.20260 -10.20251 -10.19939
 Alpha  occ. eigenvalues --  -10.19752 -10.19571 -10.19540 -10.19465 -10.19444
 Alpha  occ. eigenvalues --  -10.19249 -10.19246 -10.19225 -10.19206 -10.19159
 Alpha  occ. eigenvalues --  -10.19098 -10.18928 -10.18869 -10.18856 -10.18740
 Alpha  occ. eigenvalues --  -10.18726 -10.18639 -10.18624 -10.18332 -10.18155
 Alpha  occ. eigenvalues --  -10.18011 -10.17828 -10.17475 -10.17218  -1.09230
 Alpha  occ. eigenvalues --   -1.08552  -1.02677  -1.00033  -0.99755  -0.99511
 Alpha  occ. eigenvalues --   -0.95707  -0.95338  -0.94600  -0.84245  -0.82922
 Alpha  occ. eigenvalues --   -0.82382  -0.82216  -0.81770  -0.81288  -0.81001
 Alpha  occ. eigenvalues --   -0.80262  -0.80082  -0.78946  -0.78239  -0.77802
 Alpha  occ. eigenvalues --   -0.76515  -0.76136  -0.75877  -0.74681  -0.74145
 Alpha  occ. eigenvalues --   -0.73468  -0.73098  -0.72553  -0.71788  -0.70716
 Alpha  occ. eigenvalues --   -0.70355  -0.68930  -0.68405  -0.68052  -0.67904
 Alpha  occ. eigenvalues --   -0.67399  -0.66573  -0.66010  -0.65661  -0.65440
 Alpha  occ. eigenvalues --   -0.64766  -0.63425  -0.61961  -0.61281  -0.60973
 Alpha  occ. eigenvalues --   -0.60719  -0.59170  -0.58027  -0.57774  -0.57452
 Alpha  occ. eigenvalues --   -0.56349  -0.55953  -0.55581  -0.55288  -0.55116
 Alpha  occ. eigenvalues --   -0.55112  -0.54830  -0.53700  -0.53481  -0.53363
 Alpha  occ. eigenvalues --   -0.53035  -0.52892  -0.52233  -0.51262  -0.50817
 Alpha  occ. eigenvalues --   -0.50002  -0.49222  -0.49013  -0.48491  -0.48454
 Alpha  occ. eigenvalues --   -0.48324  -0.47875  -0.47740  -0.47536  -0.46914
 Alpha  occ. eigenvalues --   -0.46763  -0.46644  -0.46194  -0.45758  -0.45701
 Alpha  occ. eigenvalues --   -0.45447  -0.45374  -0.45159  -0.44916  -0.44709
 Alpha  occ. eigenvalues --   -0.44299  -0.43944  -0.43654  -0.43465  -0.43346
 Alpha  occ. eigenvalues --   -0.43114  -0.42873  -0.42847  -0.42626  -0.42548
 Alpha  occ. eigenvalues --   -0.42329  -0.42197  -0.41901  -0.41706  -0.41434
 Alpha  occ. eigenvalues --   -0.41179  -0.41024  -0.40883  -0.40714  -0.40383
 Alpha  occ. eigenvalues --   -0.40297  -0.40213  -0.40106  -0.39794  -0.39573
 Alpha  occ. eigenvalues --   -0.39365  -0.39120  -0.38828  -0.38484  -0.38297
 Alpha  occ. eigenvalues --   -0.38187  -0.38048  -0.37921  -0.37859  -0.37667
 Alpha  occ. eigenvalues --   -0.37341  -0.37280  -0.37148  -0.36777  -0.36624
 Alpha  occ. eigenvalues --   -0.36452  -0.36281  -0.36164  -0.35979  -0.35873
 Alpha  occ. eigenvalues --   -0.35788  -0.35459  -0.35268  -0.35266  -0.35064
 Alpha  occ. eigenvalues --   -0.34925  -0.34657  -0.34258  -0.34199  -0.33938
 Alpha  occ. eigenvalues --   -0.33190  -0.32867  -0.32621  -0.32612  -0.32552
 Alpha  occ. eigenvalues --   -0.32296  -0.31974  -0.31586  -0.31484  -0.31288
 Alpha  occ. eigenvalues --   -0.31014  -0.30931  -0.30757  -0.30708  -0.30335
 Alpha  occ. eigenvalues --   -0.29813  -0.29222  -0.28857  -0.28530  -0.28174
 Alpha  occ. eigenvalues --   -0.28125  -0.28001  -0.26592  -0.26508  -0.25547
 Alpha  occ. eigenvalues --   -0.25155  -0.24690  -0.22898  -0.22024  -0.20108
 Alpha  occ. eigenvalues --   -0.18606
 Alpha virt. eigenvalues --   -0.10522  -0.08112  -0.04666  -0.02192  -0.01430
 Alpha virt. eigenvalues --   -0.00688  -0.00147  -0.00078   0.01774   0.03581
 Alpha virt. eigenvalues --    0.03625   0.03847   0.04127   0.04317   0.04785

 Mulliken charges:
               1
     1  C   -0.074040
     2  C   -0.059997
     3  C   -0.094865
     4  C   -0.110546
     5  N   -0.171713
     6  C   -0.012773
     7  C   -0.033226
     8  C   -0.030830
     9  C    0.019448
    10  C    0.120030
    11  C   -0.028061
    12  C    0.119822
    13  C    0.177589
    14  O   -0.244998
    15  O   -0.335733
    16  N   -0.171364
    17  C    0.115759
    18  C   -0.143391
    19  C    0.088803
    20  C    0.058355
    21  C    0.123282
    22  C   -0.027006
    23  C   -0.027669
    24  N   -0.134970
    25  C    0.101423
    26  C   -0.105497
    27  C   -0.126400
    28  C    0.003282
    29  C    0.120223
    30  C    0.040958
    31  C    0.015654
    32  N   -0.019589
    33  C    0.120891
    34  C   -0.178789
    35  C   -0.053978
    36  C    0.058434
    37  C    0.190338
    38  C    0.101086
    39  O   -0.175941
    40  C   -0.044664
    41  C    0.233991
    42  O   -0.265352
    43  O   -0.287202
    44  C    0.089987
    45  C    0.241701
    46  C   -0.016615
    47  C   -0.104258
    48  C    0.006120
    49  C    0.039419
    50  C   -0.012174
    51  C    0.004400
    52  C   -0.026413
    53  C   -0.053113
    54  C    0.058261
    55  C    0.004474
    56  C    0.011451
    57  C   -0.057756
    58  C   -0.006362
    59  C   -0.016869
    60  C    0.014186
    61  C    0.027860
    62  C   -0.058373
    63  C    0.125252
    64  C   -0.107377
    65  H   -0.051170
    66  H   -0.011611
    67  H   -0.001066
    68  H    0.024711
    69  H   -0.020612
    70  H   -0.022389
    71  H    0.005999
    72  H    0.009929
    73  H    0.043818
    74  H    0.026775
    75  H    0.037656
    76  H   -0.027608
    77  H    0.032362
    78  H   -0.013056
    79  H    0.029029
    80  H   -0.079155
    81  H    0.027498
    82  H    0.032587
    83  H    0.014935
    84  H   -0.013247
    85  H    0.018799
    86  H    0.005742
    87  H   -0.001343
    88  H   -0.010207
    89  H    0.006943
    90  H    0.010799
    91  H    0.031069
    92  H    0.052317
    93  H   -0.012529
    94  H    0.072946
    95  H    0.071017
    96  H    0.036901
    97  H    0.068687
    98  H    0.037970
    99  H    0.036183
   100  H   -0.074586
   101  H    0.038003
   102  H    0.041999
   103  H    0.026622
   104  H   -0.010383
   105  H    0.029873
   106  H   -0.004173
   107  H    0.011705
   108  H    0.009160
   109  H   -0.005952
   110  H    0.000151
   111  H    0.000584
   112  H    0.026843
   113  H    0.013148
   114  H   -0.020630
   115  H   -0.056685
   116  H    0.014387
   117  H   -0.000137
   118  H    0.012371
   119  H    0.006741
   120  H    0.007202
   121  H    0.012922
   122  H    0.013065
   123  H    0.008975
   124  H   -0.004658
   125  H   -0.013386
   126  H   -0.007903
   127  H    0.007189
   128  H   -0.004406
   129  H    0.001480
   130  H   -0.008032
   131  H    0.002453
   132  H   -0.067972
   133  H    0.028083
   134  H    0.042300
   135  H    0.034895
   136  H    0.014179
   137  H    0.190751
   138  H    0.198568
 Sum of Mulliken charges =  -0.00000

 Dipole moment (field-independent basis, Debye):
    X=              3.2598    Y=              3.5759    Z=             -0.0737  Tot=              4.8393
 Quadrupole moment (field-independent basis, Debye-Ang):
   XX=           -374.0543   YY=           -381.8473   ZZ=           -398.9091
   XY=            -25.9829   XZ=             12.2944   YZ=             -3.3535

 Normal termination of Gaussian 16 at Wed Aug 21 14:57:41 2019.
