 Gaussian 16, Revision A.03,
 Gaussian 16:  ES64L-G16RevA.03 25-Dec-2016

 --------------------------
 # td=(NStates=1) B3LYP/SVP
 --------------------------

 --
 TD
 --
 Symbolic Z-matrix:
 Charge =  0 Multiplicity = 1

                         Standard orientation:
 ---------------------------------------------------------------------
 Center     Atomic      Atomic             Coordinates (Angstroms)
 Number     Number       Type             X           Y           Z
 ---------------------------------------------------------------------
      1          6           0       -5.064420   -1.795354    0.449948
      2          6           0       -4.791528    2.882095    1.086183
      3          6           0       -9.500078    3.243596   -0.244174
      4          6           0       -9.821128   -1.626744   -0.754134
      5          7           0       -5.241599    0.511090    0.773400
      6          6           0       -4.454097   -0.586678    0.856336
      7          6           0       -3.098902   -0.448940    1.233841
      8          6           0       -2.998795    1.048113    1.685197
      9          6           0       -4.441606    1.527310    1.186200
     10          6           0       -2.763548    1.302102    3.187926
     11          6           0       -2.171751   -0.778119    0.130995
     12          6           0       -0.649059   -0.698228    0.479287
     13          6           0        0.270983   -1.095729   -0.589313
     14          8           0        0.058055   -1.515721   -1.690417
     15          8           0        1.559407   -0.811138   -0.186877
     16          7           0       -7.180510    2.700711    0.391807
     17          6           0       -6.113383    3.428518    0.801294
     18          6           0       -6.352700    4.797258    0.946971
     19          6           0       -7.616109    4.971577    0.367532
     20          6           0       -8.193512    3.577216    0.170930
     21          6           0       -5.356527    5.700502    1.333093
     22          6           0       -8.376887    6.296319    0.216634
     23          6           0       -9.428506    6.661036   -0.582897
     24          7           0       -9.263344    0.832837   -0.407605
     25          6           0       -9.933526    1.991611   -0.505963
     26          6           0      -11.314572    1.654317   -0.856436
     27          6           0      -11.453215    0.331330   -0.963582
     28          6           0      -10.148128   -0.170960   -0.742537
     29          6           0      -12.364502    2.843705   -1.157846
     30          6           0      -12.700868   -0.397281   -1.412734
     31          6           0      -12.632644   -0.760919   -3.019749
     32          7           0       -7.494517   -1.334585   -0.005435
     33          6           0       -8.546157   -2.183938   -0.545567
     34          6           0       -8.039920   -3.454716   -0.636064
     35          6           0       -6.740723   -3.390868   -0.155975
     36          6           0       -6.328542   -2.082248    0.084985
     37          6           0       -8.746420   -4.773559   -1.002878
     38          6           0       -5.595984   -4.315566    0.133133
     39          8           0       -5.590458   -5.537341    0.062894
     40          6           0       -4.436016   -3.211027    0.483951
     41          6           0       -3.738309   -3.772908    1.731095
     42          8           0       -3.811536   -3.238405    2.844598
     43          8           0       -2.958003   -4.801393    1.466840
     44          6           0       -2.192296   -5.389194    2.520542
     45          6           0        2.632003   -1.077185   -1.071361
     46          6           0        3.964087   -0.640199   -0.495600
     47          6           0        4.929816    0.212876   -1.070629
     48          6           0        4.834820    0.865623   -2.350828
     49          6           0        6.232687    0.452458   -0.264320
     50          6           0        7.466173   -0.372019   -0.994934
     51          6           0        8.803736   -0.159297   -0.170432
     52          6           0       10.189391   -0.784544   -0.815710
     53          6           0       10.119871   -2.264229   -0.957475
     54          6           0       11.358634   -0.392091    0.092290
     55          6           0       12.665534   -0.545106   -0.521794
     56          6           0       13.868138    0.057488    0.163169
     57          6           0       15.232258   -0.234113   -0.439904
     58          6           0       15.698029   -1.579174   -0.493755
     59          6           0       16.256253    0.580930    0.328998
     60          6           0       17.675056    0.698826   -0.214649
     61          6           0       18.656735    1.460722    0.641970
     62          6           0       20.102759    1.647212    0.240676
     63          6           0       19.985637    2.162433   -1.253844
     64          6           0       20.869323    2.603797    1.236114
     65          1           0       -4.126595    3.641347    1.509238
     66          1           0      -10.173614    4.005885   -0.222047
     67          1           0      -10.500198   -2.277608   -1.045782
     68          1           0       -2.814433   -1.158451    2.092325
     69          1           0       -2.066884    1.745546    1.158230
     70          1           0       -1.834412    0.917915    3.592206
     71          1           0       -2.664240    2.241047    3.463781
     72          1           0       -3.771793    0.818226    3.675497
     73          1           0       -2.599821   -1.628512   -0.570772
     74          1           0       -2.217167    0.276826   -0.684399
     75          1           0       -0.457311    0.232037    0.913722
     76          1           0       -0.487564   -1.417203    1.289114
     77          1           0       -4.525993    5.838575    0.652779
     78          1           0       -5.736999    6.818795    1.647789
     79          1           0       -4.883371    5.520391    2.258635
     80          1           0       -7.849158    7.087125    0.888239
     81          1           0      -10.017868    6.056246   -1.241439
     82          1           0       -9.555778    7.850273   -0.562972
     83          1           0      -12.377592    3.229983   -0.102089
     84          1           0      -11.899780    3.503836   -1.915816
     85          1           0      -13.316926    2.485009   -1.494675
     86          1           0      -12.485098   -1.342935   -0.708019
     87          1           0      -13.532623    0.185316   -1.014359
     88          1           0      -12.720293    0.095894   -3.691038
     89          1           0      -11.783328   -1.505934   -3.465711
     90          1           0      -13.763869   -1.133027   -3.195664
     91          1           0       -9.321801   -5.218080   -0.048962
     92          1           0       -9.314733   -4.523962   -1.920675
     93          1           0       -8.059078   -5.596019   -1.200703
     94          1           0       -3.713705   -3.363059   -0.436484
     95          1           0       -1.716837   -6.411756    2.109077
     96          1           0       -1.205873   -4.634741    2.754020
     97          1           0       -2.865889   -5.648208    3.372357
     98          1           0        2.590717   -2.193340   -1.404237
     99          1           0        2.369274   -0.870724   -2.149302
    100          1           0        4.046551   -1.120006    0.427854
    101          1           0        5.384680    1.866657   -2.136468
    102          1           0        5.449827    0.497552   -3.096154
    103          1           0        3.708162    1.108701   -2.607241
    104          1           0        6.206220    1.762474   -0.384075
    105          1           0        6.013374    0.055019    0.700969
    106          1           0        7.146145   -1.353690   -1.001627
    107          1           0        7.538331   -0.132209   -2.089347
    108          1           0        8.873387    0.838428   -0.116285
    109          1           0        8.703017   -0.595622    0.829485
    110          1           0       10.149084   -0.434677   -1.847942
    111          1           0        9.132247   -2.685488   -1.476209
    112          1           0       10.912047   -2.574398   -1.676074
    113          1           0       10.125003   -2.682212    0.060683
    114          1           0       11.275413    0.804582    0.540554
    115          1           0       11.248106   -0.858110    0.842886
    116          1           0       12.975541   -1.720414   -0.418597
    117          1           0       12.838868   -0.379184   -1.597814
    118          1           0       13.778351    1.012616    0.228945
    119          1           0       14.035769   -0.278072    1.175458
    120          1           0       14.964825    0.163309   -1.480473
    121          1           0       15.126603   -2.173986   -1.138361
    122          1           0       16.862937   -1.406430   -0.973040
    123          1           0       15.689286   -2.093592    0.439381
    124          1           0       15.681227    1.491845    0.400663
    125          1           0       16.367378    0.054115    1.327851
    126          1           0       18.151692   -0.247865   -0.332503
    127          1           0       17.629908    1.277419   -1.156738
    128          1           0       18.326053    2.445040    0.572391
    129          1           0       18.615085    1.245686    1.756494
    130          1           0       20.284713    0.609277    0.111696
    131          1           0       19.478625    3.112226   -1.360849
    132          1           0       20.993919    2.102261   -1.626354
    133          1           0       19.484280    1.197626   -1.764793
    134          1           0       20.869015    2.198643    2.225053
    135          1           0       21.913964    2.644232    0.809644
    136          1           0       20.474320    3.489424    1.052983
    137          1           0       -7.271891    1.624024    0.269422
    138          1           0       -7.826751   -0.338542   -0.060036
 ---------------------------------------------------------------------

 SCF Done:  E(RB3LYP) =  -2732.97280016     A.U. after   17 cycles

 Excitation energies and oscillator strengths:

 Excited State   1:      Singlet-A      2.0133 eV  615.82 nm  f=0.1655  <S**2>=0.000
     235 -> 238       -0.31150
     236 -> 237        0.62705
 This state for optimization and/or second-order correction.
 Total Energy, E(TD-HF/TD-DFT) =  -2732.89881214
 Copying the excited state density for this state as the 1-particle RhoCI density.

 The electronic state is 1-A.
 Alpha  occ. eigenvalues --  -19.18546 -19.16739 -19.13051 -19.12798 -19.11686
 Alpha  occ. eigenvalues --  -14.37791 -14.34995 -14.32909 -14.30241 -10.31865
 Alpha  occ. eigenvalues --  -10.31536 -10.28488 -10.27381 -10.24458 -10.23953
 Alpha  occ. eigenvalues --  -10.23686 -10.23239 -10.23235 -10.22747 -10.22652
 Alpha  occ. eigenvalues --  -10.22650 -10.22566 -10.22182 -10.22129 -10.22070
 Alpha  occ. eigenvalues --  -10.21752 -10.21287 -10.21258 -10.21190 -10.20909
 Alpha  occ. eigenvalues --  -10.20673 -10.20613 -10.20595 -10.20594 -10.20341
 Alpha  occ. eigenvalues --  -10.20313 -10.20185 -10.20074 -10.20068 -10.20031
 Alpha  occ. eigenvalues --  -10.19598 -10.19578 -10.19522 -10.19349 -10.19172
 Alpha  occ. eigenvalues --  -10.19079 -10.18957 -10.18855 -10.18710 -10.18677
 Alpha  occ. eigenvalues --  -10.18342 -10.18241 -10.18151 -10.18053 -10.17953
 Alpha  occ. eigenvalues --  -10.17913 -10.17686 -10.17613 -10.17603 -10.17596
 Alpha  occ. eigenvalues --  -10.17260 -10.17176 -10.16298 -10.15759  -1.10215
 Alpha  occ. eigenvalues --   -1.09082  -1.02390  -1.00709  -0.99372  -0.98883
 Alpha  occ. eigenvalues --   -0.96380  -0.95286  -0.94065  -0.84518  -0.83788
 Alpha  occ. eigenvalues --   -0.82872  -0.82390  -0.81983  -0.81328  -0.80689
 Alpha  occ. eigenvalues --   -0.80485  -0.79757  -0.78879  -0.78243  -0.77937
 Alpha  occ. eigenvalues --   -0.76493  -0.76335  -0.75813  -0.74509  -0.73994
 Alpha  occ. eigenvalues --   -0.73554  -0.73083  -0.72504  -0.72035  -0.71319
 Alpha  occ. eigenvalues --   -0.70660  -0.68920  -0.68793  -0.68499  -0.68392
 Alpha  occ. eigenvalues --   -0.67679  -0.67231  -0.66482  -0.65917  -0.65042
 Alpha  occ. eigenvalues --   -0.64359  -0.62761  -0.62315  -0.62021  -0.61529
 Alpha  occ. eigenvalues --   -0.60896  -0.59812  -0.58541  -0.58049  -0.57752
 Alpha  occ. eigenvalues --   -0.57351  -0.56890  -0.56382  -0.55918  -0.55318
 Alpha  occ. eigenvalues --   -0.55148  -0.54738  -0.53919  -0.53782  -0.53126
 Alpha  occ. eigenvalues --   -0.52507  -0.52307  -0.51450  -0.51141  -0.49940
 Alpha  occ. eigenvalues --   -0.49745  -0.48968  -0.48820  -0.48773  -0.48504
 Alpha  occ. eigenvalues --   -0.48127  -0.47504  -0.47184  -0.47124  -0.47043
 Alpha  occ. eigenvalues --   -0.46774  -0.46620  -0.46452  -0.46209  -0.45799
 Alpha  occ. eigenvalues --   -0.45453  -0.45258  -0.45180  -0.44957  -0.44645
 Alpha  occ. eigenvalues --   -0.44531  -0.44454  -0.44174  -0.43708  -0.43657
 Alpha  occ. eigenvalues --   -0.43547  -0.43312  -0.42959  -0.42737  -0.42632
 Alpha  occ. eigenvalues --   -0.42385  -0.42223  -0.42011  -0.41854  -0.41686
 Alpha  occ. eigenvalues --   -0.41656  -0.41331  -0.40955  -0.40832  -0.40725
 Alpha  occ. eigenvalues --   -0.40687  -0.40472  -0.40403  -0.40267  -0.40166
 Alpha  occ. eigenvalues --   -0.39863  -0.39773  -0.39084  -0.38891  -0.38833
 Alpha  occ. eigenvalues --   -0.38548  -0.38148  -0.38025  -0.37793  -0.37627
 Alpha  occ. eigenvalues --   -0.37546  -0.37379  -0.37158  -0.36912  -0.36706
 Alpha  occ. eigenvalues --   -0.36674  -0.36373  -0.36183  -0.36049  -0.35710
 Alpha  occ. eigenvalues --   -0.35663  -0.35561  -0.35264  -0.35009  -0.34833
 Alpha  occ. eigenvalues --   -0.34779  -0.34335  -0.33889  -0.33883  -0.33474
 Alpha  occ. eigenvalues --   -0.33286  -0.33190  -0.32891  -0.32729  -0.32552
 Alpha  occ. eigenvalues --   -0.32294  -0.31679  -0.31629  -0.31024  -0.30835
 Alpha  occ. eigenvalues --   -0.30498  -0.29950  -0.29930  -0.29913  -0.29534
 Alpha  occ. eigenvalues --   -0.28942  -0.28757  -0.28566  -0.28250  -0.28171
 Alpha  occ. eigenvalues --   -0.28038  -0.27366  -0.26964  -0.26559  -0.25440
 Alpha  occ. eigenvalues --   -0.24764  -0.24360  -0.23529  -0.22793  -0.19827
 Alpha  occ. eigenvalues --   -0.19086
 Alpha virt. eigenvalues --   -0.10572  -0.07888  -0.04505  -0.01851  -0.01058
 Alpha virt. eigenvalues --   -0.00406  -0.00028   0.00641   0.01963   0.03388
 Alpha virt. eigenvalues --    0.03791   0.04054   0.04079   0.04186   0.04297

 Mulliken charges:
               1
     1  C    0.091569
     2  C   -0.060862
     3  C   -0.079655
     4  C    0.003064
     5  N   -0.159742
     6  C   -0.068555
     7  C    0.061534
     8  C   -0.139571
     9  C    0.046733
    10  C    0.103375
    11  C   -0.120433
    12  C    0.123261
    13  C    0.179003
    14  O   -0.206237
    15  O   -0.326951
    16  N   -0.050742
    17  C    0.060026
    18  C   -0.091092
    19  C   -0.017774
    20  C    0.064552
    21  C    0.082797
    22  C   -0.046585
    23  C   -0.046514
    24  N   -0.261819
    25  C    0.115912
    26  C   -0.163421
    27  C   -0.100271
    28  C    0.046028
    29  C    0.096291
    30  C    0.037842
    31  C   -0.047322
    32  N   -0.143403
    33  C    0.065677
    34  C   -0.143963
    35  C   -0.000810
    36  C    0.100986
    37  C    0.076769
    38  C    0.091529
    39  O   -0.169591
    40  C   -0.159640
    41  C    0.215107
    42  O   -0.262943
    43  O   -0.261819
    44  C    0.102198
    45  C    0.191481
    46  C   -0.020045
    47  C   -0.174703
    48  C    0.106548
    49  C    0.014392
    50  C    0.019732
    51  C    0.092045
    52  C   -0.074987
    53  C   -0.004455
    54  C    0.201523
    55  C    0.020941
    56  C    0.108923
    57  C   -0.126220
    58  C    0.072699
    59  C    0.039455
    60  C    0.072290
    61  C    0.010198
    62  C   -0.106910
    63  C   -0.009194
    64  C    0.139223
    65  H   -0.034468
    66  H   -0.067849
    67  H   -0.092651
    68  H    0.042114
    69  H    0.032734
    70  H    0.007042
    71  H   -0.033235
    72  H    0.043282
    73  H    0.059212
    74  H    0.015704
    75  H    0.011985
    76  H    0.020164
    77  H    0.031757
    78  H    0.021524
    79  H    0.005668
    80  H    0.022613
    81  H    0.027699
    82  H    0.049092
    83  H    0.043902
    84  H    0.035443
    85  H    0.004763
    86  H    0.031885
    87  H    0.015953
    88  H    0.017934
    89  H    0.062230
    90  H    0.021177
    91  H    0.055809
    92  H    0.030902
    93  H    0.029708
    94  H    0.085858
    95  H    0.058589
    96  H    0.055877
    97  H    0.060108
    98  H    0.005888
    99  H   -0.000712
   100  H   -0.026670
   101  H   -0.007318
   102  H    0.013469
   103  H    0.052348
   104  H    0.035868
   105  H    0.000815
   106  H   -0.015165
   107  H    0.002952
   108  H   -0.028002
   109  H   -0.009539
   110  H   -0.018883
   111  H    0.017156
   112  H    0.024329
   113  H    0.006185
   114  H   -0.003652
   115  H   -0.122651
   116  H   -0.005133
   117  H   -0.009647
   118  H   -0.075161
   119  H   -0.040204
   120  H   -0.022587
   121  H   -0.015559
   122  H    0.025010
   123  H   -0.010937
   124  H   -0.020401
   125  H   -0.007544
   126  H   -0.008612
   127  H    0.004586
   128  H   -0.058090
   129  H   -0.017775
   130  H   -0.035093
   131  H    0.019690
   132  H   -0.003907
   133  H    0.027694
   134  H    0.019308
   135  H    0.006983
   136  H   -0.026861
   137  H    0.199235
   138  H    0.148594
 Sum of Mulliken charges =  -0.00000

 Dipole moment (field-independent basis, Debye):
    X=              2.2716    Y=              4.0845    Z=              0.4362  Tot=              4.6940
 Quadrupole moment (field-independent basis, Debye-Ang):
   XX=           -352.2016   YY=           -380.8648   ZZ=           -396.0739
   XY=            -21.3506   XZ=             12.7825   YZ=             -0.2557

 Normal termination of Gaussian 16 at Sat Aug 17 13:06:12 2019.
