 Gaussian 16, Revision A.03,
 Gaussian 16:  ES64L-G16RevA.03 25-Dec-2016

 --------------------------
 # td=(NStates=1) B3LYP/SVP
 --------------------------

 --
 TD
 --
 Symbolic Z-matrix:
 Charge =  0 Multiplicity = 1

                         Standard orientation:
 ---------------------------------------------------------------------
 Center     Atomic      Atomic             Coordinates (Angstroms)
 Number     Number       Type             X           Y           Z
 ---------------------------------------------------------------------
      1          6           0       -5.094499   -1.902488    0.405513
      2          6           0       -4.865654    2.824245    1.402558
      3          6           0       -9.419653    3.141227   -0.291547
      4          6           0       -9.922583   -1.641426   -0.896623
      5          7           0       -5.242957    0.402565    0.979371
      6          6           0       -4.488750   -0.716418    0.918216
      7          6           0       -3.057017   -0.428745    1.228000
      8          6           0       -3.099023    0.985983    1.852219
      9          6           0       -4.523829    1.456643    1.379138
     10          6           0       -2.889172    1.043971    3.398953
     11          6           0       -2.116277   -0.545023    0.073088
     12          6           0       -0.596940   -0.441175    0.562699
     13          6           0        0.277538   -0.743438   -0.677041
     14          8           0       -0.040058   -1.317926   -1.752652
     15          8           0        1.484561   -0.452358   -0.330342
     16          7           0       -7.047622    2.773342    0.420606
     17          6           0       -6.025078    3.442097    0.945883
     18          6           0       -6.363595    4.831598    0.966631
     19          6           0       -7.704466    4.939258    0.498044
     20          6           0       -8.157236    3.485718    0.125696
     21          6           0       -5.560102    5.918246    1.509512
     22          6           0       -8.451872    6.133688    0.139720
     23          6           0       -9.373170    6.445916   -0.786232
     24          7           0       -9.209898    0.637446   -0.455169
     25          6           0       -9.923691    1.813880   -0.533247
     26          6           0      -11.216385    1.629351   -0.910085
     27          6           0      -11.471343    0.287124   -1.052042
     28          6           0      -10.166475   -0.322462   -0.701956
     29          6           0      -12.315538    2.712330   -1.019390
     30          6           0      -12.662859   -0.488891   -1.544981
     31          6           0      -12.582882   -0.938703   -3.029501
     32          7           0       -7.514004   -1.300249   -0.166789
     33          6           0       -8.604763   -2.202954   -0.523467
     34          6           0       -8.022989   -3.476777   -0.491154
     35          6           0       -6.697976   -3.489452   -0.087874
     36          6           0       -6.408451   -2.056534    0.074515
     37          6           0       -8.816647   -4.729872   -0.874931
     38          6           0       -5.532561   -4.281570    0.122450
     39          8           0       -5.351129   -5.531017   -0.059862
     40          6           0       -4.382956   -3.261253    0.540548
     41          6           0       -3.717807   -3.547251    1.812816
     42          8           0       -3.945003   -3.158693    2.914299
     43          8           0       -2.895545   -4.664849    1.538502
     44          6           0       -2.217261   -5.175885    2.689797
     45          6           0        2.504203   -0.800608   -1.255621
     46          6           0        3.940039   -0.519198   -0.793036
     47          6           0        4.963789    0.132044   -1.361231
     48          6           0        4.795421    0.760747   -2.757016
     49          6           0        6.265952    0.466577   -0.655872
     50          6           0        7.476929   -0.207607   -1.309642
     51          6           0        8.753616   -0.027854   -0.454774
     52          6           0       10.066264   -0.667900   -0.875008
     53          6           0       10.019808   -2.271805   -1.004088
     54          6           0       11.268627   -0.013335   -0.079646
     55          6           0       12.580196   -0.419881   -0.603788
     56          6           0       13.757950   -0.001318    0.235853
     57          6           0       15.260379   -0.294971   -0.192092
     58          6           0       15.580716   -1.760035   -0.081410
     59          6           0       16.329508    0.661836    0.629329
     60          6           0       17.725306    0.515407   -0.055475
     61          6           0       18.740934    1.421493    0.672573
     62          6           0       20.140015    1.353923    0.230555
     63          6           0       20.387793    1.929777   -1.139113
     64          6           0       21.096149    2.222955    1.052531
     65          1           0       -4.415498    3.741866    1.888752
     66          1           0      -10.089779    4.066505   -0.400157
     67          1           0      -10.675924   -2.293154   -1.003416
     68          1           0       -2.718128   -1.210554    2.111285
     69          1           0       -2.413278    1.649296    1.390830
     70          1           0       -1.866787    0.594650    3.576236
     71          1           0       -3.090296    1.967464    3.883669
     72          1           0       -3.578492    0.198549    3.878587
     73          1           0       -2.262096   -1.425729   -0.436542
     74          1           0       -2.258011    0.216210   -0.636679
     75          1           0       -0.210865    0.583197    0.956669
     76          1           0       -0.473267   -1.404238    1.256026
     77          1           0       -4.778974    5.879285    1.025211
     78          1           0       -6.133527    6.902114    1.419717
     79          1           0       -4.995055    5.741927    2.570810
     80          1           0       -8.208529    7.001813    0.912280
     81          1           0       -9.684777    5.645979   -1.391052
     82          1           0       -9.803863    7.413128   -0.894391
     83          1           0      -12.328111    3.289263   -0.091592
     84          1           0      -12.048126    3.676728   -1.742887
     85          1           0      -13.448890    2.378744   -1.371295
     86          1           0      -12.763757   -1.222717   -0.731017
     87          1           0      -13.544963    0.093315   -1.288923
     88          1           0      -12.331862    0.002915   -3.851039
     89          1           0      -11.743663   -1.659794   -2.875632
     90          1           0      -13.451553   -1.559852   -3.641580
     91          1           0       -9.644124   -4.719317   -0.137075
     92          1           0       -9.090698   -4.618487   -2.010323
     93          1           0       -8.267312   -5.561524   -0.894517
     94          1           0       -3.681925   -3.536704   -0.213012
     95          1           0       -1.316536   -5.729840    2.221515
     96          1           0       -1.879278   -4.265719    3.285163
     97          1           0       -2.873654   -5.945310    3.127172
     98          1           0        2.281056   -2.041970   -1.185587
     99          1           0        2.486694   -0.282423   -2.329226
    100          1           0        4.063034   -0.872470    0.162026
    101          1           0        4.766316    1.900487   -2.445989
    102          1           0        5.620287    0.620841   -3.446783
    103          1           0        3.827845    0.559371   -3.424548
    104          1           0        6.216743    1.529551   -0.155463
    105          1           0        6.254879    0.023627    0.388372
    106          1           0        7.218427   -1.222087   -1.297667
    107          1           0        7.573561    0.124223   -2.328606
    108          1           0        9.044432    1.101917   -0.312246
    109          1           0        8.683755   -0.589368    0.544670
    110          1           0       10.475623   -0.281765   -1.961631
    111          1           0        9.077162   -2.545724   -1.735028
    112          1           0       10.862015   -2.507864   -1.499550
    113          1           0        9.705693   -3.028089   -0.118683
    114          1           0       11.159626    1.070788    0.096312
    115          1           0       10.985272   -0.253480    0.971974
    116          1           0       12.722553   -1.583179   -0.636162
    117          1           0       12.515396   -0.129375   -1.867003
    118          1           0       13.782219    1.277109    0.483850
    119          1           0       13.667134   -0.433061    1.254470
    120          1           0       15.270038    0.210430   -1.275261
    121          1           0       15.055556   -2.466332   -0.574679
    122          1           0       16.457058   -1.831636   -0.507264
    123          1           0       15.801124   -1.848019    1.035623
    124          1           0       16.041139    1.802757    0.675161
    125          1           0       16.312646    0.340786    1.758773
    126          1           0       18.124452   -0.312792    0.005547
    127          1           0       17.705655    0.835803   -1.056705
    128          1           0       18.412120    2.503690    0.661071
    129          1           0       18.757040    1.305875    1.924754
    130          1           0       20.741090    0.326586    0.367433
    131          1           0       19.912678    3.001771   -1.398931
    132          1           0       21.427089    2.014284   -1.311343
    133          1           0       19.987437    1.308512   -1.952874
    134          1           0       21.022448    1.838131    2.022564
    135          1           0       22.039246    2.268577    0.540461
    136          1           0       20.694239    3.209374    1.180880
    137          1           0       -6.978772    1.782946    0.412910
    138          1           0       -7.511450   -0.298038   -0.057808
 ---------------------------------------------------------------------

 SCF Done:  E(RB3LYP) =  -2732.98208104     A.U. after   18 cycles

 Excitation energies and oscillator strengths:

 Excited State   1:      Singlet-A      2.0601 eV  601.82 nm  f=0.1792  <S**2>=0.000
     235 -> 237       -0.18944
     235 -> 238        0.29296
     236 -> 237        0.59999
     236 -> 238        0.12258
 This state for optimization and/or second-order correction.
 Total Energy, E(TD-HF/TD-DFT) =  -2732.90637223
 Copying the excited state density for this state as the 1-particle RhoCI density.

 The electronic state is 1-A.
 Alpha  occ. eigenvalues --  -19.19320 -19.16016 -19.13280 -19.11883 -19.11440
 Alpha  occ. eigenvalues --  -14.37393 -14.36623 -14.32730 -14.29762 -10.31556
 Alpha  occ. eigenvalues --  -10.31289 -10.27825 -10.27016 -10.24581 -10.24247
 Alpha  occ. eigenvalues --  -10.24017 -10.23937 -10.23926 -10.23304 -10.23228
 Alpha  occ. eigenvalues --  -10.22296 -10.22100 -10.21777 -10.21511 -10.21446
 Alpha  occ. eigenvalues --  -10.21285 -10.21197 -10.21193 -10.21121 -10.20893
 Alpha  occ. eigenvalues --  -10.20786 -10.20785 -10.20768 -10.20712 -10.20686
 Alpha  occ. eigenvalues --  -10.20683 -10.20519 -10.20510 -10.20417 -10.20339
 Alpha  occ. eigenvalues --  -10.20330 -10.20312 -10.20181 -10.20064 -10.19861
 Alpha  occ. eigenvalues --  -10.19850 -10.19785 -10.19780 -10.19749 -10.19630
 Alpha  occ. eigenvalues --  -10.19302 -10.19068 -10.19028 -10.18816 -10.18759
 Alpha  occ. eigenvalues --  -10.18668 -10.18588 -10.18504 -10.18435 -10.18196
 Alpha  occ. eigenvalues --  -10.17828 -10.16785 -10.16649 -10.16265  -1.12034
 Alpha  occ. eigenvalues --   -1.08361  -1.00641  -1.00074  -0.98730  -0.98580
 Alpha  occ. eigenvalues --   -0.96705  -0.95119  -0.93534  -0.84800  -0.82808
 Alpha  occ. eigenvalues --   -0.82693  -0.82182  -0.81836  -0.81352  -0.81073
 Alpha  occ. eigenvalues --   -0.80421  -0.79590  -0.79515  -0.79076  -0.77899
 Alpha  occ. eigenvalues --   -0.77484  -0.76527  -0.76013  -0.75299  -0.74807
 Alpha  occ. eigenvalues --   -0.73843  -0.73524  -0.72811  -0.72138  -0.71996
 Alpha  occ. eigenvalues --   -0.69886  -0.68753  -0.68051  -0.67838  -0.67637
 Alpha  occ. eigenvalues --   -0.67149  -0.66935  -0.66594  -0.66395  -0.65913
 Alpha  occ. eigenvalues --   -0.64890  -0.63858  -0.63000  -0.61965  -0.61754
 Alpha  occ. eigenvalues --   -0.61567  -0.60335  -0.59102  -0.58419  -0.57622
 Alpha  occ. eigenvalues --   -0.57242  -0.56784  -0.55743  -0.55252  -0.54972
 Alpha  occ. eigenvalues --   -0.54479  -0.54440  -0.54331  -0.53408  -0.53147
 Alpha  occ. eigenvalues --   -0.52827  -0.52361  -0.51413  -0.51138  -0.50843
 Alpha  occ. eigenvalues --   -0.50636  -0.49961  -0.48576  -0.48357  -0.48249
 Alpha  occ. eigenvalues --   -0.48216  -0.47729  -0.47592  -0.47558  -0.47280
 Alpha  occ. eigenvalues --   -0.46567  -0.46471  -0.46301  -0.46140  -0.46007
 Alpha  occ. eigenvalues --   -0.45590  -0.45450  -0.45412  -0.45329  -0.44911
 Alpha  occ. eigenvalues --   -0.44346  -0.44291  -0.44071  -0.43950  -0.43671
 Alpha  occ. eigenvalues --   -0.43563  -0.43476  -0.43382  -0.43191  -0.42762
 Alpha  occ. eigenvalues --   -0.42660  -0.42090  -0.41859  -0.41764  -0.41308
 Alpha  occ. eigenvalues --   -0.41160  -0.41021  -0.40993  -0.40802  -0.40565
 Alpha  occ. eigenvalues --   -0.40457  -0.40315  -0.39788  -0.39740  -0.39652
 Alpha  occ. eigenvalues --   -0.39448  -0.39051  -0.38925  -0.38700  -0.38448
 Alpha  occ. eigenvalues --   -0.38353  -0.38252  -0.37902  -0.37798  -0.37416
 Alpha  occ. eigenvalues --   -0.37288  -0.37145  -0.37038  -0.36667  -0.36551
 Alpha  occ. eigenvalues --   -0.36484  -0.36255  -0.35838  -0.35734  -0.35536
 Alpha  occ. eigenvalues --   -0.35422  -0.35322  -0.35130  -0.34858  -0.34623
 Alpha  occ. eigenvalues --   -0.34538  -0.34449  -0.34241  -0.33867  -0.33248
 Alpha  occ. eigenvalues --   -0.33223  -0.32979  -0.32861  -0.32703  -0.32648
 Alpha  occ. eigenvalues --   -0.32474  -0.32138  -0.31991  -0.31541  -0.31100
 Alpha  occ. eigenvalues --   -0.30859  -0.30463  -0.30325  -0.29943  -0.29680
 Alpha  occ. eigenvalues --   -0.29642  -0.28834  -0.28694  -0.28247  -0.28137
 Alpha  occ. eigenvalues --   -0.27621  -0.27185  -0.26790  -0.26712  -0.26040
 Alpha  occ. eigenvalues --   -0.25053  -0.24495  -0.24315  -0.22674  -0.20458
 Alpha  occ. eigenvalues --   -0.19185
 Alpha virt. eigenvalues --   -0.10609  -0.08437  -0.05293  -0.02357  -0.00913
 Alpha virt. eigenvalues --   -0.00856  -0.00552   0.00603   0.01751   0.03439
 Alpha virt. eigenvalues --    0.03775   0.03932   0.04224   0.04361   0.04684

 Mulliken charges:
               1
     1  C   -0.029056
     2  C   -0.002534
     3  C   -0.131525
     4  C   -0.007655
     5  N   -0.168608
     6  C   -0.040875
     7  C   -0.102250
     8  C   -0.001328
     9  C    0.021869
    10  C    0.044494
    11  C    0.158762
    12  C   -0.044745
    13  C    0.171369
    14  O   -0.286229
    15  O   -0.238257
    16  N    0.023739
    17  C   -0.061412
    18  C   -0.104984
    19  C   -0.004628
    20  C    0.071888
    21  C    0.180438
    22  C   -0.103083
    23  C    0.014376
    24  N   -0.263858
    25  C    0.133258
    26  C   -0.111088
    27  C   -0.146900
    28  C    0.082310
    29  C    0.019590
    30  C    0.120084
    31  C   -0.059385
    32  N   -0.064478
    33  C    0.096799
    34  C   -0.198826
    35  C    0.035425
    36  C    0.120783
    37  C    0.144922
    38  C    0.054058
    39  O   -0.224231
    40  C   -0.003643
    41  C    0.200479
    42  O   -0.192391
    43  O   -0.350261
    44  C    0.150511
    45  C    0.189808
    46  C   -0.056956
    47  C   -0.109487
    48  C   -0.011573
    49  C    0.016993
    50  C    0.122090
    51  C   -0.014498
    52  C   -0.124615
    53  C    0.004986
    54  C    0.035066
    55  C    0.018824
    56  C   -0.020205
    57  C   -0.131998
    58  C    0.193418
    59  C   -0.062203
    60  C    0.228517
    61  C   -0.046881
    62  C   -0.138497
    63  C    0.030664
    64  C    0.109911
    65  H   -0.033144
    66  H   -0.001004
    67  H   -0.049720
    68  H    0.037727
    69  H   -0.021611
    70  H    0.020261
    71  H    0.017269
    72  H    0.036252
    73  H   -0.012190
    74  H   -0.011136
    75  H    0.060906
    76  H    0.058243
    77  H   -0.057487
    78  H    0.035244
    79  H    0.038508
    80  H    0.022020
    81  H    0.009434
    82  H    0.022904
    83  H    0.019224
    84  H    0.016352
    85  H    0.052118
    86  H    0.006225
    87  H   -0.022670
    88  H    0.051596
    89  H    0.018250
    90  H    0.042162
    91  H    0.040491
    92  H    0.034148
    93  H   -0.013595
    94  H    0.041065
    95  H    0.034843
    96  H    0.046443
    97  H    0.043545
    98  H    0.041858
    99  H    0.045284
   100  H   -0.049441
   101  H    0.036071
   102  H    0.025398
   103  H    0.043555
   104  H    0.028830
   105  H   -0.019264
   106  H   -0.010410
   107  H    0.003004
   108  H    0.013416
   109  H    0.011159
   110  H   -0.007067
   111  H    0.016885
   112  H   -0.006625
   113  H    0.034323
   114  H   -0.010906
   115  H   -0.025662
   116  H    0.016619
   117  H    0.014648
   118  H   -0.006961
   119  H   -0.005538
   120  H    0.003632
   121  H   -0.011294
   122  H   -0.055581
   123  H    0.010522
   124  H    0.018016
   125  H    0.012822
   126  H   -0.076665
   127  H   -0.013631
   128  H   -0.009509
   129  H   -0.007391
   130  H    0.010009
   131  H    0.013933
   132  H   -0.012114
   133  H   -0.005899
   134  H   -0.024492
   135  H    0.004243
   136  H   -0.024023
   137  H    0.121319
   138  H    0.137961
 Sum of Mulliken charges =  -0.00000

 Dipole moment (field-independent basis, Debye):
    X=              3.3920    Y=              5.8505    Z=              0.9982  Tot=              6.8360
 Quadrupole moment (field-independent basis, Debye-Ang):
   XX=           -338.8797   YY=           -388.4041   ZZ=           -400.0686
   XY=            -35.6347   XZ=              2.1265   YZ=             -0.4761

 Normal termination of Gaussian 16 at Sat Aug 31 15:04:43 2019.
