 Gaussian 16, Revision A.03,
 Gaussian 16:  ES64L-G16RevA.03 25-Dec-2016

 --------------------------
 # td=(NStates=1) B3LYP/SVP
 --------------------------

 --
 TD
 --
 Symbolic Z-matrix:
 Charge =  0 Multiplicity = 1

                         Standard orientation:
 ---------------------------------------------------------------------
 Center     Atomic      Atomic             Coordinates (Angstroms)
 Number     Number       Type             X           Y           Z
 ---------------------------------------------------------------------
      1          6           0       -5.082183   -1.986242    0.380895
      2          6           0       -4.661374    2.707414    1.396706
      3          6           0       -9.301236    3.367522   -0.149467
      4          6           0       -9.799647   -1.352095   -0.921654
      5          7           0       -5.116730    0.438271    0.746548
      6          6           0       -4.416838   -0.747962    0.805150
      7          6           0       -3.102135   -0.582662    1.334166
      8          6           0       -3.121739    0.895496    1.948925
      9          6           0       -4.418936    1.362397    1.404269
     10          6           0       -3.039118    0.849484    3.494695
     11          6           0       -2.035102   -0.685043    0.090094
     12          6           0       -0.564934   -0.793464    0.469446
     13          6           0        0.362935   -0.984160   -0.676368
     14          8           0        0.081379   -1.468683   -1.758275
     15          8           0        1.690306   -0.628373   -0.374485
     16          7           0       -6.982616    2.706215    0.540205
     17          6           0       -5.907804    3.347302    1.032823
     18          6           0       -6.192264    4.751922    0.982839
     19          6           0       -7.582535    4.946917    0.600715
     20          6           0       -7.990900    3.664600    0.231931
     21          6           0       -5.242434    5.893109    1.347154
     22          6           0       -8.212669    6.247136    0.359576
     23          6           0       -9.135444    6.559517   -0.602123
     24          7           0       -9.284848    0.868240   -0.464522
     25          6           0       -9.856677    2.086251   -0.531706
     26          6           0      -11.243507    1.928245   -0.991984
     27          6           0      -11.431939    0.595193   -1.133548
     28          6           0      -10.106588   -0.041658   -0.860142
     29          6           0      -12.355930    3.026894   -1.028837
     30          6           0      -12.633006   -0.228865   -1.558155
     31          6           0      -12.729630   -0.607027   -3.094133
     32          7           0       -7.459326   -1.219302   -0.382765
     33          6           0       -8.523994   -1.923185   -0.774251
     34          6           0       -8.224704   -3.370144   -0.624143
     35          6           0       -6.828835   -3.507320   -0.319530
     36          6           0       -6.461066   -2.092662   -0.062548
     37          6           0       -9.109736   -4.424197   -1.048915
     38          6           0       -5.739386   -4.277558    0.074747
     39          8           0       -5.668247   -5.468607    0.010520
     40          6           0       -4.587334   -3.358053    0.433268
     41          6           0       -3.917580   -3.777253    1.766440
     42          8           0       -4.192124   -3.400071    2.857411
     43          8           0       -2.972645   -4.834794    1.514645
     44          6           0       -2.570114   -5.526671    2.702667
     45          6           0        2.670631   -0.940246   -1.355363
     46          6           0        3.957310   -0.669082   -0.674924
     47          6           0        5.055515   -0.001565   -1.174460
     48          6           0        5.064265    0.723236   -2.457546
     49          6           0        6.222547    0.099521   -0.215933
     50          6           0        7.562925   -0.406290   -0.940243
     51          6           0        8.788967   -0.385174   -0.071982
     52          6           0       10.119745   -0.806391   -0.666066
     53          6           0        9.970553   -2.371756   -0.890402
     54          6           0       11.335309   -0.373092    0.200648
     55          6           0       12.608906   -0.787486   -0.394187
     56          6           0       13.823373    0.019986    0.262511
     57          6           0       15.128766   -0.091706   -0.462264
     58          6           0       15.641601   -1.597662   -0.607728
     59          6           0       16.198323    0.714947    0.369195
     60          6           0       17.623563    0.674514   -0.175825
     61          6           0       18.594153    1.678655    0.643418
     62          6           0       20.118757    1.729618    0.067148
     63          6           0       20.265478    2.221416   -1.314122
     64          6           0       20.896458    2.520803    1.123139
     65          1           0       -3.900397    3.508598    1.596060
     66          1           0      -10.080741    4.064238   -0.259559
     67          1           0      -10.474261   -2.196032   -1.516468
     68          1           0       -2.851988   -1.334932    1.954501
     69          1           0       -2.202642    1.357074    1.470672
     70          1           0       -1.903533    0.570214    3.834127
     71          1           0       -3.498332    1.964515    3.836475
     72          1           0       -3.671857    0.219717    3.979718
     73          1           0       -2.230560   -1.711437   -0.556448
     74          1           0       -2.021429    0.205270   -0.726519
     75          1           0       -0.353179    0.002983    1.211502
     76          1           0       -0.588979   -1.762528    1.024922
     77          1           0       -4.328574    5.784862    0.588238
     78          1           0       -5.650223    6.930847    1.123994
     79          1           0       -4.765805    5.912488    2.408346
     80          1           0       -7.962911    6.968425    0.912535
     81          1           0       -9.648229    5.785478   -1.204639
     82          1           0       -9.465580    7.570534   -0.606196
     83          1           0      -12.306066    3.593504   -0.098719
     84          1           0      -12.132903    3.776516   -1.746819
     85          1           0      -13.496272    2.791927   -0.972950
     86          1           0      -12.821670   -1.224758   -0.839644
     87          1           0      -13.582283    0.393076   -1.358057
     88          1           0      -12.518356    0.407319   -3.566164
     89          1           0      -11.908274   -1.214013   -3.541236
     90          1           0      -13.688929   -1.090916   -3.303610
     91          1           0      -10.055491   -4.615750   -0.413472
     92          1           0       -9.602318   -4.402087   -1.860546
     93          1           0       -8.794481   -5.600527   -1.069831
     94          1           0       -3.624069   -3.491968   -0.182625
     95          1           0       -1.785229   -6.245094    2.286699
     96          1           0       -2.417401   -4.738665    3.530574
     97          1           0       -3.333575   -5.970550    3.116875
     98          1           0        2.357914   -2.071559   -1.687213
     99          1           0        2.604009   -0.177317   -2.200420
    100          1           0        4.069743   -0.930026    0.372970
    101          1           0        5.845121    1.583438   -2.293314
    102          1           0        5.557702    0.091280   -3.076969
    103          1           0        4.068565    0.918831   -2.767814
    104          1           0        6.333186    1.233584    0.219137
    105          1           0        6.213765   -0.366424    0.964733
    106          1           0        7.488418   -1.383842   -1.088534
    107          1           0        7.994797   -0.064997   -2.008206
    108          1           0        8.996342    0.789130    0.151811
    109          1           0        8.678666   -0.728149    1.034816
    110          1           0       10.036506   -0.189620   -1.727576
    111          1           0        9.090982   -2.867434   -1.329571
    112          1           0       10.790040   -2.564138   -1.430322
    113          1           0       10.229000   -2.912672    0.168920
    114          1           0       11.171323    0.693077    0.506792
    115          1           0       11.269525   -0.835169    1.284220
    116          1           0       12.772938   -1.849301   -0.410860
    117          1           0       12.689558   -0.548345   -1.570188
    118          1           0       13.578706    1.094522    0.258522
    119          1           0       13.937090   -0.415242    1.324121
    120          1           0       15.081732    0.344402   -1.536891
    121          1           0       14.962834   -2.182850   -1.033607
    122          1           0       16.439789   -1.758752   -1.013232
    123          1           0       15.893939   -2.162122    0.389373
    124          1           0       15.969444    1.904531    0.377133
    125          1           0       16.227291    0.273104    1.420459
    126          1           0       17.859798   -0.400539   -0.401669
    127          1           0       17.617659    1.039942   -1.182821
    128          1           0       18.186828    2.627237    0.624595
    129          1           0       18.240081    1.402248    1.636436
    130          1           0       20.648470    0.690236    0.038247
    131          1           0       19.863752    3.285120   -1.447998
    132          1           0       21.483525    2.436457   -1.849166
    133          1           0       19.463041    1.603860   -2.032287
    134          1           0       20.840496    1.925539    1.992658
    135          1           0       21.949552    2.671214    1.163351
    136          1           0       20.725925    3.551886    1.376725
    137          1           0       -7.006615    1.678396    0.500594
    138          1           0       -7.456168   -0.280147   -0.307587
 ---------------------------------------------------------------------

 SCF Done:  E(RB3LYP) =  -2732.95032515     A.U. after   17 cycles

 Excitation energies and oscillator strengths:

 Excited State   1:      Singlet-A      1.9928 eV  622.15 nm  f=0.1592  <S**2>=0.000
     235 -> 237       -0.15944
     235 -> 238        0.31174
     236 -> 237        0.60488
 This state for optimization and/or second-order correction.
 Total Energy, E(TD-HF/TD-DFT) =  -2732.87708966
 Copying the excited state density for this state as the 1-particle RhoCI density.

 The electronic state is 1-A.
 Alpha  occ. eigenvalues --  -19.16857 -19.16838 -19.14477 -19.13265 -19.11486
 Alpha  occ. eigenvalues --  -14.37710 -14.37229 -14.32804 -14.29471 -10.32342
 Alpha  occ. eigenvalues --  -10.32184 -10.27241 -10.25290 -10.24542 -10.23929
 Alpha  occ. eigenvalues --  -10.23926 -10.23893 -10.23878 -10.23384 -10.23080
 Alpha  occ. eigenvalues --  -10.22652 -10.22370 -10.22161 -10.21777 -10.21760
 Alpha  occ. eigenvalues --  -10.21730 -10.21269 -10.21241 -10.21177 -10.21090
 Alpha  occ. eigenvalues --  -10.21068 -10.20909 -10.20887 -10.20872 -10.20718
 Alpha  occ. eigenvalues --  -10.20717 -10.20584 -10.20554 -10.20396 -10.20355
 Alpha  occ. eigenvalues --  -10.20075 -10.20048 -10.19884 -10.19822 -10.19769
 Alpha  occ. eigenvalues --  -10.19760 -10.19730 -10.19407 -10.19326 -10.19300
 Alpha  occ. eigenvalues --  -10.19086 -10.19015 -10.18965 -10.18833 -10.18793
 Alpha  occ. eigenvalues --  -10.18764 -10.18715 -10.18681 -10.18322 -10.18241
 Alpha  occ. eigenvalues --  -10.17821 -10.17741 -10.16312 -10.15958  -1.08805
 Alpha  occ. eigenvalues --   -1.08203  -1.03698  -1.01045  -1.00391  -1.00162
 Alpha  occ. eigenvalues --   -0.98030  -0.95589  -0.95270  -0.86212  -0.82456
 Alpha  occ. eigenvalues --   -0.82372  -0.81630  -0.81346  -0.81145  -0.80487
 Alpha  occ. eigenvalues --   -0.80050  -0.79444  -0.79291  -0.78336  -0.77877
 Alpha  occ. eigenvalues --   -0.76905  -0.76563  -0.75997  -0.74926  -0.74207
 Alpha  occ. eigenvalues --   -0.73298  -0.73167  -0.72406  -0.71861  -0.71341
 Alpha  occ. eigenvalues --   -0.70217  -0.69021  -0.68943  -0.68592  -0.68334
 Alpha  occ. eigenvalues --   -0.68031  -0.67821  -0.66813  -0.66187  -0.64866
 Alpha  occ. eigenvalues --   -0.64391  -0.63811  -0.62935  -0.62407  -0.60895
 Alpha  occ. eigenvalues --   -0.60551  -0.59789  -0.58719  -0.58251  -0.58058
 Alpha  occ. eigenvalues --   -0.57484  -0.56562  -0.56341  -0.55786  -0.55446
 Alpha  occ. eigenvalues --   -0.55029  -0.54936  -0.54729  -0.53895  -0.53415
 Alpha  occ. eigenvalues --   -0.52997  -0.52916  -0.51999  -0.51223  -0.50486
 Alpha  occ. eigenvalues --   -0.49926  -0.49720  -0.49384  -0.49099  -0.48285
 Alpha  occ. eigenvalues --   -0.47940  -0.47873  -0.47603  -0.47300  -0.46811
 Alpha  occ. eigenvalues --   -0.46513  -0.46318  -0.46083  -0.46044  -0.45724
 Alpha  occ. eigenvalues --   -0.45478  -0.45418  -0.45237  -0.45165  -0.44626
 Alpha  occ. eigenvalues --   -0.44266  -0.44087  -0.44017  -0.43887  -0.43753
 Alpha  occ. eigenvalues --   -0.43520  -0.43323  -0.42990  -0.42889  -0.42709
 Alpha  occ. eigenvalues --   -0.42574  -0.42513  -0.41879  -0.41770  -0.41588
 Alpha  occ. eigenvalues --   -0.41507  -0.41135  -0.40685  -0.40512  -0.40426
 Alpha  occ. eigenvalues --   -0.40339  -0.40171  -0.39984  -0.39740  -0.39494
 Alpha  occ. eigenvalues --   -0.39305  -0.39299  -0.39128  -0.38897  -0.38514
 Alpha  occ. eigenvalues --   -0.38393  -0.38363  -0.38020  -0.37802  -0.37484
 Alpha  occ. eigenvalues --   -0.37416  -0.37213  -0.36990  -0.36651  -0.36564
 Alpha  occ. eigenvalues --   -0.36446  -0.36301  -0.36127  -0.36026  -0.35842
 Alpha  occ. eigenvalues --   -0.35694  -0.35559  -0.35497  -0.35252  -0.35122
 Alpha  occ. eigenvalues --   -0.34637  -0.34562  -0.34261  -0.34091  -0.33845
 Alpha  occ. eigenvalues --   -0.33549  -0.33321  -0.32822  -0.32499  -0.32492
 Alpha  occ. eigenvalues --   -0.31978  -0.31604  -0.31530  -0.31299  -0.31164
 Alpha  occ. eigenvalues --   -0.30742  -0.30718  -0.30389  -0.30112  -0.29893
 Alpha  occ. eigenvalues --   -0.29802  -0.29089  -0.28767  -0.28651  -0.28307
 Alpha  occ. eigenvalues --   -0.28079  -0.27741  -0.26744  -0.26085  -0.25825
 Alpha  occ. eigenvalues --   -0.25282  -0.23863  -0.23427  -0.23376  -0.19737
 Alpha  occ. eigenvalues --   -0.19201
 Alpha virt. eigenvalues --   -0.10800  -0.07939  -0.05327  -0.02563  -0.01406
 Alpha virt. eigenvalues --   -0.00978  -0.00281  -0.00210   0.01181   0.03465
 Alpha virt. eigenvalues --    0.03589   0.03612   0.03769   0.04345   0.04832

 Mulliken charges:
               1
     1  C    0.067471
     2  C   -0.065879
     3  C   -0.048420
     4  C   -0.100383
     5  N   -0.182702
     6  C   -0.030325
     7  C    0.063979
     8  C   -0.028645
     9  C    0.047519
    10  C    0.043567
    11  C   -0.142114
    12  C    0.083508
    13  C    0.200345
    14  O   -0.228747
    15  O   -0.348168
    16  N   -0.069194
    17  C    0.032655
    18  C   -0.126138
    19  C    0.056635
    20  C    0.150862
    21  C    0.005553
    22  C    0.018734
    23  C   -0.004779
    24  N   -0.164419
    25  C   -0.015229
    26  C   -0.121190
    27  C   -0.069888
    28  C    0.060613
    29  C    0.086826
    30  C   -0.014208
    31  C   -0.004979
    32  N    0.086971
    33  C   -0.006782
    34  C   -0.073485
    35  C    0.064040
    36  C   -0.033460
    37  C    0.080936
    38  C    0.043264
    39  O   -0.147731
    40  C   -0.049668
    41  C    0.164968
    42  O   -0.183128
    43  O   -0.364757
    44  C    0.230457
    45  C    0.250366
    46  C   -0.088950
    47  C   -0.174501
    48  C    0.179455
    49  C   -0.034180
    50  C    0.109102
    51  C   -0.066230
    52  C   -0.125331
    53  C    0.044317
    54  C    0.041334
    55  C    0.012270
    56  C    0.050376
    57  C   -0.090192
    58  C    0.164398
    59  C   -0.056398
    60  C    0.029739
    61  C    0.064535
    62  C   -0.022691
    63  C   -0.079418
    64  C    0.065651
    65  H   -0.005125
    66  H   -0.057352
    67  H    0.038273
    68  H   -0.051660
    69  H    0.020456
    70  H    0.040199
    71  H    0.025474
    72  H    0.006492
    73  H    0.052426
    74  H    0.039063
    75  H    0.027781
    76  H    0.038532
    77  H    0.037912
    78  H    0.028080
    79  H    0.050049
    80  H   -0.082528
    81  H    0.032217
    82  H    0.016486
    83  H    0.011937
    84  H    0.002387
    85  H    0.036641
    86  H    0.023141
    87  H    0.004541
    88  H    0.021606
    89  H    0.014400
    90  H    0.026447
    91  H    0.012476
    92  H   -0.039510
    93  H    0.046993
    94  H    0.067206
    95  H    0.056342
    96  H    0.026039
    97  H   -0.026465
    98  H    0.057242
    99  H    0.011669
   100  H   -0.017857
   101  H    0.026720
   102  H   -0.002012
   103  H    0.015890
   104  H    0.024210
   105  H    0.035098
   106  H   -0.048361
   107  H    0.007934
   108  H   -0.024169
   109  H   -0.003562
   110  H    0.011647
   111  H    0.032347
   112  H   -0.024459
   113  H    0.013235
   114  H   -0.001126
   115  H    0.000110
   116  H    0.007995
   117  H   -0.001867
   118  H    0.000612
   119  H    0.005485
   120  H    0.007086
   121  H   -0.040867
   122  H   -0.083949
   123  H   -0.008745
   124  H    0.009287
   125  H    0.009697
   126  H   -0.003120
   127  H   -0.030282
   128  H   -0.029278
   129  H   -0.009406
   130  H    0.017722
   131  H    0.008718
   132  H    0.043183
   133  H    0.034171
   134  H   -0.014356
   135  H   -0.030055
   136  H   -0.010247
   137  H    0.150221
   138  H    0.074344
 Sum of Mulliken charges =  -0.00000

 Dipole moment (field-independent basis, Debye):
    X=              1.3748    Y=              4.0849    Z=              0.9648  Tot=              4.4167
 Quadrupole moment (field-independent basis, Debye-Ang):
   XX=           -352.6838   YY=           -382.2662   ZZ=           -396.9462
   XY=            -24.7445   XZ=              7.3705   YZ=             -0.2448

 Normal termination of Gaussian 16 at Sun Sep  1 01:04:20 2019.
