 Gaussian 16, Revision A.03,
 Gaussian 16:  ES64L-G16RevA.03 25-Dec-2016

 --------------------------
 # td=(NStates=1) B3LYP/SVP
 --------------------------

 --
 TD
 --
 Symbolic Z-matrix:
 Charge =  0 Multiplicity = 1

                         Standard orientation:
 ---------------------------------------------------------------------
 Center     Atomic      Atomic             Coordinates (Angstroms)
 Number     Number       Type             X           Y           Z
 ---------------------------------------------------------------------
      1          6           0       -5.162982   -1.947045    0.423284
      2          6           0       -4.586257    2.629649    1.391814
      3          6           0       -9.193645    3.549047   -0.266993
      4          6           0       -9.802783   -1.267573   -0.945588
      5          7           0       -5.260655    0.403927    0.889607
      6          6           0       -4.561281   -0.797863    0.880633
      7          6           0       -3.074901   -0.723712    1.278264
      8          6           0       -3.116921    0.728506    1.968322
      9          6           0       -4.469808    1.283606    1.368773
     10          6           0       -2.992468    0.692633    3.451996
     11          6           0       -2.170778   -1.001954    0.130079
     12          6           0       -0.661169   -1.024865    0.609508
     13          6           0        0.337851   -1.302426   -0.483099
     14          8           0       -0.036210   -1.807036   -1.501898
     15          8           0        1.547735   -0.931420   -0.199953
     16          7           0       -7.064928    2.764740    0.459907
     17          6           0       -5.778800    3.296826    0.923973
     18          6           0       -5.972253    4.703141    1.071134
     19          6           0       -7.329038    5.056708    0.431048
     20          6           0       -7.922555    3.787428    0.145239
     21          6           0       -4.974410    5.740165    1.468840
     22          6           0       -7.931355    6.399057    0.451898
     23          6           0       -8.844227    6.830518   -0.434275
     24          7           0       -9.247792    1.028996   -0.358833
     25          6           0       -9.830082    2.258914   -0.479652
     26          6           0      -11.245136    2.071143   -0.878101
     27          6           0      -11.420658    0.740956   -1.128645
     28          6           0      -10.151566    0.133175   -0.871297
     29          6           0      -12.182779    3.217343   -1.133557
     30          6           0      -12.607258   -0.000178   -1.622377
     31          6           0      -12.752129   -0.126734   -3.021602
     32          7           0       -7.454445   -1.190346   -0.302822
     33          6           0       -8.586144   -1.953435   -0.656629
     34          6           0       -8.340688   -3.285960   -0.708490
     35          6           0       -6.939706   -3.424469   -0.389153
     36          6           0       -6.531123   -2.081662   -0.141583
     37          6           0       -9.074395   -4.441613   -1.153632
     38          6           0       -5.893505   -4.284938   -0.073441
     39          8           0       -5.892256   -5.549169   -0.123585
     40          6           0       -4.656503   -3.378581    0.298778
     41          6           0       -3.901790   -3.900023    1.595515
     42          8           0       -4.128638   -3.449711    2.686824
     43          8           0       -3.244279   -5.023553    1.365649
     44          6           0       -2.501149   -5.762310    2.491189
     45          6           0        2.610093   -1.306582   -1.099376
     46          6           0        3.881906   -0.752432   -0.407468
     47          6           0        4.890474   -0.091272   -0.969979
     48          6           0        4.864059    0.564353   -2.214914
     49          6           0        6.187435    0.234562   -0.262362
     50          6           0        7.413041   -0.497664   -0.785851
     51          6           0        8.761847   -0.117969   -0.048409
     52          6           0       10.048921   -0.764578   -0.754589
     53          6           0        9.922567   -2.253505   -0.687451
     54          6           0       11.293586   -0.292327   -0.016891
     55          6           0       12.697420   -0.572913   -0.737316
     56          6           0       13.827227    0.097367    0.141498
     57          6           0       15.237144   -0.131429   -0.449162
     58          6           0       15.763194   -1.547610   -0.441804
     59          6           0       16.279709    0.767346    0.320315
     60          6           0       17.744296    0.783095   -0.291200
     61          6           0       18.562195    1.712606    0.614794
     62          6           0       20.068562    1.690736    0.144635
     63          6           0       20.330042    2.171831   -1.350294
     64          6           0       21.008386    2.545518    1.017559
     65          1           0       -3.909963    3.413903    1.755573
     66          1           0       -9.814712    4.205663   -0.470706
     67          1           0      -10.514069   -1.885063   -1.342102
     68          1           0       -2.826214   -1.605760    2.180491
     69          1           0       -2.377331    1.274133    1.415237
     70          1           0       -1.906992    0.493256    3.612416
     71          1           0       -3.378439    1.612596    3.980462
     72          1           0       -3.583225   -0.029232    3.937627
     73          1           0       -2.533510   -2.124954   -0.243387
     74          1           0       -2.141723   -0.082424   -0.498181
     75          1           0       -0.205465    0.007332    1.053151
     76          1           0       -0.465367   -1.813535    1.587556
     77          1           0       -4.195020    5.888380    0.654219
     78          1           0       -5.377738    6.713507    1.631045
     79          1           0       -4.360952    5.503313    2.551375
     80          1           0       -7.544880    7.372837    0.971870
     81          1           0       -9.366341    6.235870   -1.299931
     82          1           0       -9.064300    7.970944   -0.384549
     83          1           0      -12.377819    3.544844   -0.161258
     84          1           0      -11.893958    3.999385   -1.786147
     85          1           0      -13.247424    2.889193   -1.480688
     86          1           0      -12.688231   -1.061492   -0.907981
     87          1           0      -13.434410    0.588941   -1.104532
     88          1           0      -13.054788    0.888897   -3.413264
     89          1           0      -11.901417   -0.680637   -3.600262
     90          1           0      -13.809656   -0.669995   -3.047830
     91          1           0       -9.892436   -4.369000   -0.760498
     92          1           0       -9.415071   -4.399535   -2.242756
     93          1           0       -8.524834   -5.320868   -1.035553
     94          1           0       -3.860573   -3.504115   -0.617908
     95          1           0       -1.993437   -6.567632    2.083509
     96          1           0       -1.799520   -5.120314    3.105423
     97          1           0       -3.479539   -6.097831    3.071047
     98          1           0        2.679984   -2.409226   -0.973840
     99          1           0        2.449584   -0.908376   -2.194787
    100          1           0        4.055413   -1.444952    0.477608
    101          1           0        5.253541    1.461899   -2.208683
    102          1           0        5.462650    0.123124   -3.196436
    103          1           0        3.908839    0.690026   -2.751454
    104          1           0        6.044505    1.298060   -0.357048
    105          1           0        5.991045   -0.038279    0.811977
    106          1           0        7.327013   -1.642107   -0.963312
    107          1           0        7.481432   -0.078185   -1.963302
    108          1           0        9.018852    1.020252   -0.221874
    109          1           0        8.781344   -0.481326    1.167790
    110          1           0       10.251970   -0.528603   -1.776753
    111          1           0        8.879377   -2.686866   -1.113270
    112          1           0       10.830183   -2.669970   -1.548859
    113          1           0       10.176105   -2.361563    0.426827
    114          1           0       11.535427    0.832357    0.149776
    115          1           0       11.397202   -0.534947    1.070791
    116          1           0       12.964261   -1.727530   -0.924021
    117          1           0       12.804482   -0.097461   -1.661889
    118          1           0       13.677097    0.939786    0.298562
    119          1           0       13.905184   -0.566263    1.104408
    120          1           0       15.394369    0.280123   -1.550314
    121          1           0       15.014497   -2.184515   -1.125559
    122          1           0       16.718413   -1.764900   -0.819347
    123          1           0       15.514576   -2.010311    0.597189
    124          1           0       15.859104    1.809835    0.302691
    125          1           0       16.332672    0.459149    1.351587
    126          1           0       18.326509   -0.163117   -0.226250
    127          1           0       17.839317    1.266236   -1.415161
    128          1           0       18.082489    2.663480    0.706445
    129          1           0       18.340596    1.512660    1.733809
    130          1           0       20.423191    0.574430    0.187279
    131          1           0       19.565686    3.127588   -1.511063
    132          1           0       21.512914    2.536861   -1.376302
    133          1           0       20.123223    1.438229   -2.222993
    134          1           0       21.105798    2.307404    2.011410
    135          1           0       22.042559    2.533859    0.759321
    136          1           0       20.674845    3.666172    0.845045
    137          1           0       -7.455823    1.861232    0.241952
    138          1           0       -7.545442   -0.254601   -0.250170
 ---------------------------------------------------------------------

 SCF Done:  E(RB3LYP) =  -2732.91034072     A.U. after   17 cycles

 Excitation energies and oscillator strengths:

 Excited State   1:      Singlet-A      2.0207 eV  613.56 nm  f=0.1296  <S**2>=0.000
     235 -> 237       -0.40615
     235 -> 238       -0.16711
     236 -> 237        0.49665
     236 -> 238       -0.22142
 This state for optimization and/or second-order correction.
 Total Energy, E(TD-HF/TD-DFT) =  -2732.83607991
 Copying the excited state density for this state as the 1-particle RhoCI density.

 The electronic state is 1-A.
 Alpha  occ. eigenvalues --  -19.17827 -19.17144 -19.11224 -19.10741 -19.10501
 Alpha  occ. eigenvalues --  -14.36798 -14.35869 -14.31591 -14.30137 -10.30876
 Alpha  occ. eigenvalues --  -10.30167 -10.26680 -10.26182 -10.26093 -10.24687
 Alpha  occ. eigenvalues --  -10.23493 -10.23244 -10.22961 -10.22432 -10.22015
 Alpha  occ. eigenvalues --  -10.21819 -10.21779 -10.21755 -10.21740 -10.21644
 Alpha  occ. eigenvalues --  -10.21619 -10.21556 -10.21527 -10.21480 -10.21417
 Alpha  occ. eigenvalues --  -10.20983 -10.20941 -10.20886 -10.20874 -10.20776
 Alpha  occ. eigenvalues --  -10.20522 -10.20510 -10.20358 -10.20264 -10.19952
 Alpha  occ. eigenvalues --  -10.19946 -10.19717 -10.19478 -10.19392 -10.19368
 Alpha  occ. eigenvalues --  -10.19341 -10.19250 -10.19232 -10.19142 -10.19004
 Alpha  occ. eigenvalues --  -10.18980 -10.18955 -10.18873 -10.18755 -10.18457
 Alpha  occ. eigenvalues --  -10.18408 -10.18384 -10.18242 -10.18197 -10.18032
 Alpha  occ. eigenvalues --  -10.17942 -10.17389 -10.17333 -10.17158  -1.10773
 Alpha  occ. eigenvalues --   -1.08031  -1.00725  -1.00501  -0.99335  -0.98406
 Alpha  occ. eigenvalues --   -0.95936  -0.94823  -0.93268  -0.84118  -0.84032
 Alpha  occ. eigenvalues --   -0.82656  -0.81804  -0.81116  -0.80610  -0.80513
 Alpha  occ. eigenvalues --   -0.80448  -0.80153  -0.79042  -0.78652  -0.77391
 Alpha  occ. eigenvalues --   -0.76639  -0.75556  -0.75369  -0.75233  -0.74454
 Alpha  occ. eigenvalues --   -0.73939  -0.73534  -0.72657  -0.72022  -0.71473
 Alpha  occ. eigenvalues --   -0.70546  -0.69582  -0.69289  -0.67908  -0.67748
 Alpha  occ. eigenvalues --   -0.66954  -0.66874  -0.66262  -0.65395  -0.65200
 Alpha  occ. eigenvalues --   -0.63763  -0.63460  -0.62049  -0.61129  -0.60559
 Alpha  occ. eigenvalues --   -0.59900  -0.58689  -0.58442  -0.57711  -0.57373
 Alpha  occ. eigenvalues --   -0.56846  -0.55983  -0.55568  -0.55533  -0.55073
 Alpha  occ. eigenvalues --   -0.54815  -0.54235  -0.53980  -0.53379  -0.53053
 Alpha  occ. eigenvalues --   -0.52660  -0.51885  -0.51699  -0.50537  -0.50078
 Alpha  occ. eigenvalues --   -0.49249  -0.49231  -0.48663  -0.48520  -0.48075
 Alpha  occ. eigenvalues --   -0.47724  -0.47283  -0.46899  -0.46820  -0.46706
 Alpha  occ. eigenvalues --   -0.46609  -0.46052  -0.46021  -0.45842  -0.45771
 Alpha  occ. eigenvalues --   -0.45342  -0.45108  -0.44895  -0.44617  -0.44485
 Alpha  occ. eigenvalues --   -0.44428  -0.44324  -0.44018  -0.43817  -0.43370
 Alpha  occ. eigenvalues --   -0.43180  -0.42904  -0.42827  -0.42770  -0.42597
 Alpha  occ. eigenvalues --   -0.42290  -0.42028  -0.41911  -0.41421  -0.41327
 Alpha  occ. eigenvalues --   -0.41013  -0.40777  -0.40728  -0.40498  -0.40325
 Alpha  occ. eigenvalues --   -0.40158  -0.39950  -0.39844  -0.39759  -0.39587
 Alpha  occ. eigenvalues --   -0.39291  -0.39032  -0.38988  -0.38887  -0.38461
 Alpha  occ. eigenvalues --   -0.38380  -0.37948  -0.37798  -0.37535  -0.37413
 Alpha  occ. eigenvalues --   -0.37312  -0.37032  -0.36743  -0.36616  -0.36567
 Alpha  occ. eigenvalues --   -0.36240  -0.35946  -0.35691  -0.35498  -0.35071
 Alpha  occ. eigenvalues --   -0.34997  -0.34927  -0.34762  -0.34696  -0.34088
 Alpha  occ. eigenvalues --   -0.33973  -0.33852  -0.33570  -0.33481  -0.33261
 Alpha  occ. eigenvalues --   -0.33014  -0.32594  -0.32428  -0.31941  -0.31894
 Alpha  occ. eigenvalues --   -0.31802  -0.31630  -0.31508  -0.31428  -0.31253
 Alpha  occ. eigenvalues --   -0.30795  -0.30771  -0.30635  -0.30207  -0.30038
 Alpha  occ. eigenvalues --   -0.29138  -0.28881  -0.28060  -0.27998  -0.27134
 Alpha  occ. eigenvalues --   -0.26961  -0.26815  -0.26486  -0.25865  -0.25656
 Alpha  occ. eigenvalues --   -0.25114  -0.23981  -0.22918  -0.22850  -0.19776
 Alpha  occ. eigenvalues --   -0.19041
 Alpha virt. eigenvalues --   -0.10988  -0.07892  -0.04216  -0.01487  -0.01097
 Alpha virt. eigenvalues --    0.00231   0.00717   0.01298   0.02455   0.03029
 Alpha virt. eigenvalues --    0.03427   0.03815   0.03998   0.04318   0.04338

 Mulliken charges:
               1
     1  C    0.084298
     2  C   -0.092126
     3  C    0.070163
     4  C   -0.032455
     5  N   -0.118824
     6  C   -0.036117
     7  C   -0.207981
     8  C    0.007944
     9  C    0.030552
    10  C    0.119762
    11  C    0.115427
    12  C   -0.117346
    13  C    0.158470
    14  O   -0.234362
    15  O   -0.271581
    16  N   -0.110673
    17  C    0.144245
    18  C   -0.135964
    19  C    0.039149
    20  C    0.158720
    21  C    0.021907
    22  C   -0.047938
    23  C   -0.113128
    24  N   -0.268662
    25  C   -0.003464
    26  C   -0.153376
    27  C   -0.061070
    28  C    0.047613
    29  C    0.127992
    30  C   -0.037265
    31  C    0.045567
    32  N    0.109479
    33  C    0.057177
    34  C   -0.160434
    35  C    0.053178
    36  C   -0.019120
    37  C    0.285438
    38  C    0.035684
    39  O   -0.236293
    40  C   -0.118661
    41  C    0.192380
    42  O   -0.226096
    43  O   -0.309811
    44  C    0.164540
    45  C    0.220095
    46  C   -0.088813
    47  C   -0.119400
    48  C    0.083824
    49  C    0.110385
    50  C   -0.042304
    51  C   -0.019277
    52  C    0.014276
    53  C   -0.069884
    54  C   -0.021471
    55  C    0.012739
    56  C    0.162125
    57  C   -0.107133
    58  C    0.021949
    59  C    0.017922
    60  C   -0.011652
    61  C    0.023026
    62  C   -0.082539
    63  C   -0.092406
    64  C    0.065768
    65  H   -0.015594
    66  H   -0.197650
    67  H   -0.072307
    68  H    0.059451
    69  H   -0.029798
    70  H    0.019229
    71  H    0.004894
    72  H    0.010743
    73  H    0.066829
    74  H    0.010520
    75  H    0.046100
    76  H    0.046542
    77  H    0.048443
    78  H    0.007702
    79  H    0.043919
    80  H    0.031786
    81  H    0.053958
    82  H    0.035231
    83  H    0.004095
    84  H    0.027328
    85  H    0.006919
    86  H    0.016068
    87  H    0.010127
    88  H    0.016879
    89  H    0.047240
    90  H    0.019711
    91  H   -0.075536
    92  H    0.016851
    93  H    0.024176
    94  H    0.093337
    95  H    0.035347
    96  H    0.058413
    97  H    0.073039
    98  H    0.024391
    99  H    0.055803
   100  H    0.004649
   101  H   -0.038911
   102  H    0.032917
   103  H   -0.002988
   104  H    0.010668
   105  H   -0.007131
   106  H    0.028456
   107  H    0.008810
   108  H    0.025635
   109  H    0.032059
   110  H   -0.016903
   111  H    0.047638
   112  H    0.029601
   113  H    0.027995
   114  H   -0.006894
   115  H   -0.009160
   116  H    0.020445
   117  H   -0.017381
   118  H   -0.132570
   119  H    0.005739
   120  H   -0.006340
   121  H    0.004497
   122  H    0.011824
   123  H    0.006932
   124  H   -0.003928
   125  H   -0.015536
   126  H    0.012255
   127  H    0.025188
   128  H   -0.034741
   129  H   -0.012877
   130  H    0.009293
   131  H    0.031916
   132  H    0.038226
   133  H    0.040648
   134  H   -0.016542
   135  H   -0.010640
   136  H    0.012329
   137  H    0.134596
   138  H    0.071868
 Sum of Mulliken charges =  -0.00000

 Dipole moment (field-independent basis, Debye):
    X=              2.9676    Y=              4.9264    Z=             -0.2421  Tot=              5.7563
 Quadrupole moment (field-independent basis, Debye-Ang):
   XX=           -347.5812   YY=           -383.1711   ZZ=           -394.6166
   XY=            -29.3119   XZ=             17.0218   YZ=             -6.0832

 Normal termination of Gaussian 16 at Sun Sep  1 10:38:14 2019.
