 Gaussian 16, Revision A.03,
 Gaussian 16:  ES64L-G16RevA.03 25-Dec-2016

 --------------------------
 # td=(NStates=1) B3LYP/SVP
 --------------------------

 --
 TD
 --
 Symbolic Z-matrix:
 Charge =  0 Multiplicity = 1

                         Standard orientation:
 ---------------------------------------------------------------------
 Center     Atomic      Atomic             Coordinates (Angstroms)
 Number     Number       Type             X           Y           Z
 ---------------------------------------------------------------------
      1          6           0       -5.171593   -1.910862    0.313296
      2          6           0       -4.719329    2.723764    1.498960
      3          6           0       -9.186509    3.564755   -0.319236
      4          6           0       -9.805437   -1.225493   -1.213758
      5          7           0       -5.176472    0.377300    0.779435
      6          6           0       -4.536805   -0.737746    0.802988
      7          6           0       -3.163233   -0.661658    1.304173
      8          6           0       -3.096762    0.814928    1.973074
      9          6           0       -4.383482    1.339647    1.325526
     10          6           0       -3.258572    0.647956    3.568361
     11          6           0       -2.079581   -0.821332    0.135900
     12          6           0       -0.650254   -0.953278    0.563644
     13          6           0        0.427805   -1.424894   -0.448274
     14          8           0        0.124930   -1.659344   -1.568141
     15          8           0        1.646187   -0.938157   -0.056584
     16          7           0       -7.034933    2.699289    0.498230
     17          6           0       -5.900086    3.419559    1.078827
     18          6           0       -6.112892    4.814762    1.212996
     19          6           0       -7.367753    5.091100    0.737233
     20          6           0       -7.907227    3.839277    0.274865
     21          6           0       -5.161550    5.829110    1.749507
     22          6           0       -7.976032    6.381280    0.653675
     23          6           0       -8.770906    6.792714   -0.323077
     24          7           0       -9.039247    1.045953   -0.654390
     25          6           0       -9.748958    2.178230   -0.685475
     26          6           0      -11.161312    2.126285   -1.119328
     27          6           0      -11.254571    0.745488   -1.437345
     28          6           0      -10.037046    0.125819   -1.108243
     29          6           0      -12.165076    3.128438   -1.268494
     30          6           0      -12.501801    0.000784   -1.944020
     31          6           0      -12.542059   -0.140390   -3.500061
     32          7           0       -7.489149   -1.249006   -0.360275
     33          6           0       -8.476762   -1.859550   -0.904983
     34          6           0       -8.169877   -3.322925   -0.829737
     35          6           0       -6.936260   -3.383864   -0.342821
     36          6           0       -6.456753   -2.032940   -0.057418
     37          6           0       -9.043536   -4.485121   -1.331157
     38          6           0       -5.802288   -4.346005   -0.007625
     39          8           0       -5.784275   -5.559977   -0.124976
     40          6           0       -4.545875   -3.387289    0.451899
     41          6           0       -4.210637   -3.820706    1.927659
     42          8           0       -4.680005   -3.526965    2.916253
     43          8           0       -3.320448   -4.933650    1.740754
     44          6           0       -2.908137   -5.550675    2.978077
     45          6           0        2.705411   -1.327157   -0.962280
     46          6           0        3.921461   -0.858157   -0.319921
     47          6           0        4.958662   -0.184496   -0.914823
     48          6           0        4.919958    0.218279   -2.449714
     49          6           0        6.278100   -0.016839   -0.240610
     50          6           0        7.379037   -0.762333   -0.846896
     51          6           0        8.694911   -0.357237   -0.118513
     52          6           0       10.144226   -0.934887   -0.639234
     53          6           0       10.169572   -2.477501   -0.501492
     54          6           0       11.307165   -0.250784    0.090499
     55          6           0       12.643288   -0.761604   -0.566297
     56          6           0       13.908559   -0.031380    0.211739
     57          6           0       15.241333   -0.030237   -0.425060
     58          6           0       15.787398   -1.593020   -0.488055
     59          6           0       16.277771    0.837506    0.351707
     60          6           0       17.595922    0.884649   -0.229718
     61          6           0       18.565566    2.018035    0.349374
     62          6           0       20.049102    1.856649   -0.127365
     63          6           0       20.135771    2.261427   -1.574272
     64          6           0       20.918109    2.751529    0.708564
     65          1           0       -3.923780    3.227811    2.068210
     66          1           0       -9.957612    4.239244   -0.161581
     67          1           0      -10.606887   -1.767759   -1.667967
     68          1           0       -2.816694   -1.364990    1.998601
     69          1           0       -2.183971    1.362401    1.820207
     70          1           0       -2.240016    0.473142    4.049411
     71          1           0       -3.687373    1.828745    3.985036
     72          1           0       -4.058388    0.029237    3.884153
     73          1           0       -2.250982   -1.676672   -0.519153
     74          1           0       -2.209948    0.136762   -0.610310
     75          1           0       -0.271485   -0.094466    1.144773
     76          1           0       -0.744553   -1.711784    1.528657
     77          1           0       -4.155695    5.806682    1.253628
     78          1           0       -5.441288    6.842585    1.960021
     79          1           0       -4.848374    5.441063    2.701532
     80          1           0       -7.602194    7.116066    1.231202
     81          1           0       -9.139109    6.344504   -1.146530
     82          1           0       -9.216706    7.837643   -0.398955
     83          1           0      -12.180525    3.716012   -0.225717
     84          1           0      -11.960537    3.991573   -1.893742
     85          1           0      -13.243995    2.721523   -1.464012
     86          1           0      -12.598460   -0.928295   -1.489752
     87          1           0      -13.589041    0.469137   -1.614251
     88          1           0      -12.478213    1.021558   -3.905807
     89          1           0      -11.722175   -0.718618   -4.050595
     90          1           0      -13.290588   -0.710475   -3.812862
     91          1           0       -9.934676   -4.375522   -0.844411
     92          1           0       -9.206416   -4.481868   -2.507307
     93          1           0       -8.464040   -5.280528   -1.136888
     94          1           0       -3.834493   -3.513652   -0.299511
     95          1           0       -2.361272   -6.641745    2.784947
     96          1           0       -2.277043   -4.736424    3.473383
     97          1           0       -3.765591   -5.940899    3.413884
     98          1           0        2.791212   -2.463869   -0.998084
     99          1           0        2.601654   -1.044039   -2.153581
    100          1           0        3.962442   -1.305751    0.701507
    101          1           0        5.670806    1.184513   -2.398274
    102          1           0        5.372405   -0.578107   -3.120881
    103          1           0        3.906928    0.494093   -2.769660
    104          1           0        6.549566    0.989268   -0.103130
    105          1           0        6.195363   -0.437476    0.693858
    106          1           0        7.150994   -2.005879   -0.575824
    107          1           0        7.382058   -0.400245   -1.849861
    108          1           0        8.700466    0.672763   -0.189232
    109          1           0        8.764338   -0.746574    0.905887
    110          1           0       10.075695   -0.751870   -1.787970
    111          1           0        9.018188   -2.944871   -0.692434
    112          1           0       10.923249   -2.974735   -1.331980
    113          1           0       10.588681   -2.729585    0.722641
    114          1           0       11.201890    0.901990   -0.074837
    115          1           0       11.341965   -0.368082    1.410826
    116          1           0       12.786685   -1.870124   -0.596076
    117          1           0       12.823826   -0.623851   -1.502807
    118          1           0       13.839460    1.180251    0.283496
    119          1           0       14.112318   -0.255126    1.392588
    120          1           0       15.018459    0.529494   -1.456729
    121          1           0       15.131253   -2.273726   -0.933595
    122          1           0       16.704567   -1.505298   -0.794988
    123          1           0       15.923335   -1.957798    0.545310
    124          1           0       15.784052    1.781940    0.475076
    125          1           0       16.265397    0.687535    1.493998
    126          1           0       18.082278   -0.060526   -0.196086
    127          1           0       17.685554    1.240311   -1.192713
    128          1           0       18.237872    3.068388    0.379143
    129          1           0       18.505170    1.868049    1.686015
    130          1           0       20.361427    0.849942    0.285060
    131          1           0       19.913855    3.424059   -1.719080
    132          1           0       21.084501    2.022807   -2.049175
    133          1           0       19.220595    1.637870   -2.126019
    134          1           0       21.019611    2.415996    1.684248
    135          1           0       22.077212    2.607391    0.391802
    136          1           0       20.386096    3.738930    1.011583
    137          1           0       -6.946713    1.755405    0.111952
    138          1           0       -7.586149   -0.035134   -0.313127
 ---------------------------------------------------------------------

 SCF Done:  E(RB3LYP) =  -2732.90524871     A.U. after   17 cycles

 Excitation energies and oscillator strengths:

 Excited State   1:      Singlet-A      1.9850 eV  624.61 nm  f=0.2027  <S**2>=0.000
     235 -> 237       -0.14116
     235 -> 238        0.26102
     236 -> 237        0.62866
     236 -> 238        0.13385
 This state for optimization and/or second-order correction.
 Total Energy, E(TD-HF/TD-DFT) =  -2732.83230203
 Copying the excited state density for this state as the 1-particle RhoCI density.

 The electronic state is 1-A.
 Alpha  occ. eigenvalues --  -19.18306 -19.15498 -19.14562 -19.13524 -19.13149
 Alpha  occ. eigenvalues --  -14.37154 -14.36671 -14.32467 -14.30899 -10.32087
 Alpha  occ. eigenvalues --  -10.31957 -10.28830 -10.25755 -10.24601 -10.24338
 Alpha  occ. eigenvalues --  -10.24065 -10.23544 -10.22956 -10.22517 -10.22468
 Alpha  occ. eigenvalues --  -10.22289 -10.22111 -10.21931 -10.21718 -10.21413
 Alpha  occ. eigenvalues --  -10.21263 -10.21179 -10.21089 -10.20818 -10.20701
 Alpha  occ. eigenvalues --  -10.20655 -10.20583 -10.20535 -10.20459 -10.20436
 Alpha  occ. eigenvalues --  -10.20407 -10.20361 -10.20351 -10.20284 -10.20267
 Alpha  occ. eigenvalues --  -10.20116 -10.19980 -10.19966 -10.19909 -10.19800
 Alpha  occ. eigenvalues --  -10.19779 -10.19775 -10.19653 -10.19521 -10.19392
 Alpha  occ. eigenvalues --  -10.19213 -10.19172 -10.18963 -10.18891 -10.18792
 Alpha  occ. eigenvalues --  -10.18710 -10.18606 -10.18513 -10.18275 -10.18138
 Alpha  occ. eigenvalues --  -10.17887 -10.17423 -10.17236 -10.16299  -1.10872
 Alpha  occ. eigenvalues --   -1.10177  -1.02716  -1.02304  -1.00939  -1.00266
 Alpha  occ. eigenvalues --   -0.96445  -0.94753  -0.93119  -0.83763  -0.83145
 Alpha  occ. eigenvalues --   -0.83047  -0.81857  -0.80600  -0.80228  -0.80104
 Alpha  occ. eigenvalues --   -0.79445  -0.79374  -0.79251  -0.78313  -0.77891
 Alpha  occ. eigenvalues --   -0.77136  -0.75668  -0.75030  -0.74772  -0.73947
 Alpha  occ. eigenvalues --   -0.72922  -0.72487  -0.71500  -0.71394  -0.70873
 Alpha  occ. eigenvalues --   -0.69928  -0.69221  -0.67947  -0.67646  -0.67375
 Alpha  occ. eigenvalues --   -0.67286  -0.66880  -0.65163  -0.64925  -0.64641
 Alpha  occ. eigenvalues --   -0.63435  -0.62778  -0.62332  -0.61872  -0.61540
 Alpha  occ. eigenvalues --   -0.60883  -0.58868  -0.58478  -0.57743  -0.57555
 Alpha  occ. eigenvalues --   -0.57141  -0.55968  -0.55808  -0.55123  -0.55009
 Alpha  occ. eigenvalues --   -0.54763  -0.54159  -0.54122  -0.53416  -0.52811
 Alpha  occ. eigenvalues --   -0.52232  -0.51759  -0.51422  -0.51283  -0.50255
 Alpha  occ. eigenvalues --   -0.50030  -0.49600  -0.49494  -0.49211  -0.48995
 Alpha  occ. eigenvalues --   -0.48215  -0.47647  -0.47540  -0.47179  -0.46990
 Alpha  occ. eigenvalues --   -0.46857  -0.46521  -0.46385  -0.46203  -0.45957
 Alpha  occ. eigenvalues --   -0.45808  -0.45300  -0.45081  -0.45015  -0.44360
 Alpha  occ. eigenvalues --   -0.44270  -0.44129  -0.43745  -0.43593  -0.43422
 Alpha  occ. eigenvalues --   -0.43237  -0.43111  -0.43041  -0.42768  -0.42537
 Alpha  occ. eigenvalues --   -0.42270  -0.42102  -0.41796  -0.41614  -0.41526
 Alpha  occ. eigenvalues --   -0.41326  -0.41035  -0.40684  -0.40448  -0.40283
 Alpha  occ. eigenvalues --   -0.40118  -0.39915  -0.39462  -0.39406  -0.39303
 Alpha  occ. eigenvalues --   -0.39085  -0.38831  -0.38609  -0.38561  -0.38435
 Alpha  occ. eigenvalues --   -0.38418  -0.38185  -0.38074  -0.38007  -0.37767
 Alpha  occ. eigenvalues --   -0.37608  -0.37342  -0.37125  -0.36929  -0.36838
 Alpha  occ. eigenvalues --   -0.36625  -0.36496  -0.36335  -0.36149  -0.35952
 Alpha  occ. eigenvalues --   -0.35675  -0.35600  -0.35483  -0.35196  -0.35120
 Alpha  occ. eigenvalues --   -0.35047  -0.34107  -0.33630  -0.33371  -0.33144
 Alpha  occ. eigenvalues --   -0.32778  -0.32751  -0.32330  -0.32273  -0.31988
 Alpha  occ. eigenvalues --   -0.31759  -0.31707  -0.31335  -0.31256  -0.31232
 Alpha  occ. eigenvalues --   -0.30998  -0.30813  -0.30659  -0.30406  -0.29752
 Alpha  occ. eigenvalues --   -0.29192  -0.28968  -0.28808  -0.28457  -0.28280
 Alpha  occ. eigenvalues --   -0.27937  -0.27861  -0.27609  -0.26466  -0.26230
 Alpha  occ. eigenvalues --   -0.25041  -0.24643  -0.24447  -0.22515  -0.20045
 Alpha  occ. eigenvalues --   -0.17733
 Alpha virt. eigenvalues --   -0.09710  -0.07971  -0.04440  -0.02323  -0.01846
 Alpha virt. eigenvalues --   -0.00479  -0.00225   0.00751   0.02089   0.02886
 Alpha virt. eigenvalues --    0.03444   0.03939   0.04081   0.04221   0.04651

 Mulliken charges:
               1
     1  C   -0.081302
     2  C   -0.076077
     3  C   -0.058973
     4  C   -0.070195
     5  N   -0.111728
     6  C   -0.060880
     7  C    0.005657
     8  C   -0.047330
     9  C   -0.020366
    10  C   -0.005996
    11  C    0.022870
    12  C   -0.041180
    13  C    0.218875
    14  O   -0.189205
    15  O   -0.314177
    16  N   -0.161017
    17  C    0.150940
    18  C   -0.116940
    19  C    0.078536
    20  C    0.120945
    21  C    0.144540
    22  C    0.028747
    23  C   -0.023790
    24  N   -0.279684
    25  C    0.025371
    26  C   -0.107421
    27  C   -0.066614
    28  C    0.109403
    29  C    0.045398
    30  C    0.023180
    31  C    0.007561
    32  N   -0.026775
    33  C    0.009783
    34  C   -0.246267
    35  C    0.018008
    36  C    0.103767
    37  C    0.179349
    38  C    0.086368
    39  O   -0.160972
    40  C   -0.007723
    41  C    0.215821
    42  O   -0.115323
    43  O   -0.378913
    44  C    0.164181
    45  C    0.187850
    46  C   -0.075699
    47  C   -0.129501
    48  C   -0.011740
    49  C    0.142357
    50  C   -0.001168
    51  C    0.037007
    52  C   -0.071650
    53  C   -0.117371
    54  C   -0.020694
    55  C    0.148039
    56  C   -0.061138
    57  C   -0.122834
    58  C    0.130628
    59  C    0.038533
    60  C    0.170261
    61  C   -0.143262
    62  C   -0.064896
    63  C    0.008722
    64  C    0.041809
    65  H   -0.028978
    66  H   -0.041303
    67  H   -0.029839
    68  H   -0.025699
    69  H    0.000031
    70  H    0.039648
    71  H    0.013300
    72  H    0.035801
    73  H    0.020133
    74  H    0.022519
    75  H    0.027162
    76  H    0.019441
    77  H    0.021023
    78  H    0.014924
    79  H    0.004036
    80  H   -0.054238
    81  H   -0.014154
    82  H    0.021237
    83  H    0.027534
    84  H    0.020244
    85  H    0.038136
    86  H   -0.014238
    87  H    0.020355
    88  H    0.036823
    89  H    0.014967
    90  H   -0.020132
    91  H    0.008834
    92  H    0.038792
    93  H   -0.003007
    94  H    0.031684
    95  H    0.043887
    96  H    0.043697
    97  H    0.016622
    98  H    0.028944
    99  H    0.049482
   100  H   -0.000173
   101  H    0.030226
   102  H    0.058445
   103  H    0.039546
   104  H   -0.015647
   105  H   -0.045468
   106  H    0.027248
   107  H   -0.016213
   108  H   -0.026653
   109  H   -0.001288
   110  H    0.006510
   111  H    0.042951
   112  H    0.046414
   113  H    0.035627
   114  H    0.019277
   115  H    0.038554
   116  H    0.005919
   117  H   -0.067181
   118  H   -0.008063
   119  H    0.002915
   120  H    0.008948
   121  H   -0.002118
   122  H   -0.046040
   123  H   -0.010422
   124  H   -0.040848
   125  H   -0.012095
   126  H   -0.004728
   127  H   -0.030744
   128  H    0.006678
   129  H   -0.024665
   130  H    0.009993
   131  H    0.031327
   132  H    0.017101
   133  H    0.023202
   134  H   -0.031959
   135  H    0.017700
   136  H    0.007617
   137  H    0.156388
   138  H    0.248351
 Sum of Mulliken charges =  -0.00000

 Dipole moment (field-independent basis, Debye):
    X=              2.2709    Y=              4.4203    Z=              0.4984  Tot=              4.9945
 Quadrupole moment (field-independent basis, Debye-Ang):
   XX=           -354.5403   YY=           -385.1473   ZZ=           -394.0585
   XY=            -27.2403   XZ=              5.2800   YZ=              1.0280

 Normal termination of Gaussian 16 at Mon Aug 12 04:38:07 2019.
