 Gaussian 16, Revision A.03,
 Gaussian 16:  ES64L-G16RevA.03 25-Dec-2016

 --------------------------
 # td=(NStates=1) B3LYP/SVP
 --------------------------

 --
 TD
 --
 Symbolic Z-matrix:
 Charge =  0 Multiplicity = 1

                         Standard orientation:
 ---------------------------------------------------------------------
 Center     Atomic      Atomic             Coordinates (Angstroms)
 Number     Number       Type             X           Y           Z
 ---------------------------------------------------------------------
      1          6           0       -5.124053   -1.917643    0.446159
      2          6           0       -4.819569    2.754895    1.323881
      3          6           0       -9.301222    3.327238   -0.215570
      4          6           0       -9.810497   -1.577289   -1.005646
      5          7           0       -5.123074    0.427242    0.748087
      6          6           0       -4.375639   -0.794812    0.872056
      7          6           0       -3.022630   -0.627569    1.264129
      8          6           0       -3.070239    0.903581    1.828600
      9          6           0       -4.381176    1.394232    1.245459
     10          6           0       -3.005491    1.082094    3.429091
     11          6           0       -2.043487   -0.820920    0.226015
     12          6           0       -0.537244   -0.833960    0.600712
     13          6           0        0.381473   -0.976604   -0.596809
     14          8           0        0.037735   -1.469113   -1.688561
     15          8           0        1.657439   -0.632170   -0.305100
     16          7           0       -7.057937    2.829760    0.379812
     17          6           0       -5.955375    3.467032    0.922429
     18          6           0       -6.248013    4.873880    1.003792
     19          6           0       -7.513806    5.092354    0.456993
     20          6           0       -8.032616    3.661637    0.147383
     21          6           0       -5.198816    5.887133    1.586737
     22          6           0       -8.290189    6.290970    0.423326
     23          6           0       -9.329661    6.670952   -0.254897
     24          7           0       -9.131057    0.833705   -0.495666
     25          6           0       -9.813523    1.986935   -0.584725
     26          6           0      -11.199671    1.708882   -0.910051
     27          6           0      -11.385444    0.415566   -1.108313
     28          6           0       -9.977920   -0.149390   -0.848889
     29          6           0      -12.198607    2.836540   -1.267185
     30          6           0      -12.546233   -0.335769   -1.590751
     31          6           0      -12.530096   -0.540530   -3.131923
     32          7           0       -7.473433   -1.230602   -0.194807
     33          6           0       -8.538759   -2.164363   -0.597949
     34          6           0       -8.114446   -3.491756   -0.543626
     35          6           0       -6.808848   -3.439715   -0.216606
     36          6           0       -6.384123   -2.097450    0.041120
     37          6           0       -8.993255   -4.700818   -0.960099
     38          6           0       -5.668427   -4.350816    0.153782
     39          8           0       -5.734716   -5.592813   -0.009682
     40          6           0       -4.452750   -3.456569    0.415651
     41          6           0       -3.790486   -3.856423    1.702616
     42          8           0       -4.178753   -3.419263    2.800622
     43          8           0       -2.906296   -4.952992    1.508584
     44          6           0       -2.531264   -5.452930    2.758168
     45          6           0        2.647222   -0.705221   -1.285019
     46          6           0        4.077642   -0.524366   -0.638143
     47          6           0        4.991636    0.305671   -1.206569
     48          6           0        4.892757    1.105720   -2.494028
     49          6           0        6.325147    0.421730   -0.400761
     50          6           0        7.489305   -0.134031   -1.091078
     51          6           0        8.700607    0.002785   -0.199344
     52          6           0        9.948105   -0.589255   -0.672317
     53          6           0        9.882440   -2.182004   -0.770289
     54          6           0       11.183999   -0.232070    0.092791
     55          6           0       12.524375   -0.568257   -0.595863
     56          6           0       13.684520   -0.019486    0.207092
     57          6           0       15.119388   -0.215571   -0.593229
     58          6           0       15.481589   -1.590645   -0.735854
     59          6           0       16.178085    0.636374    0.318802
     60          6           0       17.634247    0.612980   -0.221373
     61          6           0       18.484861    1.641190    0.622052
     62          6           0       20.056177    1.394198    0.260784
     63          6           0       20.418466    1.848476   -1.186736
     64          6           0       20.903975    2.115401    1.350156
     65          1           0       -3.895535    3.386261    1.638383
     66          1           0      -10.135871    4.032640   -0.280182
     67          1           0      -10.672808   -2.074541   -1.537089
     68          1           0       -2.822868   -1.227639    2.200604
     69          1           0       -2.177398    1.586485    1.261316
     70          1           0       -1.956395    0.624839    3.885184
     71          1           0       -2.984686    2.143285    3.710881
     72          1           0       -3.692361    0.382089    3.893393
     73          1           0       -2.228616   -1.725567   -0.522330
     74          1           0       -2.204741    0.047031   -0.415976
     75          1           0       -0.272647   -0.056154    1.560253
     76          1           0       -0.326673   -1.954222    1.212575
     77          1           0       -4.482364    5.743154    0.997349
     78          1           0       -5.503458    6.822291    1.657375
     79          1           0       -4.861344    5.464622    2.606524
     80          1           0       -7.554885    7.021027    0.926798
     81          1           0       -9.825838    5.859654   -0.698735
     82          1           0       -9.727471    7.727559   -0.431114
     83          1           0      -12.244899    3.651767   -0.339057
     84          1           0      -11.957356    3.435646   -2.188936
     85          1           0      -13.053755    2.404905   -1.493138
     86          1           0      -12.415617   -1.400145   -1.315435
     87          1           0      -13.400227    0.118936   -1.268186
     88          1           0      -12.686415    0.513095   -3.650837
     89          1           0      -11.588388   -0.941837   -3.563870
     90          1           0      -13.519143   -1.184978   -3.332676
     91          1           0       -9.894722   -4.612519   -0.324927
     92          1           0       -9.280843   -4.457699   -2.094269
     93          1           0       -8.464169   -5.746982   -0.795729
     94          1           0       -3.951712   -3.785062   -0.626328
     95          1           0       -1.671424   -6.385776    2.639543
     96          1           0       -2.075532   -4.607893    3.286455
     97          1           0       -3.585403   -5.911746    3.121802
     98          1           0        2.554095   -1.802967   -1.634496
     99          1           0        2.450724   -0.234642   -2.306465
    100          1           0        4.308392   -1.021567    0.407739
    101          1           0        4.794582    2.339526   -2.285372
    102          1           0        5.995066    1.012267   -3.182794
    103          1           0        3.957028    0.735402   -3.094279
    104          1           0        6.263956    1.580162    0.006458
    105          1           0        6.459764   -0.163567    0.588483
    106          1           0        7.326014   -1.235172   -1.207205
    107          1           0        7.811254    0.391616   -1.953633
    108          1           0        8.911120    1.141588    0.045191
    109          1           0        8.408311   -0.275817    0.801655
    110          1           0       10.007620   -0.262564   -1.752979
    111          1           0        9.020773   -2.251499   -1.531264
    112          1           0       10.754156   -2.815309   -1.205306
    113          1           0        9.552287   -2.907604    0.055255
    114          1           0       11.260106    0.828064    0.258185
    115          1           0       11.046918   -0.631275    1.112960
    116          1           0       12.786245   -1.588209   -0.721545
    117          1           0       12.277955   -0.286409   -1.789229
    118          1           0       13.622690    1.177255    0.271383
    119          1           0       13.695135   -0.612732    1.149110
    120          1           0       14.938068    0.393714   -1.474318
    121          1           0       14.855022   -2.185764   -1.156857
    122          1           0       16.637572   -1.777434   -1.016683
    123          1           0       15.414652   -2.077721    0.372579
    124          1           0       15.731681    1.616162    0.387094
    125          1           0       16.104772    0.339494    1.374608
    126          1           0       17.983932   -0.334887    0.078561
    127          1           0       17.512878    0.973931   -1.260425
    128          1           0       18.287473    2.664373    0.449247
    129          1           0       18.216455    1.393205    1.725467
    130          1           0       20.270655    0.317345    0.305578
    131          1           0       20.146578    3.031527   -1.247338
    132          1           0       21.542324    1.635902   -1.614729
    133          1           0       19.663925    1.442064   -1.859398
    134          1           0       20.786507    1.651967    2.303327
    135          1           0       21.945563    1.825504    1.121734
    136          1           0       21.022997    3.291713    1.470509
    137          1           0       -7.118835    1.886566    0.144532
    138          1           0       -7.670269   -0.139922   -0.020646
 ---------------------------------------------------------------------

 SCF Done:  E(RB3LYP) =  -2732.99463530     A.U. after   16 cycles

 Excitation energies and oscillator strengths:

 Excited State   1:      Singlet-A      2.0352 eV  609.21 nm  f=0.1483  <S**2>=0.000
     235 -> 238       -0.32596
     236 -> 237        0.62562
 This state for optimization and/or second-order correction.
 Total Energy, E(TD-HF/TD-DFT) =  -2732.91984433
 Copying the excited state density for this state as the 1-particle RhoCI density.

 The electronic state is 1-A.
 Alpha  occ. eigenvalues --  -19.18503 -19.18108 -19.13986 -19.12906 -19.11874
 Alpha  occ. eigenvalues --  -14.37247 -14.36069 -14.32582 -14.30893 -10.32996
 Alpha  occ. eigenvalues --  -10.32846 -10.28068 -10.25953 -10.25840 -10.24732
 Alpha  occ. eigenvalues --  -10.24174 -10.23910 -10.23504 -10.23405 -10.23352
 Alpha  occ. eigenvalues --  -10.23246 -10.23103 -10.22959 -10.22725 -10.22022
 Alpha  occ. eigenvalues --  -10.21895 -10.21876 -10.21551 -10.21307 -10.21266
 Alpha  occ. eigenvalues --  -10.21224 -10.21065 -10.20921 -10.20913 -10.20559
 Alpha  occ. eigenvalues --  -10.20532 -10.20507 -10.20505 -10.20480 -10.20394
 Alpha  occ. eigenvalues --  -10.20336 -10.19777 -10.19767 -10.19765 -10.19504
 Alpha  occ. eigenvalues --  -10.19471 -10.19405 -10.19360 -10.19174 -10.19096
 Alpha  occ. eigenvalues --  -10.19043 -10.18825 -10.18815 -10.18645 -10.18506
 Alpha  occ. eigenvalues --  -10.18314 -10.18184 -10.18068 -10.18044 -10.18033
 Alpha  occ. eigenvalues --  -10.17907 -10.17814 -10.17548 -10.17534  -1.09862
 Alpha  occ. eigenvalues --   -1.08423  -1.00742  -1.00277  -1.00209  -1.00038
 Alpha  occ. eigenvalues --   -0.95271  -0.94565  -0.93861  -0.83787  -0.83455
 Alpha  occ. eigenvalues --   -0.82855  -0.82226  -0.81256  -0.81011  -0.80495
 Alpha  occ. eigenvalues --   -0.80354  -0.79712  -0.78742  -0.77795  -0.77457
 Alpha  occ. eigenvalues --   -0.77100  -0.76078  -0.75638  -0.74743  -0.74286
 Alpha  occ. eigenvalues --   -0.73343  -0.72737  -0.72623  -0.72427  -0.71676
 Alpha  occ. eigenvalues --   -0.69640  -0.68587  -0.67825  -0.67163  -0.66991
 Alpha  occ. eigenvalues --   -0.66687  -0.66466  -0.65928  -0.65511  -0.65278
 Alpha  occ. eigenvalues --   -0.64511  -0.63773  -0.62441  -0.61839  -0.60775
 Alpha  occ. eigenvalues --   -0.60179  -0.58871  -0.58461  -0.58028  -0.57491
 Alpha  occ. eigenvalues --   -0.56822  -0.56518  -0.56488  -0.56004  -0.55287
 Alpha  occ. eigenvalues --   -0.55284  -0.54794  -0.54030  -0.53497  -0.52834
 Alpha  occ. eigenvalues --   -0.52412  -0.51835  -0.50968  -0.50583  -0.50068
 Alpha  occ. eigenvalues --   -0.49653  -0.49321  -0.48930  -0.48691  -0.48533
 Alpha  occ. eigenvalues --   -0.48152  -0.48031  -0.47432  -0.46987  -0.46810
 Alpha  occ. eigenvalues --   -0.46753  -0.46494  -0.46359  -0.46198  -0.45899
 Alpha  occ. eigenvalues --   -0.45635  -0.45425  -0.45134  -0.44918  -0.44759
 Alpha  occ. eigenvalues --   -0.44297  -0.44016  -0.43480  -0.43378  -0.43310
 Alpha  occ. eigenvalues --   -0.43047  -0.42950  -0.42777  -0.42682  -0.42433
 Alpha  occ. eigenvalues --   -0.42342  -0.42138  -0.41803  -0.41741  -0.41664
 Alpha  occ. eigenvalues --   -0.41034  -0.40903  -0.40741  -0.40395  -0.40261
 Alpha  occ. eigenvalues --   -0.40151  -0.39550  -0.39468  -0.39290  -0.39234
 Alpha  occ. eigenvalues --   -0.38861  -0.38722  -0.38429  -0.38364  -0.38009
 Alpha  occ. eigenvalues --   -0.37929  -0.37795  -0.37626  -0.37502  -0.37311
 Alpha  occ. eigenvalues --   -0.37160  -0.37112  -0.36901  -0.36564  -0.36503
 Alpha  occ. eigenvalues --   -0.36424  -0.36365  -0.36264  -0.36030  -0.35593
 Alpha  occ. eigenvalues --   -0.35163  -0.35033  -0.34877  -0.34455  -0.34348
 Alpha  occ. eigenvalues --   -0.34179  -0.34133  -0.34035  -0.33944  -0.33762
 Alpha  occ. eigenvalues --   -0.33616  -0.33416  -0.33198  -0.33036  -0.32524
 Alpha  occ. eigenvalues --   -0.32419  -0.32039  -0.31951  -0.31717  -0.31380
 Alpha  occ. eigenvalues --   -0.31263  -0.30720  -0.30485  -0.30179  -0.30030
 Alpha  occ. eigenvalues --   -0.29821  -0.29051  -0.28950  -0.28415  -0.28356
 Alpha  occ. eigenvalues --   -0.27699  -0.27193  -0.26883  -0.26459  -0.25635
 Alpha  occ. eigenvalues --   -0.24776  -0.24561  -0.24469  -0.23563  -0.20042
 Alpha  occ. eigenvalues --   -0.18622
 Alpha virt. eigenvalues --   -0.09888  -0.08308  -0.04973  -0.02825  -0.01976
 Alpha virt. eigenvalues --   -0.01248  -0.00795   0.01211   0.01320   0.03033
 Alpha virt. eigenvalues --    0.03341   0.03480   0.03994   0.04458   0.04817

 Mulliken charges:
               1
     1  C   -0.008041
     2  C   -0.066843
     3  C   -0.093743
     4  C   -0.109392
     5  N   -0.192984
     6  C   -0.102527
     7  C    0.079020
     8  C   -0.147656
     9  C   -0.033222
    10  C    0.041214
    11  C    0.042050
    12  C   -0.089870
    13  C    0.222966
    14  O   -0.262880
    15  O   -0.282398
    16  N    0.033388
    17  C    0.110869
    18  C   -0.158896
    19  C   -0.009255
    20  C    0.093803
    21  C    0.268844
    22  C   -0.025655
    23  C   -0.014738
    24  N   -0.225028
    25  C    0.011382
    26  C   -0.144462
    27  C   -0.093668
    28  C    0.021259
    29  C    0.096924
    30  C    0.128112
    31  C   -0.069710
    32  N   -0.196138
    33  C    0.125595
    34  C   -0.166225
    35  C    0.001415
    36  C    0.184757
    37  C    0.050031
    38  C    0.073022
    39  O   -0.217136
    40  C   -0.066054
    41  C    0.254320
    42  O   -0.248293
    43  O   -0.315244
    44  C    0.108139
    45  C    0.203167
    46  C   -0.077325
    47  C   -0.094961
    48  C   -0.052237
    49  C   -0.038224
    50  C    0.104134
    51  C   -0.028674
    52  C   -0.007286
    53  C   -0.065446
    54  C    0.095257
    55  C    0.004970
    56  C   -0.037845
    57  C   -0.068821
    58  C    0.092138
    59  C   -0.009696
    60  C    0.098773
    61  C   -0.008704
    62  C   -0.086965
    63  C   -0.031370
    64  C    0.034907
    65  H   -0.009096
    66  H   -0.028479
    67  H    0.010861
    68  H    0.013769
    69  H    0.029327
    70  H    0.018916
    71  H    0.033056
    72  H    0.039199
    73  H    0.059393
    74  H    0.003620
    75  H    0.069674
    76  H    0.061046
    77  H   -0.033289
    78  H   -0.021803
    79  H    0.031261
    80  H   -0.011734
    81  H    0.001260
    82  H    0.048603
    83  H    0.039362
    84  H    0.029777
    85  H   -0.043354
    86  H   -0.003082
    87  H   -0.012877
    88  H    0.017684
    89  H    0.036524
    90  H    0.034032
    91  H    0.030326
    92  H    0.051977
    93  H    0.072259
    94  H    0.102716
    95  H    0.053260
    96  H    0.037061
    97  H    0.063347
    98  H    0.013637
    99  H    0.030090
   100  H    0.034011
   101  H    0.056743
   102  H    0.057957
   103  H    0.044786
   104  H    0.025558
   105  H    0.004286
   106  H    0.017852
   107  H   -0.011484
   108  H   -0.010484
   109  H   -0.033538
   110  H   -0.012658
   111  H    0.004695
   112  H    0.024403
   113  H    0.016738
   114  H   -0.030668
   115  H   -0.014498
   116  H   -0.021629
   117  H    0.002143
   118  H    0.018453
   119  H    0.011977
   120  H   -0.010429
   121  H   -0.038489
   122  H    0.031773
   123  H   -0.010486
   124  H   -0.030573
   125  H   -0.020812
   126  H   -0.000985
   127  H    0.017947
   128  H   -0.010380
   129  H    0.007522
   130  H   -0.005339
   131  H    0.012528
   132  H    0.045266
   133  H    0.004927
   134  H   -0.007141
   135  H   -0.014738
   136  H    0.027219
   137  H    0.105655
   138  H    0.210720
 Sum of Mulliken charges =  -0.00000

 Dipole moment (field-independent basis, Debye):
    X=              2.1457    Y=              5.1068    Z=              0.6885  Tot=              5.5819
 Quadrupole moment (field-independent basis, Debye-Ang):
   XX=           -365.9157   YY=           -390.4526   ZZ=           -397.2084
   XY=            -31.7781   XZ=             13.5138   YZ=             -2.0283

 Normal termination of Gaussian 16 at Tue Aug 27 06:44:16 2019.
