 Gaussian 16, Revision A.03,
 Gaussian 16:  ES64L-G16RevA.03 25-Dec-2016

 --------------------------
 # td=(NStates=1) B3LYP/SVP
 --------------------------

 --
 TD
 --
 Symbolic Z-matrix:
 Charge =  0 Multiplicity = 1

                         Standard orientation:
 ---------------------------------------------------------------------
 Center     Atomic      Atomic             Coordinates (Angstroms)
 Number     Number       Type             X           Y           Z
 ---------------------------------------------------------------------
      1          6           0       -5.141724   -1.860882    0.311867
      2          6           0       -4.778783    2.836596    1.231977
      3          6           0       -9.526712    3.264417   -0.300139
      4          6           0       -9.841039   -1.531924   -0.828947
      5          7           0       -5.207056    0.540905    0.878389
      6          6           0       -4.547071   -0.632135    0.766184
      7          6           0       -3.106604   -0.499572    1.207427
      8          6           0       -3.109735    0.966828    1.788497
      9          6           0       -4.459258    1.552418    1.334036
     10          6           0       -2.908243    1.084129    3.300405
     11          6           0       -1.985024   -0.606563    0.112882
     12          6           0       -0.499311   -0.606065    0.604864
     13          6           0        0.340428   -1.004396   -0.618514
     14          8           0        0.067889   -1.545098   -1.581113
     15          8           0        1.661174   -0.590244   -0.205739
     16          7           0       -7.100464    2.782271    0.292442
     17          6           0       -6.054195    3.372158    0.743329
     18          6           0       -6.382212    4.805791    0.900827
     19          6           0       -7.678556    4.999246    0.373923
     20          6           0       -8.133686    3.640738    0.006434
     21          6           0       -5.527078    5.848641    1.435688
     22          6           0       -8.387738    6.246231    0.200204
     23          6           0       -9.338569    6.587368   -0.632430
     24          7           0       -9.263103    0.785247   -0.491182
     25          6           0       -9.963449    2.017403   -0.479218
     26          6           0      -11.359373    1.674782   -0.795399
     27          6           0      -11.560232    0.323253   -0.925681
     28          6           0      -10.238929   -0.184305   -0.738082
     29          6           0      -12.385653    2.710558   -0.990300
     30          6           0      -12.688741   -0.526766   -1.434483
     31          6           0      -12.658234   -0.808701   -3.000832
     32          7           0       -7.508676   -1.255763   -0.315667
     33          6           0       -8.570427   -2.022331   -0.579144
     34          6           0       -8.116134   -3.414552   -0.609053
     35          6           0       -6.759567   -3.414637   -0.315062
     36          6           0       -6.449766   -2.067098   -0.019459
     37          6           0       -8.974836   -4.675013   -0.854169
     38          6           0       -5.645181   -4.247427    0.085408
     39          8           0       -5.450445   -5.480115    0.019168
     40          6           0       -4.493694   -3.252542    0.398182
     41          6           0       -3.777072   -3.652305    1.742103
     42          8           0       -4.158147   -3.235955    2.849154
     43          8           0       -2.898773   -4.610042    1.517312
     44          6           0       -2.312897   -5.238816    2.699328
     45          6           0        2.780541   -0.953953   -1.197536
     46          6           0        4.114664   -0.764637   -0.637927
     47          6           0        5.030563   -0.002467   -1.155665
     48          6           0        4.965500    0.643890   -2.474359
     49          6           0        6.294269    0.152299   -0.478823
     50          6           0        7.585256   -0.416499   -1.109265
     51          6           0        8.873545   -0.259121   -0.200047
     52          6           0       10.215800   -0.775821   -0.670605
     53          6           0       10.086745   -2.387032   -0.753891
     54          6           0       11.388251   -0.406389    0.077100
     55          6           0       12.724688   -0.701027   -0.494998
     56          6           0       13.879751   -0.249151    0.358753
     57          6           0       15.190861   -0.253334   -0.291964
     58          6           0       15.805536   -1.652934   -0.526334
     59          6           0       16.265790    0.556809    0.520795
     60          6           0       17.678131    0.677454   -0.230456
     61          6           0       18.572018    1.628763    0.617982
     62          6           0       19.992261    1.818187    0.141556
     63          6           0       20.177380    2.390467   -1.373733
     64          6           0       20.811106    2.616128    1.151022
     65          1           0       -4.139869    3.518001    1.528011
     66          1           0      -10.152012    3.964832   -0.393983
     67          1           0      -10.713093   -2.219163   -1.106489
     68          1           0       -2.850492   -1.052453    2.020098
     69          1           0       -2.188071    1.542493    1.312089
     70          1           0       -1.752238    1.009128    3.490826
     71          1           0       -2.945388    2.197117    3.584718
     72          1           0       -3.530100    0.326716    3.917015
     73          1           0       -2.243867   -1.471073   -0.528468
     74          1           0       -2.179554    0.343449   -0.428154
     75          1           0       -0.153614    0.123432    1.131345
     76          1           0       -0.526907   -1.284657    1.419739
     77          1           0       -4.451948    5.689680    1.149809
     78          1           0       -5.930720    6.969385    1.033038
     79          1           0       -5.598875    5.863078    2.765524
     80          1           0       -8.064734    6.883917    1.075759
     81          1           0       -9.675748    6.050716   -1.481858
     82          1           0       -9.607858    7.564625   -0.685674
     83          1           0      -12.414635    3.666773   -0.205214
     84          1           0      -12.048211    3.199583   -1.798969
     85          1           0      -13.364162    2.278123   -1.108215
     86          1           0      -12.507612   -1.330075   -0.867446
     87          1           0      -13.546587   -0.012781   -1.163726
     88          1           0      -12.649174    0.107513   -3.541356
     89          1           0      -11.645697   -1.263949   -3.220568
     90          1           0      -13.577651   -1.447564   -3.293979
     91          1           0       -9.943061   -4.651102   -0.386771
     92          1           0       -9.279237   -5.139587   -2.043565
     93          1           0       -8.300237   -5.509475   -0.513128
     94          1           0       -3.818333   -3.366993   -0.457676
     95          1           0       -1.769257   -6.204242    2.521373
     96          1           0       -1.777352   -4.601933    3.181489
     97          1           0       -3.104268   -5.597587    3.325881
     98          1           0        2.508473   -2.064901   -1.641470
     99          1           0        2.618636   -0.267946   -2.138079
    100          1           0        4.230194   -1.092475    0.412577
    101          1           0        5.157408    1.724666   -2.147402
    102          1           0        5.876395    0.256293   -3.118706
    103          1           0        3.890827    0.651202   -3.099460
    104          1           0        6.514228    1.197525   -0.409738
    105          1           0        6.299193   -0.124335    0.482925
    106          1           0        7.476036   -1.503398   -1.216281
    107          1           0        7.804526   -0.051283   -2.129252
    108          1           0        9.012863    0.940644    0.010339
    109          1           0        8.566820   -0.722244    0.815974
    110          1           0       10.474235   -0.505032   -1.849427
    111          1           0        9.368142   -2.623551   -1.512675
    112          1           0       11.003645   -2.579737   -1.176540
    113          1           0        9.897275   -2.940021    0.257941
    114          1           0       11.334963    0.718487    0.036270
    115          1           0       11.302894   -0.719349    1.268900
    116          1           0       12.909556   -1.825582   -0.824848
    117          1           0       12.846258   -0.358347   -1.508462
    118          1           0       13.605780    0.890407    0.581078
    119          1           0       13.929476   -0.668736    1.379651
    120          1           0       14.965381    0.502693   -1.278907
    121          1           0       14.855363   -2.429694   -0.999130
    122          1           0       16.815475   -1.685372   -1.061298
    123          1           0       16.038593   -2.134887    0.540287
    124          1           0       15.921053    1.702127    0.612265
    125          1           0       16.345752    0.149803    1.528686
    126          1           0       18.346906   -0.227414   -0.139971
    127          1           0       17.687409    0.977314   -1.347948
    128          1           0       18.164477    2.540098    0.720806
    129          1           0       18.506430    1.293446    1.692979
    130          1           0       20.428299    0.812190    0.093131
    131          1           0       19.674158    3.444133   -1.485367
    132          1           0       21.218010    2.472839   -1.532996
    133          1           0       19.763857    1.641767   -2.180638
    134          1           0       21.009562    1.908976    2.009929
    135          1           0       21.877502    2.941810    0.843747
    136          1           0       20.457670    3.701326    1.475919
    137          1           0       -7.126473    1.713880    0.396276
    138          1           0       -7.825348   -0.157182   -0.296258
 ---------------------------------------------------------------------

 SCF Done:  E(RB3LYP) =  -2733.05352576     A.U. after   17 cycles

 Excitation energies and oscillator strengths:

 Excited State   1:      Singlet-A      2.0254 eV  612.13 nm  f=0.2208  <S**2>=0.000
     235 -> 238       -0.27240
     236 -> 237        0.64959
 This state for optimization and/or second-order correction.
 Total Energy, E(TD-HF/TD-DFT) =  -2732.97909220
 Copying the excited state density for this state as the 1-particle RhoCI density.

 The electronic state is 1-A.
 Alpha  occ. eigenvalues --  -19.19041 -19.15556 -19.14457 -19.12246 -19.12169
 Alpha  occ. eigenvalues --  -14.38187 -14.35988 -14.31817 -14.30610 -10.32238
 Alpha  occ. eigenvalues --  -10.31478 -10.28113 -10.25224 -10.24010 -10.23996
 Alpha  occ. eigenvalues --  -10.23632 -10.23521 -10.23156 -10.23032 -10.22672
 Alpha  occ. eigenvalues --  -10.22191 -10.21638 -10.21441 -10.21364 -10.21250
 Alpha  occ. eigenvalues --  -10.21128 -10.21121 -10.21021 -10.20471 -10.20427
 Alpha  occ. eigenvalues --  -10.20372 -10.20354 -10.20238 -10.20185 -10.20162
 Alpha  occ. eigenvalues --  -10.20064 -10.19978 -10.19923 -10.19743 -10.19696
 Alpha  occ. eigenvalues --  -10.19525 -10.19391 -10.19347 -10.19329 -10.19297
 Alpha  occ. eigenvalues --  -10.19261 -10.19258 -10.19245 -10.19232 -10.19152
 Alpha  occ. eigenvalues --  -10.19030 -10.18909 -10.18834 -10.18787 -10.18689
 Alpha  occ. eigenvalues --  -10.18660 -10.18472 -10.18413 -10.18213 -10.18072
 Alpha  occ. eigenvalues --  -10.17948 -10.17632 -10.17396 -10.16960  -1.10114
 Alpha  occ. eigenvalues --   -1.09778  -1.00871  -1.00066  -0.99390  -0.98997
 Alpha  occ. eigenvalues --   -0.98695  -0.94342  -0.92387  -0.85595  -0.84316
 Alpha  occ. eigenvalues --   -0.82906  -0.82114  -0.81126  -0.80934  -0.80725
 Alpha  occ. eigenvalues --   -0.79899  -0.79749  -0.79686  -0.78930  -0.77225
 Alpha  occ. eigenvalues --   -0.76893  -0.76436  -0.76111  -0.75379  -0.74577
 Alpha  occ. eigenvalues --   -0.74355  -0.72979  -0.72285  -0.71131  -0.70408
 Alpha  occ. eigenvalues --   -0.69833  -0.69631  -0.68678  -0.67895  -0.67388
 Alpha  occ. eigenvalues --   -0.67233  -0.66429  -0.65907  -0.65313  -0.64731
 Alpha  occ. eigenvalues --   -0.64160  -0.63584  -0.63008  -0.62809  -0.62493
 Alpha  occ. eigenvalues --   -0.61280  -0.59269  -0.58953  -0.58194  -0.57473
 Alpha  occ. eigenvalues --   -0.57444  -0.57021  -0.55591  -0.55434  -0.54846
 Alpha  occ. eigenvalues --   -0.54803  -0.54370  -0.53838  -0.52995  -0.52880
 Alpha  occ. eigenvalues --   -0.52405  -0.51821  -0.51673  -0.50989  -0.50810
 Alpha  occ. eigenvalues --   -0.50122  -0.49783  -0.49278  -0.48772  -0.48294
 Alpha  occ. eigenvalues --   -0.48124  -0.47755  -0.47555  -0.47389  -0.47150
 Alpha  occ. eigenvalues --   -0.46805  -0.46683  -0.46510  -0.46239  -0.45653
 Alpha  occ. eigenvalues --   -0.45504  -0.45376  -0.45018  -0.44751  -0.44706
 Alpha  occ. eigenvalues --   -0.44521  -0.44468  -0.44219  -0.44116  -0.43973
 Alpha  occ. eigenvalues --   -0.43773  -0.43561  -0.43174  -0.42995  -0.42685
 Alpha  occ. eigenvalues --   -0.42481  -0.42391  -0.41920  -0.41470  -0.41349
 Alpha  occ. eigenvalues --   -0.41054  -0.40901  -0.40873  -0.40665  -0.40491
 Alpha  occ. eigenvalues --   -0.39813  -0.39747  -0.39554  -0.39255  -0.39075
 Alpha  occ. eigenvalues --   -0.39033  -0.38793  -0.38409  -0.38367  -0.38287
 Alpha  occ. eigenvalues --   -0.38166  -0.37935  -0.37656  -0.37492  -0.37404
 Alpha  occ. eigenvalues --   -0.37289  -0.37181  -0.36902  -0.36754  -0.36615
 Alpha  occ. eigenvalues --   -0.36433  -0.36273  -0.36109  -0.35948  -0.35822
 Alpha  occ. eigenvalues --   -0.35474  -0.35407  -0.35231  -0.35196  -0.34943
 Alpha  occ. eigenvalues --   -0.34873  -0.34665  -0.34492  -0.34221  -0.34168
 Alpha  occ. eigenvalues --   -0.33896  -0.33561  -0.33458  -0.33356  -0.32839
 Alpha  occ. eigenvalues --   -0.32242  -0.32184  -0.31679  -0.31594  -0.31415
 Alpha  occ. eigenvalues --   -0.31036  -0.30960  -0.30861  -0.30650  -0.30408
 Alpha  occ. eigenvalues --   -0.29713  -0.29210  -0.29095  -0.28291  -0.28059
 Alpha  occ. eigenvalues --   -0.27514  -0.27354  -0.26919  -0.26040  -0.25792
 Alpha  occ. eigenvalues --   -0.25127  -0.24973  -0.23739  -0.22545  -0.19720
 Alpha  occ. eigenvalues --   -0.18981
 Alpha virt. eigenvalues --   -0.10644  -0.07402  -0.04936  -0.02183  -0.00476
 Alpha virt. eigenvalues --    0.00201   0.00528   0.00713   0.02409   0.03324
 Alpha virt. eigenvalues --    0.03476   0.04096   0.04259   0.04344   0.04650

 Mulliken charges:
               1
     1  C   -0.004997
     2  C    0.026085
     3  C    0.010403
     4  C   -0.122984
     5  N   -0.162826
     6  C   -0.065052
     7  C    0.053430
     8  C   -0.141673
     9  C    0.058339
    10  C    0.029661
    11  C    0.009015
    12  C    0.148807
    13  C    0.195601
    14  O   -0.122421
    15  O   -0.415332
    16  N    0.016872
    17  C    0.023980
    18  C   -0.117379
    19  C    0.013668
    20  C    0.054755
    21  C   -0.058626
    22  C   -0.043138
    23  C    0.022350
    24  N   -0.336900
    25  C    0.181447
    26  C   -0.157927
    27  C   -0.127443
    28  C    0.039854
    29  C    0.130036
    30  C    0.173702
    31  C    0.009657
    32  N   -0.073894
    33  C    0.091132
    34  C   -0.107410
    35  C    0.010969
    36  C    0.083408
    37  C    0.006456
    38  C    0.082389
    39  O   -0.207313
    40  C   -0.004689
    41  C    0.209615
    42  O   -0.267379
    43  O   -0.279093
    44  C    0.267129
    45  C    0.195111
    46  C   -0.062159
    47  C   -0.101942
    48  C   -0.009693
    49  C    0.181944
    50  C    0.001701
    51  C   -0.014062
    52  C   -0.132179
    53  C    0.065365
    54  C    0.062515
    55  C    0.029987
    56  C    0.027248
    57  C   -0.080151
    58  C   -0.050214
    59  C   -0.008868
    60  C   -0.003887
    61  C    0.063457
    62  C   -0.059107
    63  C   -0.017903
    64  C   -0.031391
    65  H   -0.116927
    66  H   -0.165745
    67  H   -0.000144
    68  H   -0.036612
    69  H    0.009955
    70  H    0.005838
    71  H    0.011677
    72  H    0.061964
    73  H    0.025213
    74  H    0.011554
    75  H   -0.049477
    76  H    0.005222
    77  H    0.048215
    78  H    0.050743
    79  H    0.050269
    80  H    0.018363
    81  H    0.010858
    82  H   -0.004799
    83  H    0.032466
    84  H   -0.013191
    85  H    0.007648
    86  H   -0.024754
    87  H   -0.026171
    88  H    0.004754
    89  H    0.021868
    90  H    0.037469
    91  H    0.027057
    92  H    0.046975
    93  H    0.050844
    94  H    0.054844
    95  H    0.041908
    96  H   -0.018520
    97  H    0.021435
    98  H    0.047371
    99  H    0.019181
   100  H   -0.011779
   101  H    0.026974
   102  H    0.055545
   103  H    0.049800
   104  H   -0.026339
   105  H   -0.061364
   106  H   -0.003649
   107  H    0.000794
   108  H   -0.002455
   109  H    0.009076
   110  H    0.001037
   111  H   -0.001597
   112  H   -0.034469
   113  H    0.026892
   114  H   -0.004762
   115  H    0.014754
   116  H   -0.000499
   117  H   -0.030988
   118  H   -0.007501
   119  H   -0.011404
   120  H    0.008747
   121  H    0.032786
   122  H    0.047194
   123  H    0.019279
   124  H    0.012504
   125  H   -0.000187
   126  H    0.002708
   127  H    0.023691
   128  H   -0.054516
   129  H   -0.015317
   130  H   -0.013371
   131  H    0.024921
   132  H    0.004317
   133  H    0.026291
   134  H    0.019010
   135  H    0.004861
   136  H    0.023687
   137  H    0.181186
   138  H    0.208738
 Sum of Mulliken charges =  -0.00000

 Dipole moment (field-independent basis, Debye):
    X=              2.5577    Y=              3.6378    Z=              0.2758  Tot=              4.4555
 Quadrupole moment (field-independent basis, Debye-Ang):
   XX=           -332.2955   YY=           -388.0300   ZZ=           -394.9284
   XY=            -21.3611   XZ=             15.1279   YZ=             -6.3828

 Normal termination of Gaussian 16 at Mon Aug 26 07:52:54 2019.
