 Gaussian 16, Revision A.03,
 Gaussian 16:  ES64L-G16RevA.03 25-Dec-2016

 --------------------------
 # td=(NStates=1) B3LYP/SVP
 --------------------------

 --
 TD
 --
 Symbolic Z-matrix:
 Charge =  0 Multiplicity = 1

                         Standard orientation:
 ---------------------------------------------------------------------
 Center     Atomic      Atomic             Coordinates (Angstroms)
 Number     Number       Type             X           Y           Z
 ---------------------------------------------------------------------
      1          6           0       -5.228197   -1.963116    0.388201
      2          6           0       -4.585815    2.638777    1.474312
      3          6           0       -9.176484    3.396018   -0.165829
      4          6           0      -10.012893   -1.415988   -0.791092
      5          7           0       -5.126745    0.427550    0.716505
      6          6           0       -4.543210   -0.742486    0.783655
      7          6           0       -2.991365   -0.740579    1.258279
      8          6           0       -2.978975    0.657152    1.957800
      9          6           0       -4.306818    1.344435    1.296277
     10          6           0       -3.111770    0.539629    3.478376
     11          6           0       -1.984225   -0.851368    0.057616
     12          6           0       -0.538515   -0.778547    0.513523
     13          6           0        0.360797   -1.008823   -0.669584
     14          8           0        0.088731   -1.349137   -1.780960
     15          8           0        1.601241   -0.754818   -0.289279
     16          7           0       -6.911721    2.670914    0.643511
     17          6           0       -5.825975    3.213615    1.114948
     18          6           0       -6.078029    4.671232    1.217013
     19          6           0       -7.338243    4.985564    0.648273
     20          6           0       -7.870725    3.644150    0.334676
     21          6           0       -5.021986    5.730831    1.709991
     22          6           0       -7.836902    6.309328    0.520475
     23          6           0       -8.690945    6.733484   -0.472134
     24          7           0       -9.193007    0.920951   -0.452174
     25          6           0       -9.756321    2.167852   -0.526335
     26          6           0      -11.164890    2.077742   -1.023066
     27          6           0      -11.327849    0.730044   -1.221297
     28          6           0      -10.158796    0.057872   -0.878571
     29          6           0      -11.986100    3.231632   -1.382416
     30          6           0      -12.593476    0.078583   -1.738962
     31          6           0      -12.554165   -0.356530   -3.157070
     32          7           0       -7.620863   -1.203735   -0.334913
     33          6           0       -8.630609   -1.928522   -0.683915
     34          6           0       -8.324161   -3.417006   -0.659015
     35          6           0       -7.077507   -3.358200   -0.351623
     36          6           0       -6.579538   -1.980931   -0.065967
     37          6           0       -9.155160   -4.513095   -0.998141
     38          6           0       -5.975776   -4.309861    0.011154
     39          8           0       -5.968106   -5.565093    0.010189
     40          6           0       -4.733988   -3.396139    0.493213
     41          6           0       -4.189849   -3.837533    1.792967
     42          8           0       -4.268151   -3.401685    2.889261
     43          8           0       -3.421379   -4.971189    1.587249
     44          6           0       -2.982321   -5.657094    2.708210
     45          6           0        2.682920   -0.958301   -1.311915
     46          6           0        4.037513   -0.742038   -0.646270
     47          6           0        4.947861    0.181101   -1.061712
     48          6           0        4.886548    1.149501   -2.217096
     49          6           0        6.315728    0.237493   -0.319057
     50          6           0        7.486524   -0.303604   -1.169526
     51          6           0        8.803140   -0.142374   -0.270268
     52          6           0        9.960146   -0.595757   -1.036384
     53          6           0        9.931795   -2.113248   -1.391731
     54          6           0       11.253468   -0.199647   -0.191335
     55          6           0       12.622984   -0.651583   -0.867785
     56          6           0       13.847206   -0.255546    0.184834
     57          6           0       15.281626   -0.347755   -0.470926
     58          6           0       15.725120   -1.803544   -0.663799
     59          6           0       16.230256    0.520039    0.404599
     60          6           0       17.714073    0.670032   -0.145611
     61          6           0       18.632523    1.456659    0.930983
     62          6           0       20.093136    1.531304    0.303041
     63          6           0       20.300302    2.244480   -0.973099
     64          6           0       20.985395    2.239480    1.479557
     65          1           0       -3.921287    3.244950    2.303301
     66          1           0       -9.915746    4.326184   -0.183221
     67          1           0      -10.731856   -2.019418   -1.016306
     68          1           0       -2.897942   -1.761027    2.040889
     69          1           0       -2.022623    1.028467    1.487812
     70          1           0       -2.050044    0.274203    3.809154
     71          1           0       -3.471571    1.614092    4.042126
     72          1           0       -3.882505   -0.328388    3.916128
     73          1           0       -2.146693   -1.682533   -0.437277
     74          1           0       -2.148692   -0.077502   -0.735002
     75          1           0       -0.218815    0.225663    1.026978
     76          1           0       -0.306540   -1.555106    1.302251
     77          1           0       -4.128617    5.183767    1.062096
     78          1           0       -5.227719    6.733710    1.442142
     79          1           0       -4.718929    5.598436    2.777999
     80          1           0       -7.356664    7.099723    1.249152
     81          1           0       -9.100852    6.045303   -0.993559
     82          1           0       -9.129094    7.815949   -0.595413
     83          1           0      -12.342460    3.910072   -0.487154
     84          1           0      -11.674858    3.653303   -2.420306
     85          1           0      -12.939571    3.276116   -1.882218
     86          1           0      -12.771503   -0.665572   -1.008487
     87          1           0      -13.416332    0.612222   -1.423113
     88          1           0      -12.308695    0.723945   -4.001308
     89          1           0      -11.653139   -1.121061   -3.357340
     90          1           0      -13.484183   -1.017067   -3.449907
     91          1           0      -10.426535   -4.179364   -0.756400
     92          1           0       -9.049852   -4.783983   -2.147991
     93          1           0       -8.798379   -5.602743   -0.232180
     94          1           0       -4.007207   -3.296071   -0.174539
     95          1           0       -2.285985   -6.417794    2.438380
     96          1           0       -2.492782   -4.947463    3.479362
     97          1           0       -3.747913   -5.921198    3.448700
     98          1           0        2.421542   -2.034704   -1.523378
     99          1           0        2.417414   -0.122464   -2.168404
    100          1           0        4.161595   -1.187850    0.309197
    101          1           0        5.285011    1.985022   -2.200822
    102          1           0        5.518026    0.645401   -3.033809
    103          1           0        4.072377    1.019490   -2.799051
    104          1           0        6.502466    1.286366    0.078915
    105          1           0        6.191750   -0.201953    0.773280
    106          1           0        7.339669   -1.281524   -1.514912
    107          1           0        7.332523    0.360048   -2.092585
    108          1           0        8.721744    0.895957    0.038929
    109          1           0        8.960114   -0.933494    0.694625
    110          1           0       10.038719   -0.077321   -1.954141
    111          1           0        9.059781   -2.152864   -2.281618
    112          1           0       10.792899   -2.678585   -1.850845
    113          1           0        9.758929   -2.741688   -0.645478
    114          1           0       11.388512    0.891089    0.073915
    115          1           0       11.277778   -0.694393    0.781204
    116          1           0       12.989491   -1.696082   -1.036125
    117          1           0       12.726304    0.063605   -1.677748
    118          1           0       13.524761    0.994573    0.379269
    119          1           0       13.690183   -0.834387    1.185746
    120          1           0       15.310394    0.142559   -1.449882
    121          1           0       14.951343   -2.188417   -1.286478
    122          1           0       16.587120   -1.857243   -1.152224
    123          1           0       15.764039   -2.292113    0.367911
    124          1           0       16.001630    1.521333    0.572614
    125          1           0       16.374493   -0.002832    1.344826
    126          1           0       18.098568   -0.401901   -0.477549
    127          1           0       17.280406    1.395794   -1.127910
    128          1           0       18.158056    2.401422    1.017993
    129          1           0       18.625607    1.176286    1.987394
    130          1           0       20.609724    0.588551    0.311358
    131          1           0       19.873202    3.426154   -1.106099
    132          1           0       21.367626    2.469551   -1.156404
    133          1           0       19.891702    1.841528   -1.974757
    134          1           0       20.878948    1.629857    2.412563
    135          1           0       22.018058    2.163821    1.178071
    136          1           0       20.665171    3.325976    1.699897
    137          1           0       -7.074286    1.621348    0.399814
    138          1           0       -7.795037   -0.242990   -0.206868
 ---------------------------------------------------------------------

 SCF Done:  E(RB3LYP) =  -2732.86335863     A.U. after   17 cycles

 Excitation energies and oscillator strengths:

 Excited State   1:      Singlet-A      2.0301 eV  610.74 nm  f=0.1889  <S**2>=0.000
     235 -> 238        0.28159
     236 -> 237        0.63698
 This state for optimization and/or second-order correction.
 Total Energy, E(TD-HF/TD-DFT) =  -2732.78875517
 Copying the excited state density for this state as the 1-particle RhoCI density.

 The electronic state is 1-A.
 Alpha  occ. eigenvalues --  -19.16726 -19.16271 -19.13494 -19.13412 -19.11726
 Alpha  occ. eigenvalues --  -14.38258 -14.37799 -14.32646 -14.30043 -10.31912
 Alpha  occ. eigenvalues --  -10.30438 -10.29391 -10.26134 -10.24357 -10.24339
 Alpha  occ. eigenvalues --  -10.24301 -10.23849 -10.23805 -10.23794 -10.23487
 Alpha  occ. eigenvalues --  -10.22555 -10.21928 -10.21907 -10.21650 -10.21329
 Alpha  occ. eigenvalues --  -10.21315 -10.21258 -10.21238 -10.21090 -10.21057
 Alpha  occ. eigenvalues --  -10.21033 -10.21014 -10.20929 -10.20897 -10.20760
 Alpha  occ. eigenvalues --  -10.20627 -10.20589 -10.20515 -10.20265 -10.19995
 Alpha  occ. eigenvalues --  -10.19988 -10.19972 -10.19784 -10.19754 -10.19620
 Alpha  occ. eigenvalues --  -10.19427 -10.19347 -10.19264 -10.19091 -10.19066
 Alpha  occ. eigenvalues --  -10.19015 -10.18985 -10.18872 -10.18863 -10.18785
 Alpha  occ. eigenvalues --  -10.18713 -10.18676 -10.18457 -10.18307 -10.18067
 Alpha  occ. eigenvalues --  -10.17659 -10.17253 -10.17204 -10.16839  -1.10259
 Alpha  occ. eigenvalues --   -1.09259  -1.02457  -1.01594  -1.01107  -1.00005
 Alpha  occ. eigenvalues --   -0.98942  -0.94879  -0.93353  -0.85382  -0.82724
 Alpha  occ. eigenvalues --   -0.82543  -0.81656  -0.81234  -0.80824  -0.80260
 Alpha  occ. eigenvalues --   -0.80118  -0.79491  -0.78770  -0.78443  -0.77109
 Alpha  occ. eigenvalues --   -0.76329  -0.75490  -0.75244  -0.74479  -0.73959
 Alpha  occ. eigenvalues --   -0.73240  -0.73101  -0.71934  -0.71869  -0.70118
 Alpha  occ. eigenvalues --   -0.69745  -0.69312  -0.68512  -0.68209  -0.67542
 Alpha  occ. eigenvalues --   -0.67321  -0.66417  -0.66087  -0.65800  -0.64566
 Alpha  occ. eigenvalues --   -0.64042  -0.63753  -0.62319  -0.61909  -0.60928
 Alpha  occ. eigenvalues --   -0.60391  -0.59112  -0.58646  -0.58392  -0.56872
 Alpha  occ. eigenvalues --   -0.56573  -0.56313  -0.55929  -0.55903  -0.55220
 Alpha  occ. eigenvalues --   -0.55148  -0.54307  -0.53991  -0.53806  -0.53740
 Alpha  occ. eigenvalues --   -0.53578  -0.53095  -0.51725  -0.51575  -0.50315
 Alpha  occ. eigenvalues --   -0.50096  -0.49365  -0.48737  -0.48664  -0.48318
 Alpha  occ. eigenvalues --   -0.47871  -0.47545  -0.47415  -0.47378  -0.46975
 Alpha  occ. eigenvalues --   -0.46553  -0.46361  -0.46239  -0.45966  -0.45909
 Alpha  occ. eigenvalues --   -0.45315  -0.45290  -0.45086  -0.44818  -0.44608
 Alpha  occ. eigenvalues --   -0.44399  -0.44384  -0.44036  -0.43756  -0.43504
 Alpha  occ. eigenvalues --   -0.43297  -0.43200  -0.43127  -0.43000  -0.42549
 Alpha  occ. eigenvalues --   -0.42317  -0.41878  -0.41755  -0.41395  -0.41286
 Alpha  occ. eigenvalues --   -0.41098  -0.40899  -0.40541  -0.40394  -0.40301
 Alpha  occ. eigenvalues --   -0.40107  -0.39931  -0.39575  -0.39306  -0.39253
 Alpha  occ. eigenvalues --   -0.39102  -0.38819  -0.38484  -0.38326  -0.38282
 Alpha  occ. eigenvalues --   -0.37954  -0.37837  -0.37544  -0.37472  -0.37319
 Alpha  occ. eigenvalues --   -0.37255  -0.37183  -0.36868  -0.36708  -0.36670
 Alpha  occ. eigenvalues --   -0.36296  -0.36093  -0.36029  -0.35919  -0.35881
 Alpha  occ. eigenvalues --   -0.35692  -0.35396  -0.34972  -0.34831  -0.34645
 Alpha  occ. eigenvalues --   -0.34301  -0.34148  -0.33657  -0.33484  -0.32961
 Alpha  occ. eigenvalues --   -0.32622  -0.32478  -0.32276  -0.32236  -0.31913
 Alpha  occ. eigenvalues --   -0.31832  -0.31687  -0.31369  -0.31056  -0.31002
 Alpha  occ. eigenvalues --   -0.30733  -0.30211  -0.30026  -0.29636  -0.29312
 Alpha  occ. eigenvalues --   -0.28991  -0.28866  -0.28737  -0.28354  -0.28028
 Alpha  occ. eigenvalues --   -0.27356  -0.27192  -0.26949  -0.26456  -0.26351
 Alpha  occ. eigenvalues --   -0.25598  -0.24668  -0.23158  -0.22668  -0.19873
 Alpha  occ. eigenvalues --   -0.18449
 Alpha virt. eigenvalues --   -0.09938  -0.07864  -0.04964  -0.02273  -0.00879
 Alpha virt. eigenvalues --   -0.00468   0.00205   0.01188   0.02364   0.02577
 Alpha virt. eigenvalues --    0.03122   0.03462   0.03760   0.04195   0.04249

 Mulliken charges:
               1
     1  C   -0.110411
     2  C   -0.132179
     3  C   -0.117612
     4  C    0.060423
     5  N   -0.144579
     6  C   -0.045363
     7  C   -0.197049
     8  C    0.014454
     9  C    0.008829
    10  C   -0.033790
    11  C    0.160649
    12  C   -0.021433
    13  C    0.155338
    14  O   -0.229192
    15  O   -0.333705
    16  N   -0.037001
    17  C    0.083209
    18  C   -0.178728
    19  C    0.078691
    20  C    0.074232
    21  C    0.049388
    22  C   -0.110262
    23  C    0.019549
    24  N   -0.279454
    25  C    0.040323
    26  C   -0.062747
    27  C   -0.129599
    28  C    0.047608
    29  C    0.000742
    30  C    0.187371
    31  C   -0.072300
    32  N    0.133289
    33  C   -0.039067
    34  C   -0.099509
    35  C    0.022417
    36  C    0.063196
    37  C   -0.127891
    38  C    0.122008
    39  O   -0.192381
    40  C    0.125545
    41  C    0.180006
    42  O   -0.187046
    43  O   -0.307704
    44  C    0.196767
    45  C    0.219925
    46  C   -0.044703
    47  C   -0.170945
    48  C    0.276192
    49  C   -0.013192
    50  C    0.044127
    51  C    0.016902
    52  C    0.014552
    53  C    0.012885
    54  C    0.010568
    55  C    0.024325
    56  C   -0.123079
    57  C   -0.041908
    58  C    0.118172
    59  C    0.064856
    60  C   -0.107093
    61  C    0.090898
    62  C   -0.056855
    63  C   -0.018360
    64  C   -0.021692
    65  H    0.040444
    66  H    0.034976
    67  H   -0.103607
    68  H    0.065825
    69  H    0.005392
    70  H    0.029562
    71  H    0.034519
    72  H    0.072903
    73  H   -0.046760
    74  H    0.013817
    75  H    0.053548
    76  H    0.038221
    77  H    0.052684
    78  H    0.019992
    79  H    0.037529
    80  H    0.025189
    81  H   -0.037754
    82  H    0.045884
    83  H    0.045866
    84  H    0.035414
    85  H   -0.016260
    86  H   -0.027295
    87  H   -0.044674
    88  H    0.031114
    89  H    0.032871
    90  H    0.031851
    91  H    0.057769
    92  H    0.083284
    93  H    0.090318
    94  H    0.002614
    95  H    0.030393
    96  H    0.001507
    97  H    0.009880
    98  H    0.033340
    99  H    0.060995
   100  H   -0.012825
   101  H   -0.052192
   102  H    0.007963
   103  H   -0.050809
   104  H    0.002645
   105  H   -0.000622
   106  H   -0.006656
   107  H    0.002445
   108  H   -0.000545
   109  H    0.023491
   110  H   -0.031165
   111  H    0.025482
   112  H    0.017845
   113  H   -0.026719
   114  H    0.000657
   115  H   -0.019088
   116  H    0.025474
   117  H   -0.002094
   118  H    0.003423
   119  H    0.024219
   120  H   -0.024007
   121  H   -0.008913
   122  H   -0.024503
   123  H    0.016074
   124  H   -0.021971
   125  H   -0.026041
   126  H    0.027109
   127  H    0.020839
   128  H   -0.022521
   129  H   -0.004631
   130  H    0.000248
   131  H    0.004683
   132  H    0.005554
   133  H    0.026746
   134  H    0.008499
   135  H    0.002740
   136  H    0.022629
   137  H    0.193558
   138  H    0.101018
 Sum of Mulliken charges =  -0.00000

 Dipole moment (field-independent basis, Debye):
    X=              2.8471    Y=              3.2199    Z=              0.1591  Tot=              4.3011
 Quadrupole moment (field-independent basis, Debye-Ang):
   XX=           -346.8582   YY=           -389.3944   ZZ=           -396.0798
   XY=            -22.9238   XZ=              6.0367   YZ=             -1.8573

 Normal termination of Gaussian 16 at Mon Aug 12 14:38:39 2019.
