 Gaussian 16, Revision A.03,
 Gaussian 16:  ES64L-G16RevA.03 25-Dec-2016

 --------------------------
 # td=(NStates=1) B3LYP/SVP
 --------------------------

 --
 TD
 --
 Symbolic Z-matrix:
 Charge =  0 Multiplicity = 1

                         Standard orientation:
 ---------------------------------------------------------------------
 Center     Atomic      Atomic             Coordinates (Angstroms)
 Number     Number       Type             X           Y           Z
 ---------------------------------------------------------------------
      1          6           0       -5.102022   -1.989398    0.346599
      2          6           0       -4.675525    2.669381    1.562162
      3          6           0       -9.271756    3.500744   -0.204340
      4          6           0       -9.765600   -1.329629   -0.998164
      5          7           0       -5.195310    0.339920    0.822555
      6          6           0       -4.554417   -0.788950    0.873883
      7          6           0       -3.101846   -0.686605    1.335988
      8          6           0       -3.043932    0.726940    1.926284
      9          6           0       -4.385007    1.292398    1.412595
     10          6           0       -3.034248    0.778832    3.423982
     11          6           0       -2.037835   -0.866304    0.185123
     12          6           0       -0.623222   -0.908369    0.690241
     13          6           0        0.420648   -1.374607   -0.399537
     14          8           0        0.120513   -1.938935   -1.460892
     15          8           0        1.652813   -0.872184   -0.062847
     16          7           0       -7.064252    2.694508    0.548425
     17          6           0       -5.873130    3.289405    1.054476
     18          6           0       -6.131778    4.752944    1.159349
     19          6           0       -7.396143    5.015258    0.695349
     20          6           0       -8.027403    3.720085    0.271326
     21          6           0       -5.086458    5.696319    1.530271
     22          6           0       -7.867517    6.405270    0.401127
     23          6           0       -8.910809    6.594401   -0.576337
     24          7           0       -9.119544    0.996056   -0.560116
     25          6           0       -9.734965    2.296252   -0.573433
     26          6           0      -11.126277    2.111299   -0.995824
     27          6           0      -11.336237    0.771498   -1.195041
     28          6           0      -10.053443    0.111683   -0.914339
     29          6           0      -12.153939    3.197272   -1.300203
     30          6           0      -12.553228    0.089284   -1.841160
     31          6           0      -12.751463   -0.049950   -3.344708
     32          7           0       -7.497941   -1.219323   -0.232914
     33          6           0       -8.535004   -1.834337   -0.722490
     34          6           0       -8.271258   -3.357335   -0.855919
     35          6           0       -6.902338   -3.373940   -0.363492
     36          6           0       -6.429907   -2.070795   -0.047905
     37          6           0       -9.189563   -4.401572   -1.288780
     38          6           0       -5.795192   -4.249269   -0.164808
     39          8           0       -5.792625   -5.528804   -0.291946
     40          6           0       -4.599309   -3.446236    0.314596
     41          6           0       -4.082689   -3.897533    1.736143
     42          8           0       -4.323151   -3.312787    2.808119
     43          8           0       -3.206878   -4.939984    1.615648
     44          6           0       -2.700567   -5.463118    2.890239
     45          6           0        2.698119   -1.229913   -0.995249
     46          6           0        3.876475   -0.893369   -0.315065
     47          6           0        4.900003   -0.214119   -0.894308
     48          6           0        4.843160    0.503399   -2.303560
     49          6           0        6.214021    0.105736   -0.136902
     50          6           0        7.484211   -0.381797   -0.848003
     51          6           0        8.763960   -0.271799   -0.039872
     52          6           0       10.033920   -0.847029   -0.702970
     53          6           0       10.046397   -2.223961   -1.095042
     54          6           0       11.278766   -0.503163    0.055831
     55          6           0       12.687702   -0.728493   -0.611552
     56          6           0       13.790735   -0.121952    0.244833
     57          6           0       15.238344   -0.121128   -0.403792
     58          6           0       15.675120   -1.536814   -0.522202
     59          6           0       16.279664    0.646707    0.520101
     60          6           0       17.688288    0.808635   -0.289317
     61          6           0       18.554281    1.774065    0.507347
     62          6           0       20.090699    1.906038   -0.027801
     63          6           0       20.145952    2.323204   -1.538407
     64          6           0       20.936766    2.809727    0.837233
     65          1           0       -3.996391    3.369625    1.947336
     66          1           0       -9.927964    4.308899   -0.187194
     67          1           0      -10.649756   -1.971424   -1.341329
     68          1           0       -2.708324   -1.394449    2.190599
     69          1           0       -2.164456    1.237780    1.411223
     70          1           0       -2.176359    0.361640    3.920876
     71          1           0       -2.832928    1.896651    3.735136
     72          1           0       -3.837077    0.095959    3.821951
     73          1           0       -2.402663   -1.708562   -0.501508
     74          1           0       -2.272742   -0.269308   -0.486254
     75          1           0       -0.508661    0.072517    1.307815
     76          1           0       -0.647270   -1.798581    1.369544
     77          1           0       -4.284689    5.723917    0.849826
     78          1           0       -5.564229    6.778431    1.552098
     79          1           0       -4.483535    5.557898    2.613912
     80          1           0       -7.678104    7.099255    1.188264
     81          1           0       -9.273815    5.613791   -1.105525
     82          1           0       -9.078744    7.683147   -1.025654
     83          1           0      -11.874951    4.102926   -0.425095
     84          1           0      -11.846785    3.653891   -2.334207
     85          1           0      -13.190698    2.754087   -1.262350
     86          1           0      -12.616038   -0.971285   -1.368713
     87          1           0      -13.508695    0.551890   -1.280229
     88          1           0      -12.632921    0.846610   -3.902607
     89          1           0      -12.080012   -1.010964   -3.669289
     90          1           0      -13.706139   -0.641972   -3.645109
     91          1           0      -10.165363   -4.318517   -0.765037
     92          1           0       -9.325301   -4.438327   -2.329356
     93          1           0       -8.835655   -5.351168   -1.075521
     94          1           0       -3.727462   -3.563064   -0.523025
     95          1           0       -2.181385   -6.310737    2.595565
     96          1           0       -2.242846   -4.677251    3.527863
     97          1           0       -3.557504   -5.782940    3.453666
     98          1           0        2.916086   -2.210998   -1.361059
     99          1           0        2.557319   -0.664976   -1.954713
    100          1           0        3.890001   -1.296313    0.689560
    101          1           0        5.465256    1.379924   -1.974020
    102          1           0        5.479355    0.126796   -3.144110
    103          1           0        3.848908    0.787916   -2.504074
    104          1           0        6.353142    1.335564    0.006537
    105          1           0        6.358066   -0.506048    0.870745
    106          1           0        7.158135   -1.535544   -1.007688
    107          1           0        7.564875    0.105084   -1.852866
    108          1           0        8.969939    0.714388    0.265145
    109          1           0        8.737427   -0.787972    0.904638
    110          1           0       10.148291   -0.203340   -1.508240
    111          1           0        9.003685   -2.617607   -1.732800
    112          1           0       10.887654   -2.529858   -1.846015
    113          1           0        9.989916   -2.827640   -0.167856
    114          1           0       11.295181    0.517295    0.194346
    115          1           0       11.121541   -0.985563    1.080435
    116          1           0       12.886237   -1.778885   -0.904224
    117          1           0       12.690885   -0.177875   -1.592925
    118          1           0       13.875834    1.031941    0.513233
    119          1           0       13.749976   -0.769587    1.196359
    120          1           0       15.058047    0.401103   -1.337492
    121          1           0       15.170179   -2.240723   -1.378864
    122          1           0       16.749178   -1.643050   -0.815944
    123          1           0       15.573337   -2.189515    0.402581
    124          1           0       15.890381    1.665098    0.784662
    125          1           0       16.603345    0.200032    1.548122
    126          1           0       18.194055   -0.016267   -0.235823
    127          1           0       17.394208    1.212062   -1.395716
    128          1           0       18.102055    2.739075    0.432112
    129          1           0       18.503766    1.645846    1.628503
    130          1           0       20.410087    0.720946    0.102260
    131          1           0       19.655599    3.323843   -1.979722
    132          1           0       21.144831    2.353488   -1.843012
    133          1           0       19.622254    1.501864   -1.940467
    134          1           0       20.649430    2.436226    2.017731
    135          1           0       21.854890    2.712342    0.485884
    136          1           0       20.684682    3.756050    0.988274
    137          1           0       -7.452456    1.822036    0.563225
    138          1           0       -7.501370   -0.355863   -0.152031
 ---------------------------------------------------------------------

 SCF Done:  E(RB3LYP) =  -2733.01339271     A.U. after   16 cycles

 Excitation energies and oscillator strengths:

 Excited State   1:      Singlet-A      1.9594 eV  632.77 nm  f=0.1537  <S**2>=0.000
     235 -> 238       -0.29726
     236 -> 237        0.63416
 This state for optimization and/or second-order correction.
 Total Energy, E(TD-HF/TD-DFT) =  -2732.94138651
 Copying the excited state density for this state as the 1-particle RhoCI density.

 The electronic state is 1-A.
 Alpha  occ. eigenvalues --  -19.19249 -19.18321 -19.13788 -19.13295 -19.11214
 Alpha  occ. eigenvalues --  -14.36761 -14.36489 -14.32710 -14.29783 -10.33115
 Alpha  occ. eigenvalues --  -10.32815 -10.27270 -10.24753 -10.24241 -10.24182
 Alpha  occ. eigenvalues --  -10.23823 -10.23700 -10.23369 -10.23277 -10.23267
 Alpha  occ. eigenvalues --  -10.23229 -10.23207 -10.21928 -10.21926 -10.21698
 Alpha  occ. eigenvalues --  -10.21519 -10.21360 -10.21144 -10.21023 -10.20773
 Alpha  occ. eigenvalues --  -10.20751 -10.20698 -10.20680 -10.20611 -10.20395
 Alpha  occ. eigenvalues --  -10.20363 -10.20342 -10.20228 -10.20155 -10.19907
 Alpha  occ. eigenvalues --  -10.19793 -10.19777 -10.19669 -10.19649 -10.19608
 Alpha  occ. eigenvalues --  -10.19423 -10.19365 -10.19274 -10.19204 -10.19086
 Alpha  occ. eigenvalues --  -10.18966 -10.18894 -10.18687 -10.18352 -10.18335
 Alpha  occ. eigenvalues --  -10.18269 -10.18109 -10.17900 -10.17832 -10.17824
 Alpha  occ. eigenvalues --  -10.17801 -10.17571 -10.17077 -10.17031  -1.09164
 Alpha  occ. eigenvalues --   -1.08189  -1.01005  -1.00725  -0.99570  -0.98231
 Alpha  occ. eigenvalues --   -0.95972  -0.95368  -0.92049  -0.86043  -0.83127
 Alpha  occ. eigenvalues --   -0.82366  -0.81938  -0.81564  -0.81363  -0.80804
 Alpha  occ. eigenvalues --   -0.80570  -0.79252  -0.79081  -0.78194  -0.77784
 Alpha  occ. eigenvalues --   -0.76970  -0.75943  -0.75335  -0.74884  -0.74043
 Alpha  occ. eigenvalues --   -0.73542  -0.73413  -0.73023  -0.71950  -0.70855
 Alpha  occ. eigenvalues --   -0.70348  -0.69804  -0.68519  -0.68268  -0.67688
 Alpha  occ. eigenvalues --   -0.66917  -0.66333  -0.66108  -0.65650  -0.65305
 Alpha  occ. eigenvalues --   -0.64384  -0.63245  -0.63162  -0.61253  -0.60968
 Alpha  occ. eigenvalues --   -0.60398  -0.59388  -0.58873  -0.58081  -0.58049
 Alpha  occ. eigenvalues --   -0.57277  -0.56864  -0.56741  -0.56171  -0.55704
 Alpha  occ. eigenvalues --   -0.55555  -0.55209  -0.54482  -0.54203  -0.53848
 Alpha  occ. eigenvalues --   -0.52564  -0.52040  -0.51554  -0.50856  -0.49957
 Alpha  occ. eigenvalues --   -0.49530  -0.48941  -0.48580  -0.48477  -0.48231
 Alpha  occ. eigenvalues --   -0.47820  -0.47553  -0.47392  -0.47110  -0.46933
 Alpha  occ. eigenvalues --   -0.46758  -0.46305  -0.46218  -0.46037  -0.45906
 Alpha  occ. eigenvalues --   -0.45465  -0.45157  -0.44963  -0.44882  -0.44669
 Alpha  occ. eigenvalues --   -0.44388  -0.44272  -0.43940  -0.43897  -0.43496
 Alpha  occ. eigenvalues --   -0.43360  -0.43245  -0.42874  -0.42747  -0.42587
 Alpha  occ. eigenvalues --   -0.42467  -0.42382  -0.42223  -0.41987  -0.41444
 Alpha  occ. eigenvalues --   -0.41286  -0.41043  -0.40721  -0.40610  -0.40454
 Alpha  occ. eigenvalues --   -0.40413  -0.40211  -0.40038  -0.39944  -0.39356
 Alpha  occ. eigenvalues --   -0.39298  -0.39133  -0.39055  -0.38763  -0.38664
 Alpha  occ. eigenvalues --   -0.38445  -0.37983  -0.37912  -0.37712  -0.37600
 Alpha  occ. eigenvalues --   -0.37383  -0.37139  -0.36936  -0.36870  -0.36505
 Alpha  occ. eigenvalues --   -0.36400  -0.36343  -0.36145  -0.35789  -0.35490
 Alpha  occ. eigenvalues --   -0.35452  -0.35309  -0.35248  -0.35008  -0.34549
 Alpha  occ. eigenvalues --   -0.34498  -0.34443  -0.34096  -0.33915  -0.33327
 Alpha  occ. eigenvalues --   -0.33246  -0.33176  -0.32630  -0.32398  -0.32245
 Alpha  occ. eigenvalues --   -0.32052  -0.31861  -0.31607  -0.31184  -0.31143
 Alpha  occ. eigenvalues --   -0.30809  -0.30804  -0.30441  -0.30089  -0.30017
 Alpha  occ. eigenvalues --   -0.29693  -0.29321  -0.28907  -0.28577  -0.28192
 Alpha  occ. eigenvalues --   -0.27713  -0.27650  -0.26696  -0.25918  -0.25862
 Alpha  occ. eigenvalues --   -0.24524  -0.24471  -0.23378  -0.22341  -0.20103
 Alpha  occ. eigenvalues --   -0.18462
 Alpha virt. eigenvalues --   -0.10173  -0.08405  -0.05196  -0.03460  -0.01526
 Alpha virt. eigenvalues --   -0.01441  -0.00231   0.00198   0.02096   0.03370
 Alpha virt. eigenvalues --    0.03704   0.04019   0.04127   0.04485   0.04719

 Mulliken charges:
               1
     1  C   -0.031620
     2  C   -0.025743
     3  C   -0.094166
     4  C   -0.109934
     5  N   -0.123947
     6  C   -0.040686
     7  C   -0.124102
     8  C   -0.042661
     9  C    0.018234
    10  C    0.079598
    11  C    0.126016
    12  C    0.063114
    13  C    0.208952
    14  O   -0.243346
    15  O   -0.313049
    16  N   -0.073904
    17  C    0.118380
    18  C   -0.103723
    19  C    0.006495
    20  C    0.050813
    21  C    0.021312
    22  C   -0.028018
    23  C   -0.103004
    24  N   -0.277582
    25  C    0.146322
    26  C   -0.142042
    27  C   -0.072258
    28  C    0.011779
    29  C    0.007832
    30  C   -0.018317
    31  C    0.022739
    32  N    0.183038
    33  C    0.059425
    34  C   -0.148859
    35  C    0.038716
    36  C    0.079897
    37  C    0.179464
    38  C    0.031349
    39  O   -0.246388
    40  C   -0.036456
    41  C    0.251653
    42  O   -0.256413
    43  O   -0.318005
    44  C    0.229339
    45  C    0.289572
    46  C   -0.090708
    47  C   -0.123202
    48  C    0.071686
    49  C   -0.014474
    50  C   -0.029828
    51  C    0.096873
    52  C    0.008427
    53  C   -0.015273
    54  C    0.025294
    55  C    0.047115
    56  C   -0.035817
    57  C   -0.017552
    58  C   -0.017673
    59  C   -0.031107
    60  C    0.061884
    61  C   -0.000988
    62  C   -0.164413
    63  C    0.043024
    64  C    0.132474
    65  H   -0.050264
    66  H   -0.051253
    67  H    0.003065
    68  H    0.021210
    69  H    0.009336
    70  H   -0.010125
    71  H    0.020678
    72  H    0.042851
    73  H   -0.003177
    74  H   -0.091736
    75  H    0.053628
    76  H    0.031162
    77  H    0.023190
    78  H    0.025223
    79  H    0.043735
    80  H    0.026925
    81  H    0.062399
    82  H    0.061295
    83  H    0.044494
    84  H    0.051563
    85  H    0.040930
    86  H    0.000838
    87  H    0.011943
    88  H    0.026551
    89  H    0.012926
    90  H    0.017381
    91  H    0.032428
    92  H    0.018385
    93  H    0.004580
    94  H    0.100773
    95  H    0.024466
    96  H    0.039542
    97  H    0.018067
    98  H    0.031187
    99  H    0.007873
   100  H   -0.013275
   101  H    0.004539
   102  H    0.045106
   103  H    0.017611
   104  H    0.027100
   105  H    0.013639
   106  H    0.020512
   107  H   -0.000072
   108  H   -0.034631
   109  H   -0.033167
   110  H   -0.054748
   111  H    0.011983
   112  H    0.036612
   113  H    0.001026
   114  H   -0.035792
   115  H   -0.011393
   116  H    0.010720
   117  H   -0.016547
   118  H    0.009987
   119  H    0.004318
   120  H   -0.007218
   121  H    0.014646
   122  H    0.000564
   123  H    0.013871
   124  H   -0.000263
   125  H    0.014837
   126  H   -0.037380
   127  H    0.033137
   128  H   -0.028332
   129  H   -0.006225
   130  H    0.016056
   131  H    0.025627
   132  H   -0.006296
   133  H   -0.000571
   134  H   -0.000769
   135  H   -0.017869
   136  H   -0.027183
   137  H    0.110240
   138  H    0.001967
 Sum of Mulliken charges =  -0.00000

 Dipole moment (field-independent basis, Debye):
    X=              3.0015    Y=              3.6060    Z=              0.5589  Tot=              4.7249
 Quadrupole moment (field-independent basis, Debye-Ang):
   XX=           -361.9410   YY=           -386.0083   ZZ=           -392.2380
   XY=             -7.7225   XZ=              6.3032   YZ=             -5.8532

 Normal termination of Gaussian 16 at Tue Aug 27 15:19:27 2019.
