 Gaussian 16, Revision A.03,
 Gaussian 16:  ES64L-G16RevA.03 25-Dec-2016

 --------------------------
 # td=(NStates=1) B3LYP/SVP
 --------------------------

 --
 TD
 --
 Symbolic Z-matrix:
 Charge =  0 Multiplicity = 1

                         Standard orientation:
 ---------------------------------------------------------------------
 Center     Atomic      Atomic             Coordinates (Angstroms)
 Number     Number       Type             X           Y           Z
 ---------------------------------------------------------------------
      1          6           0       -5.102775   -1.897111    0.489052
      2          6           0       -4.835564    2.791200    1.501752
      3          6           0       -9.441850    3.361612   -0.379481
      4          6           0       -9.803531   -1.431504   -0.966873
      5          7           0       -5.215206    0.442867    0.814990
      6          6           0       -4.520906   -0.686131    0.904819
      7          6           0       -3.093683   -0.491845    1.456680
      8          6           0       -3.120648    0.909590    1.921132
      9          6           0       -4.510965    1.421433    1.468976
     10          6           0       -2.970495    1.228148    3.431167
     11          6           0       -2.147156   -0.759968    0.303989
     12          6           0       -0.685532   -0.664775    0.666807
     13          6           0        0.359923   -1.051476   -0.418260
     14          8           0        0.032688   -1.635384   -1.398714
     15          8           0        1.591991   -0.781416   -0.020065
     16          7           0       -7.176004    2.813931    0.537997
     17          6           0       -6.015570    3.480722    1.044627
     18          6           0       -6.370474    4.857029    1.034554
     19          6           0       -7.551996    4.997710    0.432988
     20          6           0       -8.108547    3.696895    0.188685
     21          6           0       -5.257624    5.767056    1.488897
     22          6           0       -8.143109    6.273428    0.269808
     23          6           0       -9.140971    6.697621   -0.584610
     24          7           0       -9.144718    0.926708   -0.394159
     25          6           0       -9.896676    2.056462   -0.593849
     26          6           0      -11.281578    1.779644   -1.016098
     27          6           0      -11.362059    0.399845   -1.286722
     28          6           0      -10.064789   -0.159723   -0.914134
     29          6           0      -12.303994    2.882731   -1.312230
     30          6           0      -12.516189   -0.334875   -1.832934
     31          6           0      -12.388428   -0.485171   -3.380854
     32          7           0       -7.489007   -1.301001   -0.081479
     33          6           0       -8.519158   -2.011931   -0.627768
     34          6           0       -8.064096   -3.401444   -0.638340
     35          6           0       -6.717861   -3.441030   -0.245641
     36          6           0       -6.424435   -2.063260    0.122119
     37          6           0       -8.839701   -4.608632   -1.128944
     38          6           0       -5.606195   -4.242632    0.075663
     39          8           0       -5.462347   -5.466042   -0.151370
     40          6           0       -4.449710   -3.293819    0.415244
     41          6           0       -3.775084   -3.743910    1.698071
     42          8           0       -4.058149   -3.271259    2.794456
     43          8           0       -3.056711   -4.907880    1.601355
     44          6           0       -2.612275   -5.596679    2.836122
     45          6           0        2.555272   -1.254166   -1.044684
     46          6           0        3.930604   -0.804508   -0.448116
     47          6           0        4.933855   -0.100113   -1.106881
     48          6           0        4.794268    0.369798   -2.526229
     49          6           0        6.225243    0.131697   -0.330045
     50          6           0        7.424766   -0.522466   -0.975840
     51          6           0        8.678262   -0.144820   -0.273976
     52          6           0       10.037558   -0.775296   -0.862933
     53          6           0       10.119822   -2.303039   -0.929306
     54          6           0       11.216306   -0.176235   -0.039373
     55          6           0       12.582992   -0.501408   -0.625670
     56          6           0       13.716244    0.120645    0.110496
     57          6           0       15.156153   -0.153289   -0.440582
     58          6           0       15.539578   -1.621068   -0.338257
     59          6           0       16.197564    0.888489    0.314627
     60          6           0       17.636116    0.805646   -0.224672
     61          6           0       18.693070    1.611511    0.594967
     62          6           0       20.154820    1.716168    0.014013
     63          6           0       20.282280    2.315058   -1.281943
     64          6           0       21.075272    2.299941    1.104784
     65          1           0       -4.043339    3.375640    1.749384
     66          1           0      -10.064147    4.196197   -0.454561
     67          1           0      -10.461360   -2.200017   -1.208203
     68          1           0       -2.952083   -1.318627    2.383656
     69          1           0       -2.307556    1.439080    1.413825
     70          1           0       -1.995649    0.834002    3.879334
     71          1           0       -2.900883    2.387562    3.869961
     72          1           0       -3.903701    0.752702    3.868315
     73          1           0       -2.381108   -1.669542   -0.222507
     74          1           0       -2.415803   -0.074368   -0.577234
     75          1           0       -0.534281    0.274398    1.044426
     76          1           0       -0.369901   -1.316673    1.373648
     77          1           0       -4.010792    5.516277    1.304778
     78          1           0       -5.563684    6.865192    1.295215
     79          1           0       -5.307917    5.832881    2.664908
     80          1           0       -7.643208    6.883178    1.147128
     81          1           0       -9.499378    5.982289   -1.374097
     82          1           0       -9.252093    8.018910   -0.718761
     83          1           0      -12.378462    3.743590   -0.495489
     84          1           0      -11.911189    3.481885   -2.108405
     85          1           0      -13.287111    2.488212   -1.638282
     86          1           0      -12.563641   -1.193024   -1.309741
     87          1           0      -13.300109    0.262432   -1.853492
     88          1           0      -12.303614    0.706108   -3.793643
     89          1           0      -11.373960   -0.954238   -3.739839
     90          1           0      -13.233643   -0.860750   -3.933400
     91          1           0       -9.639585   -4.726679   -0.632257
     92          1           0       -9.023414   -4.562854   -2.121031
     93          1           0       -8.416426   -5.585918   -1.082304
     94          1           0       -3.537818   -3.298609   -0.256885
     95          1           0       -1.947617   -6.453474    2.373999
     96          1           0       -2.270947   -4.981682    3.501811
     97          1           0       -3.430816   -6.227672    3.369634
     98          1           0        2.483690   -2.427671   -0.916000
     99          1           0        2.543832   -1.070776   -2.250453
    100          1           0        4.146797   -1.250564    0.537540
    101          1           0        5.491235    1.395669   -2.806112
    102          1           0        5.493716   -0.317374   -3.130874
    103          1           0        3.764548    0.375217   -2.877342
    104          1           0        6.423419    1.272543   -0.575133
    105          1           0        6.164772   -0.068217    0.711832
    106          1           0        7.430875   -1.575102   -0.686169
    107          1           0        7.368342   -0.433420   -2.051682
    108          1           0        8.890088    0.936309   -0.067755
    109          1           0        8.474384   -0.482971    0.779603
    110          1           0       10.151508   -0.237055   -1.673424
    111          1           0        9.307697   -2.813906   -1.564380
    112          1           0       11.189143   -2.736394   -1.296926
    113          1           0        9.805081   -2.730188    0.030224
    114          1           0       11.193904    0.979372    0.127556
    115          1           0       11.027166   -0.614650    1.052485
    116          1           0       12.889864   -1.681012   -0.542624
    117          1           0       12.570649   -0.322344   -1.743705
    118          1           0       13.499160    1.295241    0.129803
    119          1           0       13.630676   -0.039826    1.190020
    120          1           0       15.120142    0.029009   -1.430666
    121          1           0       15.016948   -2.080070   -1.247565
    122          1           0       16.677298   -1.932630   -0.393926
    123          1           0       15.343480   -2.128137    0.629365
    124          1           0       15.900518    1.953945    0.250630
    125          1           0       16.046943    0.682669    1.312472
    126          1           0       17.994761   -0.270273   -0.414910
    127          1           0       17.536412    1.264416   -1.241053
    128          1           0       18.094532    2.518244    0.715658
    129          1           0       18.792326    1.437473    1.593512
    130          1           0       20.560856    0.570091   -0.368213
    131          1           0       19.608100    3.399663   -1.497495
    132          1           0       21.241262    2.457426   -1.649965
    133          1           0       19.637565    1.755732   -2.076616
    134          1           0       21.171175    1.451964    1.993859
    135          1           0       22.094170    2.373463    0.469379
    136          1           0       20.900837    3.566808    1.492561
    137          1           0       -7.190424    1.758430    0.381342
    138          1           0       -7.465510   -0.385761   -0.050241
 ---------------------------------------------------------------------

 SCF Done:  E(RB3LYP) =  -2732.98210576     A.U. after   17 cycles

 Excitation energies and oscillator strengths:

 Excited State   1:      Singlet-A      1.9584 eV  633.08 nm  f=0.2639  <S**2>=0.000
     235 -> 237       -0.16426
     235 -> 238        0.23147
     236 -> 237        0.63986
 This state for optimization and/or second-order correction.
 Total Energy, E(TD-HF/TD-DFT) =  -2732.91013475
 Copying the excited state density for this state as the 1-particle RhoCI density.

 The electronic state is 1-A.
 Alpha  occ. eigenvalues --  -19.19032 -19.17376 -19.12264 -19.12010 -19.11035
 Alpha  occ. eigenvalues --  -14.36989 -14.36914 -14.32844 -14.30433 -10.31605
 Alpha  occ. eigenvalues --  -10.31136 -10.27171 -10.27123 -10.24935 -10.24103
 Alpha  occ. eigenvalues --  -10.23916 -10.23890 -10.23257 -10.22987 -10.22853
 Alpha  occ. eigenvalues --  -10.22779 -10.22033 -10.21978 -10.21926 -10.21703
 Alpha  occ. eigenvalues --  -10.21655 -10.21610 -10.21328 -10.21275 -10.21033
 Alpha  occ. eigenvalues --  -10.20830 -10.20771 -10.20720 -10.20400 -10.20398
 Alpha  occ. eigenvalues --  -10.20284 -10.20240 -10.20015 -10.19849 -10.19785
 Alpha  occ. eigenvalues --  -10.19730 -10.19690 -10.19656 -10.19633 -10.19551
 Alpha  occ. eigenvalues --  -10.19509 -10.19382 -10.19372 -10.19296 -10.19010
 Alpha  occ. eigenvalues --  -10.18989 -10.18852 -10.18839 -10.18798 -10.18732
 Alpha  occ. eigenvalues --  -10.18645 -10.18623 -10.18574 -10.18526 -10.18338
 Alpha  occ. eigenvalues --  -10.17950 -10.17947 -10.17423 -10.16539  -1.10755
 Alpha  occ. eigenvalues --   -1.07551  -1.01790  -1.00540  -0.99536  -0.98934
 Alpha  occ. eigenvalues --   -0.98134  -0.95140  -0.90605  -0.85437  -0.82865
 Alpha  occ. eigenvalues --   -0.82841  -0.81933  -0.81565  -0.81384  -0.80660
 Alpha  occ. eigenvalues --   -0.80470  -0.79839  -0.79537  -0.79227  -0.77779
 Alpha  occ. eigenvalues --   -0.76971  -0.75906  -0.75140  -0.74883  -0.74104
 Alpha  occ. eigenvalues --   -0.73621  -0.73027  -0.72783  -0.72040  -0.71175
 Alpha  occ. eigenvalues --   -0.70076  -0.69663  -0.68886  -0.67898  -0.67734
 Alpha  occ. eigenvalues --   -0.67411  -0.66478  -0.66358  -0.65701  -0.64633
 Alpha  occ. eigenvalues --   -0.63877  -0.63769  -0.62805  -0.62251  -0.62053
 Alpha  occ. eigenvalues --   -0.60989  -0.59111  -0.58571  -0.58333  -0.57570
 Alpha  occ. eigenvalues --   -0.57253  -0.56749  -0.56287  -0.55908  -0.55813
 Alpha  occ. eigenvalues --   -0.55622  -0.54883  -0.53845  -0.53773  -0.53069
 Alpha  occ. eigenvalues --   -0.52930  -0.52005  -0.51529  -0.50972  -0.50228
 Alpha  occ. eigenvalues --   -0.50122  -0.49562  -0.49347  -0.48810  -0.48397
 Alpha  occ. eigenvalues --   -0.47805  -0.47524  -0.47226  -0.47033  -0.46792
 Alpha  occ. eigenvalues --   -0.46373  -0.46329  -0.46116  -0.45980  -0.45634
 Alpha  occ. eigenvalues --   -0.45211  -0.45080  -0.44851  -0.44630  -0.44385
 Alpha  occ. eigenvalues --   -0.44317  -0.44256  -0.44049  -0.43963  -0.43837
 Alpha  occ. eigenvalues --   -0.43716  -0.43315  -0.43008  -0.42828  -0.42729
 Alpha  occ. eigenvalues --   -0.42416  -0.41993  -0.41644  -0.41633  -0.41298
 Alpha  occ. eigenvalues --   -0.40878  -0.40698  -0.40540  -0.40473  -0.40293
 Alpha  occ. eigenvalues --   -0.40077  -0.39968  -0.39696  -0.39484  -0.39333
 Alpha  occ. eigenvalues --   -0.39161  -0.38850  -0.38743  -0.38567  -0.38546
 Alpha  occ. eigenvalues --   -0.38507  -0.38295  -0.37775  -0.37532  -0.37335
 Alpha  occ. eigenvalues --   -0.37283  -0.37088  -0.36945  -0.36888  -0.36795
 Alpha  occ. eigenvalues --   -0.36329  -0.36228  -0.36079  -0.35901  -0.35769
 Alpha  occ. eigenvalues --   -0.35337  -0.35191  -0.35103  -0.35004  -0.34927
 Alpha  occ. eigenvalues --   -0.34531  -0.34450  -0.34401  -0.34110  -0.33974
 Alpha  occ. eigenvalues --   -0.33686  -0.33471  -0.33361  -0.33208  -0.32719
 Alpha  occ. eigenvalues --   -0.32363  -0.32346  -0.31796  -0.31771  -0.31253
 Alpha  occ. eigenvalues --   -0.31118  -0.30942  -0.30813  -0.30385  -0.29698
 Alpha  occ. eigenvalues --   -0.29118  -0.28503  -0.28279  -0.28156  -0.27702
 Alpha  occ. eigenvalues --   -0.27572  -0.27439  -0.26916  -0.26700  -0.26274
 Alpha  occ. eigenvalues --   -0.24397  -0.23979  -0.23887  -0.22163  -0.19904
 Alpha  occ. eigenvalues --   -0.18762
 Alpha virt. eigenvalues --   -0.10979  -0.07321  -0.05056  -0.02731  -0.00914
 Alpha virt. eigenvalues --   -0.00798  -0.00157   0.01391   0.02005   0.02800
 Alpha virt. eigenvalues --    0.03513   0.03577   0.04016   0.04156   0.04503

 Mulliken charges:
               1
     1  C    0.050929
     2  C    0.022563
     3  C   -0.064600
     4  C   -0.108258
     5  N   -0.158396
     6  C   -0.124311
     7  C   -0.054253
     8  C    0.018533
     9  C   -0.012816
    10  C   -0.029728
    11  C    0.028356
    12  C    0.180852
    13  C    0.134907
    14  O   -0.216470
    15  O   -0.285501
    16  N   -0.090682
    17  C    0.066287
    18  C   -0.064354
    19  C    0.012873
    20  C    0.055883
    21  C   -0.011623
    22  C   -0.074659
    23  C   -0.099983
    24  N   -0.329172
    25  C    0.136596
    26  C   -0.137702
    27  C   -0.162452
    28  C    0.229237
    29  C    0.089359
    30  C    0.279718
    31  C   -0.092876
    32  N    0.123057
    33  C   -0.007636
    34  C   -0.174505
    35  C    0.049312
    36  C   -0.002896
    37  C    0.253041
    38  C    0.081688
    39  O   -0.213878
    40  C   -0.014334
    41  C    0.177793
    42  O   -0.251222
    43  O   -0.325349
    44  C    0.205843
    45  C    0.165622
    46  C   -0.094915
    47  C   -0.120474
    48  C    0.010742
    49  C    0.077556
    50  C    0.073764
    51  C   -0.032657
    52  C    0.067118
    53  C   -0.002703
    54  C   -0.067834
    55  C    0.003239
    56  C   -0.002512
    57  C    0.021100
    58  C   -0.032851
    59  C    0.044401
    60  C    0.006017
    61  C    0.118468
    62  C   -0.112166
    63  C   -0.003557
    64  C   -0.075743
    65  H   -0.077657
    66  H   -0.056281
    67  H   -0.050585
    68  H    0.066942
    69  H    0.002743
    70  H    0.023645
    71  H    0.034701
    72  H    0.041336
    73  H   -0.018036
    74  H    0.008237
    75  H   -0.021505
    76  H   -0.016059
    77  H    0.082525
    78  H    0.021682
    79  H    0.032411
    80  H    0.027811
    81  H    0.049623
    82  H    0.066005
    83  H    0.034225
    84  H    0.010689
    85  H    0.020569
    86  H   -0.017022
    87  H   -0.057822
    88  H    0.015336
    89  H    0.035785
    90  H    0.023564
    91  H   -0.044324
    92  H   -0.008665
    93  H    0.000998
    94  H    0.075337
    95  H    0.056888
    96  H   -0.000062
    97  H    0.041690
    98  H    0.038879
    99  H    0.070890
   100  H   -0.000737
   101  H    0.028983
   102  H    0.041199
   103  H    0.038634
   104  H    0.007200
   105  H   -0.007350
   106  H   -0.013417
   107  H   -0.010679
   108  H   -0.014898
   109  H   -0.020729
   110  H   -0.059203
   111  H    0.015959
   112  H    0.045738
   113  H    0.004953
   114  H    0.010292
   115  H    0.001150
   116  H    0.015279
   117  H    0.000792
   118  H   -0.016079
   119  H   -0.011762
   120  H   -0.047559
   121  H    0.029838
   122  H    0.018894
   123  H    0.011398
   124  H   -0.006411
   125  H   -0.029992
   126  H    0.003686
   127  H    0.001279
   128  H   -0.026511
   129  H   -0.049706
   130  H    0.019453
   131  H   -0.007092
   132  H    0.001728
   133  H    0.018104
   134  H    0.051328
   135  H    0.021488
   136  H    0.049499
   137  H    0.181244
   138  H    0.057731
 Sum of Mulliken charges =  -0.00000

 Dipole moment (field-independent basis, Debye):
    X=              2.7449    Y=              3.0376    Z=             -0.0127  Tot=              4.0941
 Quadrupole moment (field-independent basis, Debye-Ang):
   XX=           -358.4418   YY=           -390.8292   ZZ=           -391.4901
   XY=            -22.2897   XZ=              9.5081   YZ=             -3.2444

 Normal termination of Gaussian 16 at Tue Aug 27 03:31:02 2019.
