 Gaussian 16, Revision A.03,
 Gaussian 16:  ES64L-G16RevA.03 25-Dec-2016

 --------------------------
 # td=(NStates=1) B3LYP/SVP
 --------------------------

 --
 TD
 --
 Symbolic Z-matrix:
 Charge =  0 Multiplicity = 1

                         Standard orientation:
 ---------------------------------------------------------------------
 Center     Atomic      Atomic             Coordinates (Angstroms)
 Number     Number       Type             X           Y           Z
 ---------------------------------------------------------------------
      1          6           0       -5.101662   -1.924922    0.414333
      2          6           0       -4.621128    2.763051    1.358118
      3          6           0       -9.245420    3.319560   -0.121640
      4          6           0       -9.799943   -1.353443   -1.024006
      5          7           0       -5.219071    0.476105    0.781969
      6          6           0       -4.576361   -0.804888    0.757694
      7          6           0       -3.091437   -0.589169    1.357777
      8          6           0       -3.109151    0.834337    1.935810
      9          6           0       -4.420155    1.364109    1.355881
     10          6           0       -3.052688    0.801162    3.533210
     11          6           0       -2.045646   -0.830262    0.200847
     12          6           0       -0.567242   -1.057212    0.660412
     13          6           0        0.329084   -1.242096   -0.485185
     14          8           0        0.009517   -1.480227   -1.598105
     15          8           0        1.576149   -0.987221   -0.158879
     16          7           0       -6.935687    2.782516    0.535497
     17          6           0       -5.867010    3.414045    1.080036
     18          6           0       -6.149087    4.824611    1.184417
     19          6           0       -7.443529    4.905074    0.681935
     20          6           0       -7.945031    3.623107    0.216042
     21          6           0       -5.213168    5.833426    1.732329
     22          6           0       -8.158574    6.169331    0.661107
     23          6           0       -8.923156    6.628080   -0.391959
     24          7           0       -9.070005    0.991297   -0.671639
     25          6           0       -9.767121    2.142949   -0.633096
     26          6           0      -11.135597    2.007750   -1.078970
     27          6           0      -11.382411    0.667595   -1.349228
     28          6           0      -10.105103    0.068028   -1.147423
     29          6           0      -12.079321    3.156264   -1.100212
     30          6           0      -12.552941   -0.059070   -2.015945
     31          6           0      -12.515023   -0.041253   -3.465065
     32          7           0       -7.529218   -1.233965   -0.345792
     33          6           0       -8.510938   -2.010914   -0.781065
     34          6           0       -8.195035   -3.420991   -0.722345
     35          6           0       -6.883247   -3.390417   -0.256629
     36          6           0       -6.441575   -2.038241   -0.106562
     37          6           0       -8.969914   -4.546276   -1.217172
     38          6           0       -5.806735   -4.333540   -0.004816
     39          8           0       -5.769907   -5.548277    0.018514
     40          6           0       -4.533510   -3.316705    0.434262
     41          6           0       -4.026736   -3.861838    1.787206
     42          8           0       -4.318037   -3.493173    2.915354
     43          8           0       -3.184926   -4.892315    1.590914
     44          6           0       -2.605257   -5.512325    2.787493
     45          6           0        2.656752   -1.220370   -1.160898
     46          6           0        3.974679   -0.968410   -0.452482
     47          6           0        4.951007   -0.102191   -0.956210
     48          6           0        4.647669    0.740809   -2.278294
     49          6           0        6.205781    0.222597   -0.227114
     50          6           0        7.450278   -0.378553   -0.909390
     51          6           0        8.769440   -0.240176   -0.097886
     52          6           0       10.062715   -0.791449   -0.747301
     53          6           0       10.106724   -2.281270   -0.956084
     54          6           0       11.320427   -0.323713    0.077951
     55          6           0       12.681042   -0.778757   -0.420701
     56          6           0       13.858592   -0.089406    0.354422
     57          6           0       15.207073   -0.269438   -0.208920
     58          6           0       15.650691   -1.749996   -0.174853
     59          6           0       16.263783    0.664029    0.438479
     60          6           0       17.590069    0.744475   -0.235139
     61          6           0       18.476370    1.889434    0.304575
     62          6           0       20.073815    1.846027   -0.143755
     63          6           0       20.083892    2.389049   -1.608683
     64          6           0       20.993533    2.705940    0.741980
     65          1           0       -4.052723    3.528481    2.081316
     66          1           0       -9.814394    4.184568   -0.334986
     67          1           0      -10.598642   -2.010138   -1.422554
     68          1           0       -2.858412   -1.462228    2.127446
     69          1           0       -2.221774    1.392990    1.463505
     70          1           0       -2.066162    0.433447    4.039718
     71          1           0       -3.206985    1.800192    3.781626
     72          1           0       -3.877351    0.252381    3.990079
     73          1           0       -2.292717   -1.645154   -0.304224
     74          1           0       -2.332339    0.027443   -0.605429
     75          1           0       -0.359288   -0.068937    1.409911
     76          1           0       -0.655649   -1.915744    1.439718
     77          1           0       -4.091360    5.949396    1.205110
     78          1           0       -5.536014    6.857219    1.555309
     79          1           0       -4.896496    5.779105    2.809970
     80          1           0       -8.046977    6.938356    1.821309
     81          1           0       -8.874774    5.927178   -1.323204
     82          1           0       -9.384880    7.623626   -0.275004
     83          1           0      -11.848139    3.869867   -0.267274
     84          1           0      -11.757616    3.632054   -2.138473
     85          1           0      -13.108556    2.915998   -1.260519
     86          1           0      -12.643236   -1.078692   -1.493169
     87          1           0      -13.438233    0.405964   -1.709177
     88          1           0      -12.576404    1.083313   -3.920175
     89          1           0      -11.671914   -0.667286   -3.953768
     90          1           0      -13.525757   -0.616699   -3.958175
     91          1           0      -10.091302   -4.567001   -0.923626
     92          1           0       -9.275045   -4.283943   -2.321146
     93          1           0       -8.271111   -5.401954   -1.244620
     94          1           0       -3.792527   -3.786235   -0.305776
     95          1           0       -2.052247   -6.505830    2.367670
     96          1           0       -1.962238   -4.811989    3.146867
     97          1           0       -3.270192   -5.790895    3.473794
     98          1           0        2.423236   -2.286898   -1.550982
     99          1           0        2.386013   -0.569255   -2.095907
    100          1           0        4.081310   -1.457193    0.383606
    101          1           0        4.647117    1.952193   -2.099320
    102          1           0        5.569989    0.504745   -3.054199
    103          1           0        3.666508    0.315137   -2.817415
    104          1           0        6.365464    1.220375    0.107813
    105          1           0        6.002041   -0.079117    0.963983
    106          1           0        7.233821   -1.426044   -1.225556
    107          1           0        7.684298    0.023020   -1.892171
    108          1           0        8.858216    0.688989    0.183193
    109          1           0        8.722299   -0.890302    0.914809
    110          1           0        9.996861   -0.460933   -1.751370
    111          1           0        9.246354   -2.618517   -1.535135
    112          1           0       10.987430   -2.805693   -1.390562
    113          1           0       10.224624   -2.823932   -0.054926
    114          1           0       11.362391    0.638072    0.405402
    115          1           0       11.312192   -0.695483    1.082303
    116          1           0       12.742589   -1.911074   -0.449673
    117          1           0       12.657083   -0.515429   -1.746237
    118          1           0       13.474532    0.987924    0.432149
    119          1           0       13.795758   -0.393300    1.291886
    120          1           0       15.241284    0.224434   -1.388490
    121          1           0       14.969298   -2.298336   -0.762560
    122          1           0       16.569918   -1.941836   -0.576341
    123          1           0       15.525427   -2.190835    0.816000
    124          1           0       15.787390    1.618136    0.312345
    125          1           0       16.519012    0.567773    1.612728
    126          1           0       17.916951   -0.255113   -0.103412
    127          1           0       17.529613    0.826769   -1.426592
    128          1           0       17.994615    2.900168    0.015855
    129          1           0       18.484605    1.761052    1.567605
    130          1           0       20.471401    0.801120   -0.061917
    131          1           0       19.697763    3.466362   -1.733980
    132          1           0       21.199788    2.251167   -2.040930
    133          1           0       19.407031    1.701196   -2.211128
    134          1           0       20.995945    2.251655    1.755942
    135          1           0       22.065497    2.566293    0.567374
    136          1           0       20.832557    3.732652    0.797240
    137          1           0       -6.972810    1.821939    0.468098
    138          1           0       -7.523837   -0.277995   -0.367928
 ---------------------------------------------------------------------

 SCF Done:  E(RB3LYP) =  -2733.05052542     A.U. after   17 cycles

 Excitation energies and oscillator strengths:

 Excited State   1:      Singlet-A      2.0539 eV  603.64 nm  f=0.1875  <S**2>=0.000
     235 -> 237       -0.18235
     235 -> 238        0.25706
     236 -> 237        0.61908
     236 -> 238        0.11024
 This state for optimization and/or second-order correction.
 Total Energy, E(TD-HF/TD-DFT) =  -2732.97504458
 Copying the excited state density for this state as the 1-particle RhoCI density.

 The electronic state is 1-A.
 Alpha  occ. eigenvalues --  -19.16877 -19.16475 -19.12953 -19.11378 -19.11219
 Alpha  occ. eigenvalues --  -14.37405 -14.36404 -14.32363 -14.30270 -10.30934
 Alpha  occ. eigenvalues --  -10.30398 -10.28330 -10.25924 -10.23930 -10.23900
 Alpha  occ. eigenvalues --  -10.23848 -10.23755 -10.23543 -10.23258 -10.22952
 Alpha  occ. eigenvalues --  -10.22445 -10.22268 -10.21931 -10.21930 -10.21845
 Alpha  occ. eigenvalues --  -10.21626 -10.21585 -10.21503 -10.21399 -10.21308
 Alpha  occ. eigenvalues --  -10.21010 -10.20997 -10.20953 -10.20879 -10.20858
 Alpha  occ. eigenvalues --  -10.20670 -10.20524 -10.20512 -10.20351 -10.20299
 Alpha  occ. eigenvalues --  -10.20216 -10.20150 -10.20088 -10.19975 -10.19821
 Alpha  occ. eigenvalues --  -10.19788 -10.19405 -10.19329 -10.19238 -10.19210
 Alpha  occ. eigenvalues --  -10.19180 -10.19089 -10.18984 -10.18954 -10.18810
 Alpha  occ. eigenvalues --  -10.18586 -10.18396 -10.18250 -10.18084 -10.17850
 Alpha  occ. eigenvalues --  -10.17347 -10.17177 -10.17077 -10.16735  -1.09771
 Alpha  occ. eigenvalues --   -1.08169  -1.02858  -1.00358  -1.00168  -0.99626
 Alpha  occ. eigenvalues --   -0.98628  -0.93036  -0.92526  -0.84905  -0.82476
 Alpha  occ. eigenvalues --   -0.82338  -0.81794  -0.81705  -0.81014  -0.80662
 Alpha  occ. eigenvalues --   -0.79879  -0.79506  -0.78564  -0.78248  -0.77134
 Alpha  occ. eigenvalues --   -0.76471  -0.75832  -0.75508  -0.75122  -0.74786
 Alpha  occ. eigenvalues --   -0.73455  -0.73253  -0.72981  -0.71606  -0.70948
 Alpha  occ. eigenvalues --   -0.70063  -0.69742  -0.68710  -0.68437  -0.67584
 Alpha  occ. eigenvalues --   -0.67346  -0.67110  -0.66432  -0.65512  -0.65079
 Alpha  occ. eigenvalues --   -0.63810  -0.63076  -0.62786  -0.62017  -0.61106
 Alpha  occ. eigenvalues --   -0.60735  -0.59374  -0.58852  -0.57631  -0.57484
 Alpha  occ. eigenvalues --   -0.57169  -0.56859  -0.56780  -0.55929  -0.55046
 Alpha  occ. eigenvalues --   -0.54902  -0.54602  -0.54283  -0.53588  -0.53068
 Alpha  occ. eigenvalues --   -0.52776  -0.51633  -0.50938  -0.50165  -0.49684
 Alpha  occ. eigenvalues --   -0.49461  -0.49065  -0.48898  -0.48414  -0.48246
 Alpha  occ. eigenvalues --   -0.47228  -0.47153  -0.46992  -0.46720  -0.46532
 Alpha  occ. eigenvalues --   -0.46439  -0.46240  -0.45907  -0.45860  -0.45544
 Alpha  occ. eigenvalues --   -0.45424  -0.45177  -0.44845  -0.44772  -0.44545
 Alpha  occ. eigenvalues --   -0.44191  -0.44115  -0.44007  -0.43781  -0.43582
 Alpha  occ. eigenvalues --   -0.43059  -0.42936  -0.42891  -0.42632  -0.42551
 Alpha  occ. eigenvalues --   -0.42465  -0.42241  -0.41588  -0.41364  -0.41191
 Alpha  occ. eigenvalues --   -0.41160  -0.40856  -0.40754  -0.40713  -0.40211
 Alpha  occ. eigenvalues --   -0.40064  -0.39901  -0.39666  -0.39656  -0.39266
 Alpha  occ. eigenvalues --   -0.38921  -0.38755  -0.38557  -0.38482  -0.38162
 Alpha  occ. eigenvalues --   -0.38102  -0.37888  -0.37650  -0.37567  -0.37529
 Alpha  occ. eigenvalues --   -0.37429  -0.37132  -0.37074  -0.36954  -0.36795
 Alpha  occ. eigenvalues --   -0.36633  -0.36374  -0.36308  -0.35900  -0.35718
 Alpha  occ. eigenvalues --   -0.35337  -0.35055  -0.34854  -0.34707  -0.34579
 Alpha  occ. eigenvalues --   -0.34531  -0.34325  -0.34046  -0.33842  -0.33606
 Alpha  occ. eigenvalues --   -0.33594  -0.33274  -0.32991  -0.32623  -0.32599
 Alpha  occ. eigenvalues --   -0.32369  -0.31551  -0.31333  -0.31052  -0.30519
 Alpha  occ. eigenvalues --   -0.30400  -0.30303  -0.30120  -0.29886  -0.29731
 Alpha  occ. eigenvalues --   -0.29570  -0.29448  -0.28600  -0.28491  -0.27866
 Alpha  occ. eigenvalues --   -0.27783  -0.27192  -0.26720  -0.26410  -0.26127
 Alpha  occ. eigenvalues --   -0.24915  -0.24808  -0.24370  -0.22819  -0.19935
 Alpha  occ. eigenvalues --   -0.19326
 Alpha virt. eigenvalues --   -0.10683  -0.07805  -0.04616  -0.02207  -0.01835
 Alpha virt. eigenvalues --   -0.00315   0.00512   0.00876   0.02014   0.02161
 Alpha virt. eigenvalues --    0.03516   0.03870   0.04163   0.04356   0.04668

 Mulliken charges:
               1
     1  C    0.129583
     2  C   -0.047252
     3  C   -0.058024
     4  C   -0.031846
     5  N   -0.208332
     6  C   -0.082199
     7  C   -0.100802
     8  C   -0.014016
     9  C   -0.001206
    10  C    0.079671
    11  C    0.056430
    12  C   -0.050366
    13  C    0.196788
    14  O   -0.213291
    15  O   -0.312477
    16  N    0.016331
    17  C   -0.007827
    18  C   -0.035486
    19  C   -0.006886
    20  C    0.085102
    21  C    0.009805
    22  C   -0.134736
    23  C   -0.051254
    24  N   -0.287678
    25  C    0.073915
    26  C   -0.136837
    27  C   -0.109841
    28  C    0.046437
    29  C    0.090249
    30  C    0.139401
    31  C   -0.069719
    32  N    0.073004
    33  C    0.009917
    34  C   -0.106474
    35  C   -0.034029
    36  C    0.060546
    37  C    0.072604
    38  C    0.062086
    39  O   -0.163485
    40  C   -0.115572
    41  C    0.193847
    42  O   -0.246138
    43  O   -0.320969
    44  C    0.250779
    45  C    0.198176
    46  C    0.033085
    47  C   -0.104662
    48  C   -0.051603
    49  C    0.055602
    50  C    0.027773
    51  C    0.066470
    52  C    0.006777
    53  C    0.033599
    54  C    0.111945
    55  C   -0.078561
    56  C    0.103488
    57  C   -0.108656
    58  C    0.119314
    59  C    0.020930
    60  C    0.029332
    61  C   -0.044122
    62  C   -0.079816
    63  C   -0.030031
    64  C    0.068941
    65  H    0.020851
    66  H   -0.048078
    67  H   -0.015887
    68  H    0.027144
    69  H    0.019821
    70  H    0.032272
    71  H   -0.019374
    72  H    0.027282
    73  H   -0.033071
    74  H    0.018773
    75  H    0.053276
    76  H    0.048631
    77  H    0.041204
    78  H    0.013201
    79  H    0.043184
    80  H    0.050648
    81  H    0.065529
    82  H    0.040468
    83  H    0.050435
    84  H    0.031241
    85  H    0.002567
    86  H    0.013232
    87  H   -0.026757
    88  H    0.038660
    89  H    0.034337
    90  H    0.020600
    91  H    0.034061
    92  H    0.025580
    93  H    0.056059
    94  H    0.072077
    95  H    0.050125
    96  H    0.000856
    97  H    0.007433
    98  H    0.036982
    99  H    0.041465
   100  H   -0.068112
   101  H    0.059352
   102  H    0.039804
   103  H    0.040819
   104  H   -0.004997
   105  H    0.004120
   106  H    0.002496
   107  H   -0.006110
   108  H   -0.050987
   109  H   -0.001825
   110  H   -0.027164
   111  H    0.002863
   112  H    0.005442
   113  H   -0.024828
   114  H   -0.060499
   115  H   -0.040218
   116  H    0.017683
   117  H   -0.003353
   118  H   -0.003154
   119  H   -0.050602
   120  H    0.008110
   121  H   -0.016316
   122  H   -0.014391
   123  H   -0.002056
   124  H   -0.027114
   125  H    0.004304
   126  H   -0.021644
   127  H    0.002796
   128  H    0.019151
   129  H    0.009855
   130  H    0.003970
   131  H    0.028613
   132  H    0.021486
   133  H    0.016317
   134  H   -0.007330
   135  H   -0.006741
   136  H   -0.002942
   137  H    0.098708
   138  H    0.101929
 Sum of Mulliken charges =  -0.00000

 Dipole moment (field-independent basis, Debye):
    X=              1.3972    Y=              4.0054    Z=              0.6044  Tot=              4.2849
 Quadrupole moment (field-independent basis, Debye-Ang):
   XX=           -340.0906   YY=           -380.7882   ZZ=           -395.4958
   XY=            -32.2315   XZ=             22.2711   YZ=              4.0871

 Normal termination of Gaussian 16 at Tue Aug 27 23:53:23 2019.
