 Gaussian 16, Revision A.03,
 Gaussian 16:  ES64L-G16RevA.03 25-Dec-2016

 --------------------------
 # td=(NStates=1) B3LYP/SVP
 --------------------------

 --
 TD
 --
 Symbolic Z-matrix:
 Charge =  0 Multiplicity = 1

                         Standard orientation:
 ---------------------------------------------------------------------
 Center     Atomic      Atomic             Coordinates (Angstroms)
 Number     Number       Type             X           Y           Z
 ---------------------------------------------------------------------
      1          6           0       -5.106453   -1.985371    0.409673
      2          6           0       -4.710635    2.903768    1.331869
      3          6           0       -9.395454    3.184810   -0.200241
      4          6           0       -9.915062   -1.528754   -0.858370
      5          7           0       -5.213052    0.506690    0.822233
      6          6           0       -4.596336   -0.644643    0.831878
      7          6           0       -3.211879   -0.536561    1.266138
      8          6           0       -3.055944    0.911428    1.816436
      9          6           0       -4.403055    1.472678    1.240765
     10          6           0       -2.938756    1.170240    3.289615
     11          6           0       -2.077692   -0.721090    0.119787
     12          6           0       -0.589790   -0.612583    0.474211
     13          6           0        0.474490   -0.811801   -0.538113
     14          8           0        0.153014   -1.241549   -1.637444
     15          8           0        1.623139   -0.476775   -0.139716
     16          7           0       -7.007253    2.709737    0.441891
     17          6           0       -5.912205    3.447989    0.966632
     18          6           0       -6.261145    4.752594    1.003390
     19          6           0       -7.615731    4.903338    0.553092
     20          6           0       -8.032652    3.576600    0.129442
     21          6           0       -5.312791    5.872782    1.352545
     22          6           0       -8.370729    6.194437    0.508560
     23          6           0       -9.223779    6.408354   -0.473815
     24          7           0       -9.289011    0.690948   -0.470639
     25          6           0       -9.906330    1.979342   -0.488692
     26          6           0      -11.309040    1.682874   -0.879794
     27          6           0      -11.325001    0.426934   -1.197774
     28          6           0      -10.148953   -0.224762   -0.851808
     29          6           0      -12.258331    2.874795   -1.166687
     30          6           0      -12.655064   -0.326863   -1.748642
     31          6           0      -12.510825   -0.888393   -3.215783
     32          7           0       -7.600743   -1.300621   -0.257480
     33          6           0       -8.680057   -2.101337   -0.643534
     34          6           0       -8.278510   -3.445663   -0.627721
     35          6           0       -6.849723   -3.489404   -0.238209
     36          6           0       -6.495041   -2.117975   -0.064914
     37          6           0       -9.080965   -4.661483   -0.871254
     38          6           0       -5.712209   -4.353174   -0.004620
     39          8           0       -5.566914   -5.524899   -0.029240
     40          6           0       -4.480669   -3.335258    0.466640
     41          6           0       -3.909141   -3.856904    1.697951
     42          8           0       -4.254932   -3.462076    2.891770
     43          8           0       -3.044058   -4.766354    1.609089
     44          6           0       -2.348501   -5.418129    2.699014
     45          6           0        2.695973   -0.815437   -1.226008
     46          6           0        4.058043   -0.403627   -0.558429
     47          6           0        5.040837    0.325850   -1.041279
     48          6           0        4.978391    1.031083   -2.428598
     49          6           0        6.317207    0.443870   -0.162312
     50          6           0        7.565444   -0.068426   -0.952548
     51          6           0        8.734570   -0.129066   -0.035629
     52          6           0       10.025911   -0.473718   -0.717073
     53          6           0       10.000292   -2.022069   -1.157219
     54          6           0       11.220105   -0.203652    0.232800
     55          6           0       12.620153   -0.452555   -0.508903
     56          6           0       13.815780    0.011193    0.201122
     57          6           0       15.231671   -0.130008   -0.392635
     58          6           0       15.610441   -1.586078   -0.780248
     59          6           0       16.345072    0.474840    0.461589
     60          6           0       17.721587    0.573166   -0.254665
     61          6           0       18.756151    1.238464    0.670558
     62          6           0       20.185101    1.241016    0.106726
     63          6           0       20.187767    1.858405   -1.252822
     64          6           0       21.153378    2.024645    1.121103
     65          1           0       -3.989145    3.542824    1.565539
     66          1           0      -10.156483    3.900688   -0.298844
     67          1           0      -10.595695   -2.274486   -1.252095
     68          1           0       -2.968829   -1.243080    2.140923
     69          1           0       -2.356661    1.296389    1.472061
     70          1           0       -1.921643    0.725745    3.763810
     71          1           0       -3.012861    2.211325    3.604670
     72          1           0       -3.511189    0.643796    3.829250
     73          1           0       -2.263838   -1.884791   -0.433240
     74          1           0       -2.430091   -0.300005   -0.843697
     75          1           0       -0.614949    0.542370    0.873930
     76          1           0       -0.525817   -1.219775    1.406886
     77          1           0       -4.589363    5.683164    0.638971
     78          1           0       -5.892377    6.867106    1.246269
     79          1           0       -4.781270    5.536352    2.357924
     80          1           0       -7.852534    7.051687    1.060053
     81          1           0       -9.657526    5.738689   -1.286753
     82          1           0       -9.920256    7.405585   -0.472433
     83          1           0      -12.384035    3.535317   -0.371768
     84          1           0      -12.003405    3.537401   -2.090230
     85          1           0      -13.287856    2.381422   -1.146803
     86          1           0      -12.919147   -1.238403   -1.025415
     87          1           0      -13.452569    0.511473   -1.577325
     88          1           0      -12.360529   -0.021463   -3.913520
     89          1           0      -11.700327   -1.555147   -3.532366
     90          1           0      -13.524965   -1.304659   -3.401159
     91          1           0       -9.932543   -4.644743   -0.042860
     92          1           0       -9.676171   -4.512887   -1.807161
     93          1           0       -8.615999   -5.693183   -0.869198
     94          1           0       -3.625852   -3.573954   -0.215319
     95          1           0       -1.482733   -6.021922    2.211381
     96          1           0       -1.769243   -4.533677    3.289232
     97          1           0       -3.155362   -5.806290    3.404437
     98          1           0        2.677717   -1.777233   -1.315862
     99          1           0        2.393629   -0.308829   -2.136323
    100          1           0        4.190914   -0.953941    0.458547
    101          1           0        5.332454    2.070917   -2.112606
    102          1           0        5.723934    0.793796   -3.142869
    103          1           0        3.882526    0.854153   -3.017951
    104          1           0        6.337919    1.620688    0.112570
    105          1           0        6.050359   -0.139133    0.821899
    106          1           0        7.357273   -1.048562   -1.526661
    107          1           0        7.806365    0.445541   -2.015538
    108          1           0        8.891412    1.003724    0.537597
    109          1           0        8.644408   -0.784267    0.926564
    110          1           0       10.053181    0.267116   -1.762856
    111          1           0        9.080838   -2.171856   -1.813345
    112          1           0       10.935735   -2.242974   -1.846858
    113          1           0       10.177198   -2.569686   -0.195486
    114          1           0       11.242454    0.830121    0.597377
    115          1           0       11.132036   -0.861398    1.091679
    116          1           0       12.739141   -1.501653   -0.561162
    117          1           0       12.242209   -0.050724   -1.527169
    118          1           0       13.780203    1.172644    0.222877
    119          1           0       13.685782   -0.395927    1.221009
    120          1           0       15.349657    0.368185   -1.282323
    121          1           0       14.999820   -1.927890   -1.531845
    122          1           0       16.574530   -1.837363   -1.173404
    123          1           0       15.500290   -2.281610    0.177290
    124          1           0       16.111535    1.562504    0.683775
    125          1           0       16.423813   -0.027172    1.440455
    126          1           0       17.970590   -0.395507   -0.340580
    127          1           0       17.654548    1.118659   -1.259904
    128          1           0       18.472874    2.280320    0.891306
    129          1           0       18.670839    0.850018    1.646944
    130          1           0       20.498385    0.089834    0.166784
    131          1           0       19.856120    2.941462   -0.960765
    132          1           0       21.336442    1.951711   -1.719360
    133          1           0       19.663574    1.199856   -2.167650
    134          1           0       21.023805    1.634245    2.193734
    135          1           0       22.095454    1.958612    0.571589
    136          1           0       21.049561    3.175994    1.219979
    137          1           0       -7.119339    1.670971    0.530967
    138          1           0       -7.430009   -0.186521   -0.174449
 ---------------------------------------------------------------------

 SCF Done:  E(RB3LYP) =  -2732.97181170     A.U. after   19 cycles

 Excitation energies and oscillator strengths:

 Excited State   1:      Singlet-A      1.9618 eV  632.01 nm  f=0.1760  <S**2>=0.000
     235 -> 237       -0.20465
     235 -> 238        0.25887
     236 -> 237        0.61029
     236 -> 238        0.13728
 This state for optimization and/or second-order correction.
 Total Energy, E(TD-HF/TD-DFT) =  -2732.89971843
 Copying the excited state density for this state as the 1-particle RhoCI density.

 The electronic state is 1-A.
 Alpha  occ. eigenvalues --  -19.18722 -19.17975 -19.12605 -19.10664 -19.08467
 Alpha  occ. eigenvalues --  -14.36758 -14.36440 -14.32879 -14.28713 -10.30678
 Alpha  occ. eigenvalues --  -10.30176 -10.28148 -10.27293 -10.25385 -10.24118
 Alpha  occ. eigenvalues --  -10.23416 -10.23412 -10.23346 -10.23250 -10.22296
 Alpha  occ. eigenvalues --  -10.22081 -10.22080 -10.21658 -10.21658 -10.21305
 Alpha  occ. eigenvalues --  -10.21228 -10.21069 -10.21044 -10.21038 -10.20984
 Alpha  occ. eigenvalues --  -10.20947 -10.20852 -10.20800 -10.20747 -10.20690
 Alpha  occ. eigenvalues --  -10.20656 -10.20589 -10.20574 -10.20420 -10.20189
 Alpha  occ. eigenvalues --  -10.20082 -10.19955 -10.19916 -10.19662 -10.19594
 Alpha  occ. eigenvalues --  -10.19459 -10.19367 -10.19234 -10.19154 -10.19078
 Alpha  occ. eigenvalues --  -10.18874 -10.18824 -10.18715 -10.18595 -10.18224
 Alpha  occ. eigenvalues --  -10.18062 -10.17877 -10.17859 -10.17582 -10.17548
 Alpha  occ. eigenvalues --  -10.17286 -10.17274 -10.17228 -10.17141  -1.11041
 Alpha  occ. eigenvalues --   -1.10797  -1.04675  -0.99431  -0.97118  -0.96575
 Alpha  occ. eigenvalues --   -0.96074  -0.93884  -0.93712  -0.83729  -0.82703
 Alpha  occ. eigenvalues --   -0.81978  -0.81780  -0.81062  -0.80958  -0.80688
 Alpha  occ. eigenvalues --   -0.80105  -0.79817  -0.79399  -0.77835  -0.77538
 Alpha  occ. eigenvalues --   -0.76908  -0.76573  -0.76143  -0.74789  -0.74498
 Alpha  occ. eigenvalues --   -0.73583  -0.72988  -0.72328  -0.71600  -0.70446
 Alpha  occ. eigenvalues --   -0.70121  -0.69122  -0.68785  -0.68301  -0.67932
 Alpha  occ. eigenvalues --   -0.67091  -0.66446  -0.66013  -0.65798  -0.65394
 Alpha  occ. eigenvalues --   -0.64388  -0.62728  -0.62248  -0.61784  -0.60979
 Alpha  occ. eigenvalues --   -0.60379  -0.59471  -0.59069  -0.57891  -0.56996
 Alpha  occ. eigenvalues --   -0.56863  -0.56088  -0.55616  -0.55333  -0.54738
 Alpha  occ. eigenvalues --   -0.54428  -0.54354  -0.53928  -0.53448  -0.53285
 Alpha  occ. eigenvalues --   -0.52869  -0.52076  -0.51676  -0.50901  -0.50129
 Alpha  occ. eigenvalues --   -0.49612  -0.49091  -0.48955  -0.48896  -0.48442
 Alpha  occ. eigenvalues --   -0.47652  -0.47508  -0.47175  -0.46915  -0.46881
 Alpha  occ. eigenvalues --   -0.46707  -0.46271  -0.46137  -0.45689  -0.45521
 Alpha  occ. eigenvalues --   -0.45327  -0.44889  -0.44797  -0.44362  -0.44272
 Alpha  occ. eigenvalues --   -0.44157  -0.44104  -0.43985  -0.43741  -0.43452
 Alpha  occ. eigenvalues --   -0.43164  -0.43090  -0.42925  -0.42668  -0.42484
 Alpha  occ. eigenvalues --   -0.42399  -0.42230  -0.42191  -0.41435  -0.41306
 Alpha  occ. eigenvalues --   -0.41191  -0.40978  -0.40914  -0.40741  -0.40438
 Alpha  occ. eigenvalues --   -0.40342  -0.40247  -0.39915  -0.39788  -0.39519
 Alpha  occ. eigenvalues --   -0.39294  -0.39092  -0.38739  -0.38672  -0.38610
 Alpha  occ. eigenvalues --   -0.38431  -0.38165  -0.38124  -0.37846  -0.37762
 Alpha  occ. eigenvalues --   -0.37681  -0.37135  -0.37049  -0.36826  -0.36632
 Alpha  occ. eigenvalues --   -0.36520  -0.36455  -0.36348  -0.36277  -0.36133
 Alpha  occ. eigenvalues --   -0.35425  -0.35377  -0.34756  -0.34480  -0.34170
 Alpha  occ. eigenvalues --   -0.34101  -0.33921  -0.33703  -0.33446  -0.33287
 Alpha  occ. eigenvalues --   -0.33188  -0.33025  -0.33011  -0.32858  -0.32125
 Alpha  occ. eigenvalues --   -0.31939  -0.31856  -0.31535  -0.31019  -0.30973
 Alpha  occ. eigenvalues --   -0.30846  -0.30793  -0.30569  -0.29908  -0.29554
 Alpha  occ. eigenvalues --   -0.28792  -0.28587  -0.28480  -0.27862  -0.27389
 Alpha  occ. eigenvalues --   -0.26993  -0.26466  -0.25804  -0.25128  -0.24801
 Alpha  occ. eigenvalues --   -0.24231  -0.24009  -0.23538  -0.23178  -0.19625
 Alpha  occ. eigenvalues --   -0.18694
 Alpha virt. eigenvalues --   -0.10722  -0.07259  -0.04369  -0.01949  -0.00123
 Alpha virt. eigenvalues --    0.00150   0.00637   0.01161   0.02666   0.02765
 Alpha virt. eigenvalues --    0.03700   0.03995   0.04005   0.04067   0.04468

 Mulliken charges:
               1
     1  C    0.051335
     2  C   -0.037431
     3  C   -0.036267
     4  C   -0.141968
     5  N   -0.105734
     6  C   -0.011002
     7  C   -0.088750
     8  C    0.199306
     9  C   -0.060709
    10  C    0.131664
    11  C   -0.056896
    12  C    0.022233
    13  C    0.172608
    14  O   -0.275021
    15  O   -0.272762
    16  N   -0.119759
    17  C    0.164265
    18  C   -0.169620
    19  C   -0.034538
    20  C    0.113326
    21  C    0.120426
    22  C    0.008454
    23  C   -0.098140
    24  N   -0.250362
    25  C    0.037618
    26  C   -0.130032
    27  C   -0.074870
    28  C    0.152856
    29  C    0.093091
    30  C   -0.000013
    31  C   -0.004506
    32  N   -0.138328
    33  C    0.117685
    34  C   -0.117450
    35  C   -0.019144
    36  C    0.037724
    37  C    0.052939
    38  C    0.046979
    39  O   -0.123171
    40  C   -0.050266
    41  C    0.153667
    42  O   -0.351040
    43  O   -0.227356
    44  C    0.132760
    45  C    0.355322
    46  C   -0.143554
    47  C   -0.120581
    48  C    0.034820
    49  C    0.037509
    50  C   -0.026024
    51  C    0.006407
    52  C   -0.165487
    53  C   -0.006793
    54  C    0.031567
    55  C    0.023593
    56  C    0.057817
    57  C    0.025516
    58  C    0.018154
    59  C   -0.019375
    60  C    0.073275
    61  C    0.041394
    62  C   -0.097923
    63  C   -0.065727
    64  C   -0.002819
    65  H   -0.091298
    66  H   -0.064130
    67  H   -0.033901
    68  H    0.031648
    69  H   -0.166709
    70  H    0.000737
    71  H    0.009290
    72  H   -0.047681
    73  H    0.008417
    74  H    0.010331
    75  H    0.045341
    76  H    0.034511
    77  H    0.013538
    78  H    0.039211
    79  H    0.040740
    80  H    0.026129
    81  H    0.055068
    82  H    0.033388
    83  H   -0.000929
    84  H    0.050146
    85  H    0.003817
    86  H    0.024136
    87  H    0.015992
    88  H    0.012733
    89  H    0.028444
    90  H    0.020640
    91  H    0.040004
    92  H    0.025964
    93  H    0.058766
    94  H    0.046113
    95  H    0.067693
    96  H    0.043454
    97  H    0.073921
    98  H   -0.022673
    99  H    0.033977
   100  H    0.015321
   101  H    0.024828
   102  H    0.019007
   103  H    0.049300
   104  H    0.037965
   105  H    0.029085
   106  H    0.013920
   107  H    0.012766
   108  H    0.008811
   109  H    0.010575
   110  H    0.012352
   111  H    0.028355
   112  H    0.031251
   113  H    0.024560
   114  H   -0.005159
   115  H   -0.013228
   116  H   -0.013556
   117  H    0.007090
   118  H   -0.004188
   119  H   -0.003606
   120  H   -0.047148
   121  H   -0.014407
   122  H   -0.002527
   123  H    0.002427
   124  H   -0.013985
   125  H   -0.011703
   126  H   -0.039512
   127  H    0.018401
   128  H   -0.027373
   129  H   -0.035171
   130  H    0.009347
   131  H    0.032446
   132  H    0.019299
   133  H    0.055291
   134  H    0.031222
   135  H    0.010419
   136  H    0.011167
   137  H    0.161232
   138  H    0.217407
 Sum of Mulliken charges =  -0.00000

 Dipole moment (field-independent basis, Debye):
    X=              4.5281    Y=              3.3669    Z=             -0.6571  Tot=              5.6808
 Quadrupole moment (field-independent basis, Debye-Ang):
   XX=           -356.0437   YY=           -381.2510   ZZ=           -397.0224
   XY=            -25.9784   XZ=             12.5967   YZ=              0.3151

 Normal termination of Gaussian 16 at Fri Aug 30 04:19:44 2019.
