 Gaussian 16, Revision A.03,
 Gaussian 16:  ES64L-G16RevA.03 25-Dec-2016

 --------------------------
 # td=(NStates=1) B3LYP/SVP
 --------------------------

 --
 TD
 --
 Symbolic Z-matrix:
 Charge =  0 Multiplicity = 1

                         Standard orientation:
 ---------------------------------------------------------------------
 Center     Atomic      Atomic             Coordinates (Angstroms)
 Number     Number       Type             X           Y           Z
 ---------------------------------------------------------------------
      1          6           0       -5.107909   -1.897390    0.357611
      2          6           0       -4.673496    2.751487    1.412735
      3          6           0       -9.290673    3.411921   -0.230458
      4          6           0       -9.830403   -1.322446   -0.999742
      5          7           0       -5.203542    0.483585    0.800842
      6          6           0       -4.551470   -0.779522    0.817471
      7          6           0       -3.113307   -0.590195    1.253711
      8          6           0       -3.080526    0.907434    1.894835
      9          6           0       -4.385929    1.427441    1.343504
     10          6           0       -3.105656    0.906096    3.375679
     11          6           0       -2.113526   -0.817726    0.222265
     12          6           0       -0.644207   -1.013467    0.705100
     13          6           0        0.388399   -1.106837   -0.624912
     14          8           0       -0.008563   -1.449764   -1.716396
     15          8           0        1.671725   -0.993814   -0.163570
     16          7           0       -7.001955    2.737112    0.420037
     17          6           0       -5.898321    3.383885    0.979642
     18          6           0       -6.268983    4.825094    1.085048
     19          6           0       -7.388238    5.015250    0.545856
     20          6           0       -7.999682    3.724128    0.129880
     21          6           0       -5.211602    5.851736    1.574006
     22          6           0       -8.087086    6.364660    0.381642
     23          6           0       -9.010215    6.703929   -0.573560
     24          7           0       -9.175836    0.923406   -0.340809
     25          6           0       -9.827418    2.103627   -0.450303
     26          6           0      -11.249362    1.943993   -0.888983
     27          6           0      -11.342313    0.609632   -1.201556
     28          6           0      -10.070041   -0.032559   -0.758345
     29          6           0      -12.156752    3.060760   -1.126381
     30          6           0      -12.595714   -0.033752   -1.746380
     31          6           0      -12.622404   -0.357871   -3.182617
     32          7           0       -7.495027   -1.280271   -0.182076
     33          6           0       -8.671510   -2.003887   -0.558566
     34          6           0       -8.235383   -3.395888   -0.587328
     35          6           0       -6.923888   -3.406898   -0.336865
     36          6           0       -6.503725   -2.030810    0.023931
     37          6           0       -9.157920   -4.533302   -1.000737
     38          6           0       -5.737945   -4.215699   -0.170725
     39          8           0       -5.684131   -5.428087   -0.193814
     40          6           0       -4.551132   -3.388869    0.344858
     41          6           0       -3.988772   -3.876033    1.659868
     42          8           0       -4.225641   -3.456936    2.750848
     43          8           0       -3.337202   -4.996736    1.460014
     44          6           0       -2.738775   -5.635295    2.657958
     45          6           0        2.724428   -1.016439   -1.026273
     46          6           0        4.001198   -0.601469   -0.454814
     47          6           0        5.063691    0.050790   -0.998578
     48          6           0        4.948488    0.679390   -2.350666
     49          6           0        6.324594    0.216042   -0.293341
     50          6           0        7.519825   -0.681600   -0.801086
     51          6           0        8.834663   -0.279651   -0.094256
     52          6           0       10.144981   -0.940511   -0.848441
     53          6           0       10.050154   -2.369163   -0.936978
     54          6           0       11.278892   -0.493016   -0.111327
     55          6           0       12.698011   -0.632441   -0.677719
     56          6           0       13.866488   -0.091437    0.179946
     57          6           0       15.343000   -0.240551   -0.329916
     58          6           0       15.712220   -1.680795   -0.391342
     59          6           0       16.376437    0.589770    0.574650
     60          6           0       17.691353    0.863860   -0.207296
     61          6           0       18.671284    1.604436    0.710348
     62          6           0       20.001128    1.817157    0.066449
     63          6           0       20.001914    2.353137   -1.388022
     64          6           0       20.874152    2.831456    0.971298
     65          1           0       -3.885666    3.296589    1.849573
     66          1           0       -9.925428    4.280454   -0.306472
     67          1           0      -10.773420   -1.863611   -1.412158
     68          1           0       -2.779455   -1.273115    2.171976
     69          1           0       -2.153888    1.649523    1.550792
     70          1           0       -2.316362    0.241405    3.610429
     71          1           0       -3.185187    1.935651    3.725622
     72          1           0       -4.001013    0.448774    3.791736
     73          1           0       -2.500560   -1.893714   -0.322182
     74          1           0       -2.177729   -0.010858   -0.616531
     75          1           0       -0.304971   -0.183689    1.346513
     76          1           0       -0.711441   -1.981682    1.248029
     77          1           0       -4.411180    5.845242    0.887609
     78          1           0       -5.622615    6.839496    1.633895
     79          1           0       -4.701777    5.639746    2.366159
     80          1           0       -7.979435    6.978741    1.426837
     81          1           0       -9.274711    6.302351   -1.640611
     82          1           0       -9.564772    7.623994   -0.632234
     83          1           0      -12.457464    3.650427   -0.355914
     84          1           0      -11.615311    3.938495   -1.731658
     85          1           0      -12.945421    2.749912   -1.925327
     86          1           0      -12.886757   -0.990145   -1.331205
     87          1           0      -13.478640    0.366650   -1.351054
     88          1           0      -12.475399    0.536249   -3.957212
     89          1           0      -11.711997   -0.832442   -3.445488
     90          1           0      -13.464827   -0.923424   -3.550013
     91          1           0       -9.893291   -4.962851   -0.338834
     92          1           0       -9.511439   -4.144706   -1.986913
     93          1           0       -8.301193   -5.342112   -1.105347
     94          1           0       -3.927830   -3.538328   -0.396114
     95          1           0       -2.307333   -6.626493    2.320317
     96          1           0       -2.073215   -5.081153    3.303522
     97          1           0       -3.507118   -6.046460    3.456029
     98          1           0        2.749194   -2.118698   -1.475498
     99          1           0        2.361201   -0.604591   -1.908171
    100          1           0        3.991901   -0.881681    0.594929
    101          1           0        5.203497    1.649480   -2.403481
    102          1           0        5.550579    0.044943   -3.213627
    103          1           0        3.902547    0.685379   -2.779892
    104          1           0        6.668697    1.389994   -0.441601
    105          1           0        6.364064   -0.021247    0.747064
    106          1           0        7.387822   -1.761563   -0.678250
    107          1           0        7.800927   -0.449635   -1.921715
    108          1           0        9.182186    0.618464    0.220105
    109          1           0        8.895614   -0.756545    0.889807
    110          1           0        9.958533   -0.352934   -1.637824
    111          1           0        9.420585   -2.692719   -1.682486
    112          1           0       11.182182   -2.697407   -1.079106
    113          1           0        9.675784   -2.853883    0.064118
    114          1           0       11.208233    0.706804    0.020699
    115          1           0       11.248161   -0.992745    0.891922
    116          1           0       12.955886   -1.762451   -0.858330
    117          1           0       12.755336   -0.095018   -1.649798
    118          1           0       13.795441    0.834145    0.287156
    119          1           0       13.690752   -0.803915    1.035092
    120          1           0       15.270194   -0.032793   -1.609458
    121          1           0       14.987762   -2.197799   -1.036687
    122          1           0       16.775681   -1.790700   -0.776348
    123          1           0       15.738666   -2.102921    0.664282
    124          1           0       15.871376    1.547799    0.876214
    125          1           0       16.594388   -0.060370    1.629478
    126          1           0       18.255484   -0.107899   -0.290482
    127          1           0       17.532382    1.404517   -1.207275
    128          1           0       18.187290    2.504817    0.893096
    129          1           0       18.967887    1.017551    1.691826
    130          1           0       20.658430    0.873006    0.025042
    131          1           0       19.552426    3.387926   -1.400847
    132          1           0       21.066119    2.625351   -1.749670
    133          1           0       19.469986    1.853735   -2.049332
    134          1           0       20.745210    2.430739    1.936038
    135          1           0       21.969699    3.070511    0.451450
    136          1           0       20.324891    3.856349    0.940364
    137          1           0       -7.168514    1.679650    0.318190
    138          1           0       -7.402724   -0.306233   -0.118054
 ---------------------------------------------------------------------

 SCF Done:  E(RB3LYP) =  -2733.03157885     A.U. after   16 cycles

 Excitation energies and oscillator strengths:

 Excited State   1:      Singlet-A      2.1949 eV  564.88 nm  f=0.1856  <S**2>=0.000
     235 -> 238        0.29462
     236 -> 237        0.63859
 This state for optimization and/or second-order correction.
 Total Energy, E(TD-HF/TD-DFT) =  -2732.95091838
 Copying the excited state density for this state as the 1-particle RhoCI density.

 The electronic state is 1-A.
 Alpha  occ. eigenvalues --  -19.18573 -19.18144 -19.14079 -19.11692 -19.11017
 Alpha  occ. eigenvalues --  -14.37254 -14.37243 -14.31694 -14.30333 -10.33085
 Alpha  occ. eigenvalues --  -10.31018 -10.26818 -10.25578 -10.25131 -10.24648
 Alpha  occ. eigenvalues --  -10.23969 -10.23322 -10.23185 -10.22971 -10.22356
 Alpha  occ. eigenvalues --  -10.22001 -10.21667 -10.21411 -10.21339 -10.21012
 Alpha  occ. eigenvalues --  -10.20764 -10.20720 -10.20656 -10.20587 -10.20574
 Alpha  occ. eigenvalues --  -10.20512 -10.20469 -10.20408 -10.20397 -10.20354
 Alpha  occ. eigenvalues --  -10.20300 -10.20287 -10.20208 -10.19988 -10.19785
 Alpha  occ. eigenvalues --  -10.19632 -10.19513 -10.19370 -10.19314 -10.19249
 Alpha  occ. eigenvalues --  -10.19148 -10.19079 -10.18824 -10.18762 -10.18656
 Alpha  occ. eigenvalues --  -10.18566 -10.18563 -10.18345 -10.18290 -10.18187
 Alpha  occ. eigenvalues --  -10.18166 -10.18052 -10.17971 -10.17843 -10.17725
 Alpha  occ. eigenvalues --  -10.17335 -10.17227 -10.16974 -10.16828  -1.10477
 Alpha  occ. eigenvalues --   -1.10260  -1.02597  -1.02120  -1.00469  -1.00068
 Alpha  occ. eigenvalues --   -0.96372  -0.93159  -0.92435  -0.83963  -0.83687
 Alpha  occ. eigenvalues --   -0.82536  -0.82485  -0.81695  -0.81421  -0.80392
 Alpha  occ. eigenvalues --   -0.80135  -0.79843  -0.79795  -0.79480  -0.77668
 Alpha  occ. eigenvalues --   -0.77185  -0.75869  -0.75576  -0.75039  -0.74787
 Alpha  occ. eigenvalues --   -0.73869  -0.73553  -0.72680  -0.72207  -0.71864
 Alpha  occ. eigenvalues --   -0.69981  -0.69838  -0.68925  -0.68559  -0.67871
 Alpha  occ. eigenvalues --   -0.67643  -0.67544  -0.66195  -0.65953  -0.65603
 Alpha  occ. eigenvalues --   -0.63812  -0.62967  -0.62356  -0.62044  -0.61907
 Alpha  occ. eigenvalues --   -0.60400  -0.59280  -0.58805  -0.58312  -0.57348
 Alpha  occ. eigenvalues --   -0.57334  -0.56956  -0.56162  -0.55928  -0.55718
 Alpha  occ. eigenvalues --   -0.55197  -0.54771  -0.54362  -0.53472  -0.53072
 Alpha  occ. eigenvalues --   -0.52898  -0.52274  -0.51885  -0.51096  -0.50225
 Alpha  occ. eigenvalues --   -0.49834  -0.49604  -0.49379  -0.49139  -0.48738
 Alpha  occ. eigenvalues --   -0.48169  -0.47872  -0.47713  -0.47402  -0.47276
 Alpha  occ. eigenvalues --   -0.46760  -0.46536  -0.46352  -0.45890  -0.45672
 Alpha  occ. eigenvalues --   -0.45545  -0.45461  -0.45238  -0.45165  -0.44846
 Alpha  occ. eigenvalues --   -0.44776  -0.44532  -0.44283  -0.43926  -0.43731
 Alpha  occ. eigenvalues --   -0.43580  -0.43257  -0.43176  -0.42968  -0.42941
 Alpha  occ. eigenvalues --   -0.42656  -0.42541  -0.42036  -0.41962  -0.41586
 Alpha  occ. eigenvalues --   -0.41465  -0.41306  -0.41028  -0.40927  -0.40654
 Alpha  occ. eigenvalues --   -0.40411  -0.40207  -0.40133  -0.39545  -0.39199
 Alpha  occ. eigenvalues --   -0.38992  -0.38921  -0.38794  -0.38661  -0.38494
 Alpha  occ. eigenvalues --   -0.38327  -0.38228  -0.38152  -0.38137  -0.37682
 Alpha  occ. eigenvalues --   -0.37365  -0.37315  -0.37160  -0.36982  -0.36602
 Alpha  occ. eigenvalues --   -0.36346  -0.36146  -0.35956  -0.35894  -0.35647
 Alpha  occ. eigenvalues --   -0.35580  -0.35522  -0.35301  -0.34928  -0.34732
 Alpha  occ. eigenvalues --   -0.34530  -0.34339  -0.34202  -0.34029  -0.33986
 Alpha  occ. eigenvalues --   -0.33626  -0.33472  -0.32747  -0.32488  -0.32094
 Alpha  occ. eigenvalues --   -0.31895  -0.31824  -0.31760  -0.31414  -0.31091
 Alpha  occ. eigenvalues --   -0.30861  -0.30743  -0.30641  -0.30414  -0.29637
 Alpha  occ. eigenvalues --   -0.29194  -0.29024  -0.28518  -0.27797  -0.27563
 Alpha  occ. eigenvalues --   -0.27203  -0.27004  -0.26812  -0.26626  -0.26278
 Alpha  occ. eigenvalues --   -0.25782  -0.24100  -0.24060  -0.22959  -0.19949
 Alpha  occ. eigenvalues --   -0.18827
 Alpha virt. eigenvalues --   -0.09616  -0.07119  -0.03478  -0.02573  -0.01393
 Alpha virt. eigenvalues --   -0.00831   0.00288   0.01020   0.01784   0.03780
 Alpha virt. eigenvalues --    0.03953   0.04127   0.04497   0.04571   0.04626

 Mulliken charges:
               1
     1  C   -0.010067
     2  C   -0.043180
     3  C   -0.081711
     4  C   -0.109340
     5  N   -0.242885
     6  C   -0.000296
     7  C   -0.037615
     8  C   -0.133911
     9  C    0.009458
    10  C    0.145303
    11  C   -0.032621
    12  C    0.012641
    13  C    0.199266
    14  O   -0.210488
    15  O   -0.283701
    16  N   -0.152930
    17  C    0.138365
    18  C   -0.147324
    19  C    0.009166
    20  C    0.101839
    21  C    0.244646
    22  C   -0.037400
    23  C   -0.078645
    24  N   -0.233415
    25  C    0.078641
    26  C   -0.120462
    27  C   -0.085703
    28  C    0.074823
    29  C    0.107480
    30  C    0.084891
    31  C    0.019322
    32  N    0.072013
    33  C    0.100731
    34  C   -0.172425
    35  C    0.031554
    36  C   -0.033304
    37  C    0.047239
    38  C   -0.003515
    39  O   -0.177495
    40  C    0.134483
    41  C    0.187835
    42  O   -0.211715
    43  O   -0.271790
    44  C    0.151828
    45  C    0.260580
    46  C   -0.079585
    47  C   -0.067506
    48  C    0.068841
    49  C    0.064050
    50  C    0.024026
    51  C    0.029015
    52  C   -0.001665
    53  C    0.074802
    54  C   -0.042254
    55  C   -0.012196
    56  C    0.156149
    57  C   -0.153243
    58  C    0.026526
    59  C   -0.003666
    60  C   -0.009800
    61  C    0.057317
    62  C   -0.139025
    63  C    0.057791
    64  C   -0.000532
    65  H   -0.060167
    66  H   -0.041671
    67  H    0.020700
    68  H    0.018409
    69  H    0.023098
    70  H    0.003815
    71  H    0.002438
    72  H    0.008995
    73  H    0.035584
    74  H    0.023691
    75  H    0.027756
    76  H    0.040671
    77  H   -0.000441
    78  H    0.003366
    79  H   -0.042493
    80  H    0.058031
    81  H    0.053297
    82  H    0.021004
    83  H   -0.007613
    84  H    0.009371
    85  H    0.035665
    86  H   -0.023964
    87  H   -0.025226
    88  H   -0.001355
    89  H   -0.012386
    90  H    0.011654
    91  H    0.043199
    92  H    0.042489
    93  H    0.052693
    94  H   -0.019719
    95  H    0.045030
    96  H    0.036928
    97  H    0.038958
    98  H    0.014900
    99  H   -0.033020
   100  H   -0.013567
   101  H   -0.008138
   102  H    0.037748
   103  H    0.005372
   104  H    0.018271
   105  H   -0.007365
   106  H    0.015433
   107  H    0.011191
   108  H   -0.058536
   109  H   -0.040039
   110  H   -0.055070
   111  H   -0.005687
   112  H    0.017448
   113  H    0.012751
   114  H    0.001220
   115  H   -0.011596
   116  H    0.009737
   117  H   -0.014874
   118  H   -0.080050
   119  H   -0.003928
   120  H    0.003758
   121  H    0.017541
   122  H    0.008691
   123  H   -0.002130
   124  H    0.004855
   125  H    0.025457
   126  H    0.008314
   127  H    0.034918
   128  H   -0.029514
   129  H    0.017438
   130  H    0.007862
   131  H   -0.013539
   132  H    0.009644
   133  H   -0.018625
   134  H   -0.000628
   135  H    0.036345
   136  H    0.009314
   137  H    0.187668
   138  H    0.109414
 Sum of Mulliken charges =  -0.00000

 Dipole moment (field-independent basis, Debye):
    X=              1.9605    Y=              5.1991    Z=              0.8472  Tot=              5.6207
 Quadrupole moment (field-independent basis, Debye-Ang):
   XX=           -362.1240   YY=           -379.7700   ZZ=           -395.1098
   XY=            -28.5923   XZ=              7.9909   YZ=             -4.5977

 Normal termination of Gaussian 16 at Sat Aug 10 06:53:41 2019.
