 Gaussian 16, Revision A.03,
 Gaussian 16:  ES64L-G16RevA.03 25-Dec-2016

 --------------------------
 # td=(NStates=1) B3LYP/SVP
 --------------------------

 --
 TD
 --
 Symbolic Z-matrix:
 Charge =  0 Multiplicity = 1

                         Standard orientation:
 ---------------------------------------------------------------------
 Center     Atomic      Atomic             Coordinates (Angstroms)
 Number     Number       Type             X           Y           Z
 ---------------------------------------------------------------------
      1          6           0       -5.079645   -1.935595    0.440204
      2          6           0       -4.650435    2.724585    1.364383
      3          6           0       -9.214597    3.274882   -0.194591
      4          6           0       -9.881703   -1.477918   -0.792396
      5          7           0       -5.160759    0.392494    0.914193
      6          6           0       -4.489225   -0.736153    0.863066
      7          6           0       -2.972058   -0.518416    1.171469
      8          6           0       -3.090769    0.784670    1.808736
      9          6           0       -4.346993    1.353097    1.375654
     10          6           0       -2.949103    0.832759    3.334462
     11          6           0       -1.984234   -0.801717    0.090573
     12          6           0       -0.585676   -0.933783    0.512255
     13          6           0        0.433979   -1.084609   -0.654522
     14          8           0        0.027017   -1.454322   -1.741514
     15          8           0        1.597955   -0.571727   -0.336371
     16          7           0       -6.924668    2.823549    0.590156
     17          6           0       -5.789381    3.492102    0.950246
     18          6           0       -6.138004    4.833215    1.045292
     19          6           0       -7.523103    4.973761    0.570854
     20          6           0       -7.902759    3.547984    0.254027
     21          6           0       -5.218668    5.851446    1.453828
     22          6           0       -8.110360    6.187537    0.373738
     23          6           0       -8.942782    6.485220   -0.731154
     24          7           0       -9.249943    0.884055   -0.374560
     25          6           0       -9.899485    2.045453   -0.537882
     26          6           0      -11.287869    1.915280   -0.890094
     27          6           0      -11.409134    0.506414   -1.039240
     28          6           0      -10.152255   -0.069167   -0.807505
     29          6           0      -12.251240    3.102006   -1.116810
     30          6           0      -12.629104   -0.225070   -1.502020
     31          6           0      -12.642297   -0.615808   -2.992696
     32          7           0       -7.507524   -1.275129   -0.179079
     33          6           0       -8.600349   -2.000818   -0.523918
     34          6           0       -8.173701   -3.384551   -0.609536
     35          6           0       -6.849494   -3.458777   -0.053764
     36          6           0       -6.447563   -1.991444    0.099827
     37          6           0       -9.089422   -4.573988   -0.934754
     38          6           0       -5.866068   -4.348217    0.028357
     39          8           0       -5.730989   -5.553147   -0.102273
     40          6           0       -4.544558   -3.395810    0.419741
     41          6           0       -3.939235   -3.898492    1.609702
     42          8           0       -4.145285   -3.411084    2.727242
     43          8           0       -3.024782   -4.856814    1.457743
     44          6           0       -2.441764   -5.419914    2.649234
     45          6           0        2.734361   -0.897325   -1.266021
     46          6           0        3.949433   -0.488717   -0.676434
     47          6           0        4.946104    0.167118   -1.255592
     48          6           0        4.773085    0.660990   -2.695049
     49          6           0        6.240872    0.509291   -0.527438
     50          6           0        7.370460   -0.386974   -1.010587
     51          6           0        8.729682    0.120870   -0.267201
     52          6           0       10.012199   -0.545790   -0.888588
     53          6           0        9.972737   -2.126681   -0.874547
     54          6           0       11.243318   -0.070391   -0.103329
     55          6           0       12.642474   -0.524078   -0.666946
     56          6           0       13.742249    0.209643    0.131335
     57          6           0       15.173869   -0.171803   -0.315023
     58          6           0       15.552023   -1.731002   -0.282592
     59          6           0       16.156250    0.574167    0.550530
     60          6           0       17.637852    0.483652    0.047241
     61          6           0       18.573164    1.548752    0.717123
     62          6           0       20.062007    1.427416    0.272548
     63          6           0       20.241782    1.747422   -1.303728
     64          6           0       20.927140    2.303526    1.202828
     65          1           0       -3.676085    3.339894    1.643955
     66          1           0       -9.885419    4.080806   -0.470611
     67          1           0      -10.606032   -2.270914   -1.022385
     68          1           0       -2.946045   -1.210504    2.190891
     69          1           0       -2.084829    1.398621    1.517658
     70          1           0       -2.144561    0.303598    3.609796
     71          1           0       -3.199606    1.728799    3.728123
     72          1           0       -3.566481    0.267812    3.579881
     73          1           0       -2.583123   -1.682242   -0.610130
     74          1           0       -2.067351    0.130098   -0.644760
     75          1           0       -0.377666   -0.139521    1.161128
     76          1           0       -0.566543   -1.617240    1.169019
     77          1           0       -4.287031    6.095357    0.940659
     78          1           0       -5.780728    6.922765    1.393118
     79          1           0       -5.054878    5.605385    2.585645
     80          1           0       -7.950727    7.165623    1.064656
     81          1           0       -9.200210    5.812150   -1.528725
     82          1           0       -9.388309    7.543299   -0.856860
     83          1           0      -12.241623    3.835644   -0.238501
     84          1           0      -11.696855    3.563972   -1.963804
     85          1           0      -13.218645    2.621661   -1.378397
     86          1           0      -12.721644   -1.073742   -0.877589
     87          1           0      -13.431548    0.394912   -1.234312
     88          1           0      -12.275882    0.197911   -3.625635
     89          1           0      -11.886837   -1.341788   -3.340290
     90          1           0      -13.669978   -0.960361   -3.276901
     91          1           0      -10.330941   -4.727070   -0.571822
     92          1           0       -9.246431   -4.556947   -2.119148
     93          1           0       -8.800805   -5.513269   -0.743557
     94          1           0       -3.682474   -3.494791   -0.348664
     95          1           0       -1.436783   -5.929079    2.159340
     96          1           0       -2.363526   -4.610268    3.527962
     97          1           0       -3.193039   -6.218336    2.990010
     98          1           0        2.755411   -1.935683   -1.534689
     99          1           0        2.585683   -0.253405   -2.249068
    100          1           0        4.100838   -0.894191    0.312899
    101          1           0        5.117118    1.816735   -2.586903
    102          1           0        5.304751    0.190233   -3.478361
    103          1           0        3.720976    0.693168   -3.148072
    104          1           0        6.604584    1.627372   -0.781367
    105          1           0        6.133224    0.281060    0.559682
    106          1           0        7.264123   -1.449345   -1.001393
    107          1           0        7.676899   -0.101245   -2.110109
    108          1           0        8.797617    1.325096   -0.138262
    109          1           0        8.821787   -0.329091    0.761435
    110          1           0       10.127567   -0.367312   -2.020330
    111          1           0        9.395305   -2.509796   -1.531584
    112          1           0       10.973212   -2.756283   -1.072092
    113          1           0        9.731302   -2.521062    0.033236
    114          1           0       11.292689    1.020000    0.125741
    115          1           0       11.240474   -0.708350    0.910057
    116          1           0       12.885151   -1.706537   -0.618145
    117          1           0       12.834297   -0.124077   -1.727749
    118          1           0       13.631785    1.329674    0.226857
    119          1           0       13.730503   -0.014808    1.149257
    120          1           0       15.369035    0.102616   -1.403828
    121          1           0       14.804791   -2.246630   -0.928557
    122          1           0       16.444162   -1.903036   -0.788720
    123          1           0       15.534583   -2.086972    0.541612
    124          1           0       15.920197    1.706096    0.566205
    125          1           0       16.021044    0.335888    1.729888
    126          1           0       18.255311   -0.301073   -0.004990
    127          1           0       17.782866    0.744880   -0.986551
    128          1           0       18.174601    2.735771    0.611391
    129          1           0       18.434349    1.473982    1.955450
    130          1           0       20.255981    0.444111    0.363877
    131          1           0       20.081705    2.910093   -1.367609
    132          1           0       21.327941    1.578040   -1.714597
    133          1           0       19.708286    0.993012   -1.938612
    134          1           0       20.893970    2.081827    2.328583
    135          1           0       21.915441    2.263075    1.020639
    136          1           0       20.503408    3.339350    1.339166
    137          1           0       -6.963367    1.729315    0.640007
    138          1           0       -7.650069   -0.274275   -0.087497
 ---------------------------------------------------------------------

 SCF Done:  E(RB3LYP) =  -2732.93784113     A.U. after   17 cycles

 Excitation energies and oscillator strengths:

 Excited State   1:      Singlet-A      1.9745 eV  627.91 nm  f=0.1715  <S**2>=0.000
     235 -> 237       -0.26658
     235 -> 238       -0.28633
     236 -> 237        0.56525
     236 -> 238       -0.13673
 This state for optimization and/or second-order correction.
 Total Energy, E(TD-HF/TD-DFT) =  -2732.86527787
 Copying the excited state density for this state as the 1-particle RhoCI density.

 The electronic state is 1-A.
 Alpha  occ. eigenvalues --  -19.18634 -19.16858 -19.11802 -19.11637 -19.10070
 Alpha  occ. eigenvalues --  -14.37842 -14.37744 -14.32209 -14.29406 -10.31430
 Alpha  occ. eigenvalues --  -10.29791 -10.26948 -10.25947 -10.25393 -10.24510
 Alpha  occ. eigenvalues --  -10.24324 -10.23842 -10.23727 -10.23106 -10.23026
 Alpha  occ. eigenvalues --  -10.22705 -10.21805 -10.21507 -10.21073 -10.21068
 Alpha  occ. eigenvalues --  -10.21030 -10.20992 -10.20947 -10.20844 -10.20841
 Alpha  occ. eigenvalues --  -10.20781 -10.20604 -10.20598 -10.20516 -10.20515
 Alpha  occ. eigenvalues --  -10.20489 -10.20446 -10.20429 -10.20384 -10.20224
 Alpha  occ. eigenvalues --  -10.20221 -10.20140 -10.20116 -10.20016 -10.20010
 Alpha  occ. eigenvalues --  -10.19677 -10.19612 -10.19550 -10.19534 -10.19282
 Alpha  occ. eigenvalues --  -10.19017 -10.19008 -10.18892 -10.18469 -10.18325
 Alpha  occ. eigenvalues --  -10.18180 -10.18095 -10.17903 -10.17565 -10.17498
 Alpha  occ. eigenvalues --  -10.17183 -10.16945 -10.15684 -10.14712  -1.09498
 Alpha  occ. eigenvalues --   -1.08542  -1.01805  -1.01044  -1.00265  -1.00186
 Alpha  occ. eigenvalues --   -0.97861  -0.96756  -0.93665  -0.84349  -0.83631
 Alpha  occ. eigenvalues --   -0.82548  -0.82331  -0.81353  -0.81329  -0.80354
 Alpha  occ. eigenvalues --   -0.80248  -0.79750  -0.79222  -0.79061  -0.78289
 Alpha  occ. eigenvalues --   -0.77348  -0.76153  -0.75580  -0.74714  -0.74249
 Alpha  occ. eigenvalues --   -0.73228  -0.72918  -0.72566  -0.72032  -0.71553
 Alpha  occ. eigenvalues --   -0.70134  -0.69574  -0.68662  -0.68648  -0.68161
 Alpha  occ. eigenvalues --   -0.67488  -0.67311  -0.67175  -0.66552  -0.65091
 Alpha  occ. eigenvalues --   -0.64645  -0.63981  -0.63490  -0.62802  -0.62246
 Alpha  occ. eigenvalues --   -0.61205  -0.59552  -0.58807  -0.58180  -0.57425
 Alpha  occ. eigenvalues --   -0.56799  -0.56556  -0.56190  -0.56134  -0.55691
 Alpha  occ. eigenvalues --   -0.55333  -0.54527  -0.54072  -0.53849  -0.53742
 Alpha  occ. eigenvalues --   -0.53009  -0.52669  -0.51459  -0.51311  -0.50621
 Alpha  occ. eigenvalues --   -0.49947  -0.49838  -0.49160  -0.48643  -0.47882
 Alpha  occ. eigenvalues --   -0.47784  -0.47708  -0.47154  -0.46919  -0.46470
 Alpha  occ. eigenvalues --   -0.46327  -0.46068  -0.45976  -0.45846  -0.45750
 Alpha  occ. eigenvalues --   -0.45485  -0.45153  -0.44926  -0.44795  -0.44471
 Alpha  occ. eigenvalues --   -0.44334  -0.44172  -0.43978  -0.43862  -0.43722
 Alpha  occ. eigenvalues --   -0.43401  -0.43210  -0.43058  -0.42840  -0.42680
 Alpha  occ. eigenvalues --   -0.42435  -0.42387  -0.41993  -0.41901  -0.41574
 Alpha  occ. eigenvalues --   -0.41320  -0.41026  -0.40882  -0.40829  -0.40537
 Alpha  occ. eigenvalues --   -0.40458  -0.40323  -0.39892  -0.39752  -0.39491
 Alpha  occ. eigenvalues --   -0.39132  -0.39090  -0.38789  -0.38718  -0.38337
 Alpha  occ. eigenvalues --   -0.38232  -0.38068  -0.37875  -0.37724  -0.37496
 Alpha  occ. eigenvalues --   -0.37320  -0.37174  -0.37117  -0.36632  -0.36490
 Alpha  occ. eigenvalues --   -0.36372  -0.36221  -0.36172  -0.35955  -0.35642
 Alpha  occ. eigenvalues --   -0.35455  -0.35205  -0.35145  -0.34890  -0.34631
 Alpha  occ. eigenvalues --   -0.34275  -0.34223  -0.34105  -0.34012  -0.33640
 Alpha  occ. eigenvalues --   -0.33346  -0.33293  -0.33109  -0.32820  -0.32634
 Alpha  occ. eigenvalues --   -0.32069  -0.31731  -0.31548  -0.31463  -0.31055
 Alpha  occ. eigenvalues --   -0.30808  -0.30698  -0.30576  -0.30375  -0.30163
 Alpha  occ. eigenvalues --   -0.29378  -0.28741  -0.28552  -0.28360  -0.28073
 Alpha  occ. eigenvalues --   -0.27353  -0.27108  -0.26569  -0.26233  -0.25878
 Alpha  occ. eigenvalues --   -0.25572  -0.24144  -0.22689  -0.21971  -0.19543
 Alpha  occ. eigenvalues --   -0.19234
 Alpha virt. eigenvalues --   -0.10882  -0.08402  -0.05185  -0.02460  -0.00612
 Alpha virt. eigenvalues --    0.00272   0.00471   0.00773   0.02668   0.03832
 Alpha virt. eigenvalues --    0.03879   0.04112   0.04399   0.04714   0.04817

 Mulliken charges:
               1
     1  C    0.006371
     2  C   -0.097715
     3  C   -0.073919
     4  C   -0.059187
     5  N   -0.137047
     6  C   -0.106714
     7  C   -0.071708
     8  C   -0.163544
     9  C   -0.003307
    10  C    0.401427
    11  C    0.018086
    12  C    0.211762
    13  C    0.185984
    14  O   -0.239434
    15  O   -0.298671
    16  N    0.010065
    17  C    0.096760
    18  C   -0.099071
    19  C    0.077508
    20  C    0.102085
    21  C    0.014320
    22  C   -0.151295
    23  C   -0.082173
    24  N   -0.253033
    25  C   -0.012568
    26  C   -0.154600
    27  C   -0.170814
    28  C    0.113490
    29  C    0.101437
    30  C    0.161717
    31  C    0.012972
    32  N    0.065923
    33  C    0.008495
    34  C   -0.048433
    35  C    0.003095
    36  C    0.058310
    37  C    0.026305
    38  C    0.037792
    39  O   -0.176853
    40  C   -0.094239
    41  C    0.197145
    42  O   -0.279448
    43  O   -0.287640
    44  C    0.095528
    45  C    0.289753
    46  C   -0.103775
    47  C   -0.101597
    48  C    0.014154
    49  C    0.077930
    50  C   -0.018882
    51  C   -0.022458
    52  C   -0.061562
    53  C    0.081225
    54  C    0.005713
    55  C   -0.004075
    56  C    0.043818
    57  C   -0.097938
    58  C    0.165988
    59  C    0.019340
    60  C    0.140830
    61  C   -0.138487
    62  C   -0.016956
    63  C   -0.045359
    64  C    0.070521
    65  H    0.008254
    66  H   -0.042735
    67  H   -0.011737
    68  H    0.033976
    69  H    0.005284
    70  H   -0.042098
    71  H   -0.026791
    72  H   -0.131061
    73  H    0.048634
    74  H    0.014477
    75  H   -0.021876
    76  H   -0.063612
    77  H    0.044018
    78  H    0.016125
    79  H    0.043522
    80  H    0.052797
    81  H    0.030337
    82  H    0.036142
    83  H    0.049227
    84  H    0.038140
    85  H    0.026242
    86  H   -0.018445
    87  H   -0.029718
    88  H    0.002142
    89  H    0.004059
    90  H    0.023492
    91  H    0.047710
    92  H    0.041361
    93  H    0.000309
    94  H    0.061685
    95  H    0.062147
    96  H    0.073980
    97  H    0.049393
    98  H    0.032301
    99  H    0.036807
   100  H   -0.025010
   101  H    0.028432
   102  H    0.028094
   103  H    0.024717
   104  H    0.028556
   105  H    0.010548
   106  H    0.008355
   107  H    0.013092
   108  H    0.028233
   109  H    0.002952
   110  H    0.001576
   111  H   -0.044680
   112  H    0.009342
   113  H   -0.026296
   114  H    0.007308
   115  H    0.008013
   116  H    0.037066
   117  H    0.002936
   118  H   -0.011096
   119  H   -0.043374
   120  H   -0.007291
   121  H   -0.004810
   122  H   -0.012556
   123  H   -0.076100
   124  H    0.000549
   125  H    0.011412
   126  H   -0.058335
   127  H   -0.030940
   128  H    0.003752
   129  H    0.006565
   130  H   -0.033970
   131  H    0.036335
   132  H    0.013891
   133  H    0.029157
   134  H   -0.003329
   135  H   -0.019001
   136  H    0.004028
   137  H    0.188414
   138  H    0.125634
 Sum of Mulliken charges =  -0.00000

 Dipole moment (field-independent basis, Debye):
    X=              3.1917    Y=              3.8591    Z=             -0.1492  Tot=              5.0102
 Quadrupole moment (field-independent basis, Debye-Ang):
   XX=           -341.6261   YY=           -388.3361   ZZ=           -395.5055
   XY=            -33.3690   XZ=              7.5983   YZ=              0.7793

 Normal termination of Gaussian 16 at Sat Aug 31 23:59:18 2019.
