 Gaussian 16, Revision A.03,
 Gaussian 16:  ES64L-G16RevA.03 25-Dec-2016

 --------------------------
 # td=(NStates=1) B3LYP/SVP
 --------------------------

 --
 TD
 --
 Symbolic Z-matrix:
 Charge =  0 Multiplicity = 1

                         Standard orientation:
 ---------------------------------------------------------------------
 Center     Atomic      Atomic             Coordinates (Angstroms)
 Number     Number       Type             X           Y           Z
 ---------------------------------------------------------------------
      1          6           0       -5.217261   -1.976773    0.467246
      2          6           0       -4.639178    2.690738    1.549136
      3          6           0       -9.144237    3.432182   -0.085170
      4          6           0       -9.852709   -1.286634   -0.996636
      5          7           0       -5.138391    0.409181    0.877830
      6          6           0       -4.524997   -0.867287    0.795845
      7          6           0       -3.097262   -0.604423    1.187950
      8          6           0       -3.059945    0.701320    1.912229
      9          6           0       -4.350545    1.308804    1.418143
     10          6           0       -2.825288    0.794159    3.395961
     11          6           0       -2.097774   -0.918898    0.136328
     12          6           0       -0.646198   -0.886137    0.613445
     13          6           0        0.314475   -1.179546   -0.447813
     14          8           0        0.056291   -1.512556   -1.618918
     15          8           0        1.663284   -0.933510   -0.168571
     16          7           0       -6.840035    2.839533    0.584676
     17          6           0       -5.711171    3.372416    1.081603
     18          6           0       -5.844020    4.843842    1.036023
     19          6           0       -7.182179    5.002564    0.460071
     20          6           0       -7.793016    3.698559    0.261005
     21          6           0       -4.934344    5.908205    1.540176
     22          6           0       -7.724835    6.277646    0.281669
     23          6           0       -8.612399    6.646102   -0.731106
     24          7           0       -9.151672    1.008501   -0.530070
     25          6           0       -9.736847    2.205781   -0.481808
     26          6           0      -11.245741    2.102660   -0.842345
     27          6           0      -11.461633    0.773643   -1.131439
     28          6           0      -10.167450    0.075957   -0.821849
     29          6           0      -12.175747    3.116634   -0.961328
     30          6           0      -12.650669   -0.010680   -1.559459
     31          6           0      -12.617145    0.026071   -3.171332
     32          7           0       -7.616456   -1.230986   -0.396469
     33          6           0       -8.637340   -1.856968   -0.799830
     34          6           0       -8.316642   -3.405598   -0.721302
     35          6           0       -6.979356   -3.333985   -0.280950
     36          6           0       -6.536957   -1.964778    0.034404
     37          6           0       -9.212634   -4.489652   -1.002192
     38          6           0       -5.876151   -4.312128   -0.007930
     39          8           0       -5.878763   -5.542418    0.022367
     40          6           0       -4.641458   -3.351692    0.471103
     41          6           0       -4.001318   -3.939699    1.769652
     42          8           0       -4.171140   -3.681298    2.882153
     43          8           0       -3.156808   -4.911616    1.348247
     44          6           0       -2.507319   -5.698955    2.377012
     45          6           0        2.603271   -1.078239   -1.228152
     46          6           0        3.930407   -0.911668   -0.588019
     47          6           0        4.852894   -0.000521   -0.964703
     48          6           0        4.849144    0.745793   -2.158370
     49          6           0        6.196666    0.007934   -0.120573
     50          6           0        7.335482   -0.519749   -0.982655
     51          6           0        8.723689   -0.340376   -0.255056
     52          6           0       10.016812   -0.837442   -1.026829
     53          6           0       10.011800   -2.298234   -1.315978
     54          6           0       11.188403   -0.400737   -0.114938
     55          6           0       12.602933   -0.571265   -0.745129
     56          6           0       13.679668    0.063626    0.101714
     57          6           0       15.247196   -0.179177   -0.406173
     58          6           0       15.509516   -1.652363   -0.455913
     59          6           0       16.195492    0.644444    0.509090
     60          6           0       17.613092    0.653496   -0.124234
     61          6           0       18.541977    1.693117    0.666486
     62          6           0       19.928887    1.750097    0.168390
     63          6           0       20.035664    2.521635   -1.229316
     64          6           0       20.854591    2.486587    1.215684
     65          1           0       -3.800897    3.454013    1.867640
     66          1           0       -9.905400    4.278640   -0.273153
     67          1           0      -10.723593   -1.990483   -0.999135
     68          1           0       -2.659798   -1.436784    1.907287
     69          1           0       -2.085177    1.118924    1.360694
     70          1           0       -1.788314    0.404532    3.716335
     71          1           0       -2.968705    1.889055    3.739002
     72          1           0       -3.652583    0.263596    3.822065
     73          1           0       -2.038385   -1.843935   -0.427516
     74          1           0       -2.057399    0.006414   -0.590369
     75          1           0       -0.361052   -0.011723    1.024127
     76          1           0       -0.270322   -1.659682    1.396677
     77          1           0       -4.007015    5.756773    0.880311
     78          1           0       -5.038345    7.071005    1.277788
     79          1           0       -4.785495    5.739443    2.625468
     80          1           0       -7.535931    6.970750    1.156548
     81          1           0       -8.885113    5.843734   -1.450440
     82          1           0       -9.407658    7.506759   -0.460852
     83          1           0      -12.207342    3.688171   -0.049972
     84          1           0      -11.853452    3.907133   -1.832474
     85          1           0      -13.273067    2.884061   -1.476327
     86          1           0      -12.847534   -1.158373   -1.235963
     87          1           0      -13.641484    0.440429   -1.236082
     88          1           0      -12.592953    1.102017   -3.692912
     89          1           0      -11.930058   -0.826231   -3.460089
     90          1           0      -13.566271   -0.469433   -3.473410
     91          1           0      -10.157519   -4.450450   -0.479419
     92          1           0       -9.332642   -4.562264   -2.135484
     93          1           0       -8.735794   -5.463506   -0.467511
     94          1           0       -3.950429   -3.702053   -0.369239
     95          1           0       -1.903182   -6.520220    1.589862
     96          1           0       -1.738047   -5.085814    2.901321
     97          1           0       -3.110987   -6.229004    3.082721
     98          1           0        2.449076   -2.216555   -1.612783
     99          1           0        2.427997   -0.276001   -2.028946
    100          1           0        4.051941   -1.395798    0.381950
    101          1           0        5.191268    1.809517   -1.890757
    102          1           0        5.312822    0.317013   -3.103131
    103          1           0        3.951561    1.075262   -2.768329
    104          1           0        6.452052    0.983895    0.350945
    105          1           0        6.035922   -0.728057    0.911015
    106          1           0        7.183829   -1.589571   -1.335974
    107          1           0        7.724925    0.039612   -1.940646
    108          1           0        8.916054    0.564611    0.023175
    109          1           0        8.787105   -1.125356    0.581377
    110          1           0       10.114401   -0.049763   -1.956525
    111          1           0        8.839837   -2.511310   -1.598725
    112          1           0       10.813871   -2.690015   -1.913157
    113          1           0       10.108062   -2.916239   -0.368728
    114          1           0       11.104498    0.666046    0.164533
    115          1           0       11.197978   -1.162782    0.916183
    116          1           0       13.037699   -1.517817   -0.906652
    117          1           0       12.758179   -0.115692   -1.696575
    118          1           0       13.349169    0.991567    0.346241
    119          1           0       13.812161   -0.459717    1.175722
    120          1           0       15.132226    0.476954   -1.401771
    121          1           0       14.627360   -2.342258   -0.994942
    122          1           0       16.409903   -2.098740   -1.149806
    123          1           0       15.746094   -2.072423    0.498644
    124          1           0       15.665548    1.483262    0.589787
    125          1           0       16.338127    0.302656    1.566695
    126          1           0       17.937740   -0.402351   -0.119858
    127          1           0       17.376284    0.812532   -1.296219
    128          1           0       17.906469    2.746822    0.774414
    129          1           0       18.609964    1.326774    1.689310
    130          1           0       20.310723    0.621530    0.079698
    131          1           0       19.576547    3.505608   -1.304697
    132          1           0       20.981977    2.683162   -1.551769
    133          1           0       19.268917    2.072072   -2.098310
    134          1           0       20.836524    2.113723    2.267920
    135          1           0       21.967001    2.413013    0.939445
    136          1           0       20.681251    3.517421    1.521144
    137          1           0       -6.885005    1.757824    0.591622
    138          1           0       -7.434901   -0.080775   -0.194020
 ---------------------------------------------------------------------

 SCF Done:  E(RB3LYP) =  -2732.98402170     A.U. after   17 cycles

 Excitation energies and oscillator strengths:

 Excited State   1:      Singlet-A      2.0324 eV  610.05 nm  f=0.1997  <S**2>=0.000
     235 -> 237       -0.13021
     235 -> 238       -0.26463
     236 -> 237        0.63157
     236 -> 238       -0.10846
 This state for optimization and/or second-order correction.
 Total Energy, E(TD-HF/TD-DFT) =  -2732.90933404
 Copying the excited state density for this state as the 1-particle RhoCI density.

 The electronic state is 1-A.
 Alpha  occ. eigenvalues --  -19.17075 -19.16575 -19.12876 -19.12866 -19.12012
 Alpha  occ. eigenvalues --  -14.38529 -14.37577 -14.32943 -14.30407 -10.31556
 Alpha  occ. eigenvalues --  -10.31331 -10.28536 -10.25793 -10.24998 -10.24478
 Alpha  occ. eigenvalues --  -10.23856 -10.23727 -10.23507 -10.23318 -10.22979
 Alpha  occ. eigenvalues --  -10.22205 -10.22180 -10.21983 -10.21871 -10.21800
 Alpha  occ. eigenvalues --  -10.21375 -10.21228 -10.21217 -10.21143 -10.20892
 Alpha  occ. eigenvalues --  -10.20832 -10.20792 -10.20756 -10.20710 -10.20683
 Alpha  occ. eigenvalues --  -10.20531 -10.20524 -10.20478 -10.20336 -10.20209
 Alpha  occ. eigenvalues --  -10.20165 -10.20093 -10.20046 -10.19975 -10.19943
 Alpha  occ. eigenvalues --  -10.19937 -10.19928 -10.19875 -10.19802 -10.19723
 Alpha  occ. eigenvalues --  -10.19639 -10.19579 -10.19396 -10.19137 -10.19104
 Alpha  occ. eigenvalues --  -10.18949 -10.18874 -10.18313 -10.18054 -10.18037
 Alpha  occ. eigenvalues --  -10.17696 -10.17483 -10.17165 -10.16754  -1.10481
 Alpha  occ. eigenvalues --   -1.07585  -1.02099  -1.01824  -1.00086  -0.99830
 Alpha  occ. eigenvalues --   -0.98494  -0.95198  -0.92552  -0.85592  -0.83245
 Alpha  occ. eigenvalues --   -0.82264  -0.81559  -0.81351  -0.81088  -0.80461
 Alpha  occ. eigenvalues --   -0.79976  -0.79772  -0.79346  -0.79034  -0.78540
 Alpha  occ. eigenvalues --   -0.76524  -0.76117  -0.75780  -0.74560  -0.74248
 Alpha  occ. eigenvalues --   -0.73449  -0.73354  -0.72613  -0.71319  -0.71093
 Alpha  occ. eigenvalues --   -0.70168  -0.69139  -0.68616  -0.67771  -0.67454
 Alpha  occ. eigenvalues --   -0.67191  -0.66820  -0.66257  -0.65840  -0.65041
 Alpha  occ. eigenvalues --   -0.63977  -0.62978  -0.61990  -0.61684  -0.61195
 Alpha  occ. eigenvalues --   -0.60831  -0.58913  -0.58459  -0.58413  -0.57093
 Alpha  occ. eigenvalues --   -0.56772  -0.56122  -0.55680  -0.55504  -0.55317
 Alpha  occ. eigenvalues --   -0.54650  -0.54467  -0.53846  -0.53639  -0.52953
 Alpha  occ. eigenvalues --   -0.52597  -0.52080  -0.51319  -0.51080  -0.50508
 Alpha  occ. eigenvalues --   -0.50058  -0.49313  -0.48885  -0.48654  -0.48497
 Alpha  occ. eigenvalues --   -0.48170  -0.47502  -0.47263  -0.46950  -0.46891
 Alpha  occ. eigenvalues --   -0.46626  -0.46202  -0.45990  -0.45957  -0.45609
 Alpha  occ. eigenvalues --   -0.45439  -0.45149  -0.45072  -0.44684  -0.44408
 Alpha  occ. eigenvalues --   -0.44164  -0.44161  -0.43599  -0.43548  -0.43512
 Alpha  occ. eigenvalues --   -0.43250  -0.43173  -0.42931  -0.42752  -0.42547
 Alpha  occ. eigenvalues --   -0.42518  -0.42335  -0.42222  -0.42047  -0.41793
 Alpha  occ. eigenvalues --   -0.41763  -0.41341  -0.41252  -0.41093  -0.40765
 Alpha  occ. eigenvalues --   -0.40466  -0.39835  -0.39724  -0.39462  -0.39233
 Alpha  occ. eigenvalues --   -0.38913  -0.38658  -0.38555  -0.38500  -0.38164
 Alpha  occ. eigenvalues --   -0.38156  -0.38076  -0.38007  -0.37486  -0.37364
 Alpha  occ. eigenvalues --   -0.37256  -0.36914  -0.36702  -0.36474  -0.36033
 Alpha  occ. eigenvalues --   -0.35906  -0.35859  -0.35831  -0.35602  -0.35481
 Alpha  occ. eigenvalues --   -0.35300  -0.35063  -0.34929  -0.34694  -0.34621
 Alpha  occ. eigenvalues --   -0.34421  -0.34317  -0.33839  -0.33794  -0.33694
 Alpha  occ. eigenvalues --   -0.33431  -0.33104  -0.32907  -0.32796  -0.32753
 Alpha  occ. eigenvalues --   -0.32505  -0.31823  -0.31424  -0.31055  -0.30471
 Alpha  occ. eigenvalues --   -0.30420  -0.30293  -0.30263  -0.29588  -0.29525
 Alpha  occ. eigenvalues --   -0.29404  -0.29026  -0.28728  -0.27910  -0.27698
 Alpha  occ. eigenvalues --   -0.27373  -0.26783  -0.26610  -0.26270  -0.25807
 Alpha  occ. eigenvalues --   -0.24732  -0.24354  -0.23179  -0.22536  -0.20080
 Alpha  occ. eigenvalues --   -0.18597
 Alpha virt. eigenvalues --   -0.10174  -0.07694  -0.05147  -0.02900  -0.00796
 Alpha virt. eigenvalues --   -0.00313  -0.00167   0.01255   0.01903   0.03167
 Alpha virt. eigenvalues --    0.03711   0.03936   0.04107   0.04505   0.04593

 Mulliken charges:
               1
     1  C   -0.003051
     2  C   -0.076441
     3  C   -0.111534
     4  C   -0.091902
     5  N   -0.211188
     6  C    0.008356
     7  C   -0.051287
     8  C   -0.045089
     9  C   -0.017603
    10  C    0.088028
    11  C    0.051743
    12  C    0.077654
    13  C    0.158277
    14  O   -0.267947
    15  O   -0.349419
    16  N   -0.025743
    17  C    0.035805
    18  C   -0.107461
    19  C    0.018746
    20  C    0.140854
    21  C    0.023283
    22  C   -0.121687
    23  C   -0.068468
    24  N   -0.242852
    25  C    0.024768
    26  C   -0.093909
    27  C    0.001048
    28  C    0.027904
    29  C   -0.014344
    30  C   -0.043949
    31  C   -0.028802
    32  N   -0.019364
    33  C    0.051347
    34  C   -0.134800
    35  C   -0.065604
    36  C    0.136896
    37  C    0.042303
    38  C    0.090244
    39  O   -0.177200
    40  C   -0.117988
    41  C    0.181904
    42  O   -0.151579
    43  O   -0.320453
    44  C    0.138422
    45  C    0.251059
    46  C   -0.067266
    47  C   -0.083897
    48  C    0.005515
    49  C    0.025355
    50  C   -0.003513
    51  C    0.054452
    52  C   -0.111028
    53  C    0.043546
    54  C   -0.025888
    55  C    0.153666
    56  C   -0.054210
    57  C   -0.106507
    58  C   -0.022280
    59  C    0.093236
    60  C   -0.015572
    61  C    0.028149
    62  C   -0.059339
    63  C    0.035319
    64  C   -0.001733
    65  H    0.006299
    66  H    0.001973
    67  H   -0.007956
    68  H    0.006089
    69  H    0.002896
    70  H    0.033211
    71  H    0.022053
    72  H    0.017139
    73  H    0.034374
    74  H    0.010030
    75  H   -0.012697
    76  H    0.037842
    77  H    0.042729
    78  H    0.049548
    79  H    0.052277
    80  H    0.024634
    81  H    0.040051
    82  H    0.045829
    83  H    0.029745
    84  H    0.030443
    85  H    0.040683
    86  H    0.033808
    87  H    0.010922
    88  H    0.057137
    89  H    0.025281
    90  H   -0.004099
    91  H    0.027508
    92  H    0.058266
    93  H    0.061127
    94  H    0.079438
    95  H    0.054915
    96  H    0.033438
    97  H    0.045125
    98  H    0.038525
    99  H    0.026850
   100  H   -0.012911
   101  H    0.019627
   102  H    0.045208
   103  H    0.007344
   104  H    0.010575
   105  H    0.022841
   106  H    0.019982
   107  H    0.017133
   108  H   -0.057541
   109  H   -0.007937
   110  H    0.001065
   111  H    0.020273
   112  H    0.020978
   113  H    0.003890
   114  H    0.000054
   115  H    0.015689
   116  H   -0.047077
   117  H   -0.035502
   118  H   -0.038073
   119  H   -0.014448
   120  H    0.017323
   121  H    0.033091
   122  H    0.025834
   123  H    0.014740
   124  H   -0.047356
   125  H   -0.010557
   126  H   -0.001947
   127  H    0.012109
   128  H    0.018143
   129  H   -0.010578
   130  H    0.020845
   131  H   -0.006602
   132  H   -0.011021
   133  H    0.013824
   134  H   -0.006438
   135  H    0.013782
   136  H    0.000965
   137  H    0.166472
   138  H    0.233783
 Sum of Mulliken charges =  -0.00000

 Dipole moment (field-independent basis, Debye):
    X=              1.1233    Y=              3.7387    Z=              1.4931  Tot=              4.1796
 Quadrupole moment (field-independent basis, Debye-Ang):
   XX=           -350.4903   YY=           -388.6018   ZZ=           -399.2216
   XY=            -12.8879   XZ=             10.4733   YZ=              3.7888

 Normal termination of Gaussian 16 at Wed Aug 28 18:02:47 2019.
