 Gaussian 16, Revision A.03,
 Gaussian 16:  ES64L-G16RevA.03 25-Dec-2016

 --------------------------
 # td=(NStates=1) B3LYP/SVP
 --------------------------

 --
 TD
 --
 Symbolic Z-matrix:
 Charge =  0 Multiplicity = 1

                         Standard orientation:
 ---------------------------------------------------------------------
 Center     Atomic      Atomic             Coordinates (Angstroms)
 Number     Number       Type             X           Y           Z
 ---------------------------------------------------------------------
      1          6           0       -5.159227   -1.935995    0.559846
      2          6           0       -4.775384    2.715394    1.566973
      3          6           0       -9.285234    3.314453   -0.287756
      4          6           0       -9.725184   -1.430548   -1.164056
      5          7           0       -5.277588    0.329028    0.978942
      6          6           0       -4.556451   -0.728734    0.925107
      7          6           0       -3.200095   -0.579749    1.406602
      8          6           0       -3.195493    0.971329    2.006640
      9          6           0       -4.558987    1.359919    1.489394
     10          6           0       -2.878960    0.836196    3.574317
     11          6           0       -2.181031   -0.634376    0.163072
     12          6           0       -0.686668   -0.593376    0.565721
     13          6           0        0.306401   -0.959782   -0.457228
     14          8           0        0.120121   -1.318573   -1.628598
     15          8           0        1.533456   -0.792808    0.027194
     16          7           0       -7.113734    2.769879    0.585177
     17          6           0       -5.969107    3.357011    1.264914
     18          6           0       -6.314256    4.782243    1.181602
     19          6           0       -7.540058    4.983145    0.657956
     20          6           0       -8.076848    3.668756    0.230156
     21          6           0       -5.346890    5.858214    1.688231
     22          6           0       -8.199900    6.297361    0.587096
     23          6           0       -9.001329    6.599564   -0.354249
     24          7           0       -9.065791    0.880756   -0.648769
     25          6           0       -9.781267    2.072810   -0.761760
     26          6           0      -11.143373    1.931531   -1.326516
     27          6           0      -11.312795    0.561463   -1.506620
     28          6           0      -10.012383   -0.037794   -1.011704
     29          6           0      -12.045913    2.996847   -1.546698
     30          6           0      -12.457003   -0.151682   -2.024450
     31          6           0      -12.389725   -0.521502   -3.514793
     32          7           0       -7.402777   -1.283522   -0.262656
     33          6           0       -8.498631   -1.984827   -0.776832
     34          6           0       -8.095509   -3.467477   -0.800617
     35          6           0       -6.779195   -3.459661   -0.362605
     36          6           0       -6.437726   -2.055444    0.013258
     37          6           0       -8.911797   -4.596926   -1.333632
     38          6           0       -5.679767   -4.320605   -0.015903
     39          8           0       -5.514426   -5.495110   -0.115853
     40          6           0       -4.414130   -3.324514    0.482136
     41          6           0       -3.995197   -3.884879    1.797247
     42          8           0       -4.203722   -3.508337    2.829214
     43          8           0       -3.151535   -4.907413    1.522705
     44          6           0       -2.571803   -5.562326    2.724786
     45          6           0        2.638808   -0.991838   -0.891216
     46          6           0        3.919581   -0.622232   -0.291201
     47          6           0        4.973608    0.069784   -0.914189
     48          6           0        4.969542    0.639036   -2.298169
     49          6           0        6.216054    0.318612   -0.120869
     50          6           0        7.442774   -0.395892   -0.888123
     51          6           0        8.728117   -0.088906   -0.166730
     52          6           0       10.014192   -0.738266   -0.662553
     53          6           0        9.852654   -2.228518   -0.671587
     54          6           0       11.243887   -0.287267    0.109130
     55          6           0       12.654902   -0.694454   -0.455752
     56          6           0       13.838544   -0.021570    0.340789
     57          6           0       15.242952   -0.408598   -0.215377
     58          6           0       15.644892   -1.874700    0.070547
     59          6           0       16.271555    0.623028    0.306770
     60          6           0       17.533340    0.630402   -0.306121
     61          6           0       18.570954    1.754491    0.160757
     62          6           0       20.008603    1.728554   -0.240120
     63          6           0       20.092062    2.095048   -1.773881
     64          6           0       20.918993    2.743524    0.619187
     65          1           0       -4.039488    3.261187    2.092942
     66          1           0      -10.089960    4.159916   -0.345918
     67          1           0      -10.455920   -2.122419   -1.271683
     68          1           0       -2.884113   -1.575603    2.059206
     69          1           0       -2.281173    1.402222    1.869304
     70          1           0       -2.084112    0.343498    3.885616
     71          1           0       -3.027295    1.824745    3.893277
     72          1           0       -3.778914    0.301655    4.270181
     73          1           0       -2.216017   -1.436483   -0.390210
     74          1           0       -2.528154    0.245449   -0.556945
     75          1           0       -0.512412    0.419164    0.972744
     76          1           0       -0.428080   -1.613263    1.291871
     77          1           0       -4.446517    5.765702    1.019674
     78          1           0       -5.623420    6.901291    1.823505
     79          1           0       -5.066241    5.822206    2.929602
     80          1           0       -7.807025    6.999742    1.345486
     81          1           0       -9.350695    5.833145   -1.022430
     82          1           0       -9.539237    7.600386   -0.283157
     83          1           0      -12.304042    3.521978   -0.741421
     84          1           0      -11.782816    3.785024   -2.521617
     85          1           0      -12.966237    2.487179   -1.615161
     86          1           0      -12.737067   -1.162129   -1.521772
     87          1           0      -13.391278    0.239464   -1.826098
     88          1           0      -12.426385    0.362687   -4.232962
     89          1           0      -11.410841   -1.125760   -3.596818
     90          1           0      -13.253047   -1.252443   -3.871189
     91          1           0       -9.583768   -4.788751   -0.443681
     92          1           0       -9.393129   -4.375201   -2.275464
     93          1           0       -8.338494   -5.515838   -1.434638
     94          1           0       -3.606073   -3.534553   -0.182678
     95          1           0       -2.020745   -6.239260    2.191164
     96          1           0       -1.913246   -4.871040    3.143748
     97          1           0       -3.357404   -5.735150    3.516060
     98          1           0        2.696284   -2.043414   -1.146539
     99          1           0        2.462113   -0.312807   -1.849444
    100          1           0        4.075629   -0.793484    0.724851
    101          1           0        5.165205    1.901655   -2.396747
    102          1           0        5.931215    0.198116   -2.789562
    103          1           0        4.137128    0.609073   -2.948336
    104          1           0        6.584310    1.448441   -0.223780
    105          1           0        5.931946   -0.119443    0.865286
    106          1           0        7.281153   -1.550872   -0.871431
    107          1           0        7.534640   -0.184087   -1.934328
    108          1           0        8.909954    1.099834   -0.149136
    109          1           0        8.556614   -0.204184    0.814999
    110          1           0       10.127928   -0.520633   -1.706003
    111          1           0        9.128170   -2.748413   -1.266145
    112          1           0       10.780563   -2.742442   -1.081521
    113          1           0        9.823060   -2.596879    0.404846
    114          1           0       11.126439    0.903263    0.258378
    115          1           0       11.048708   -0.965547    1.140615
    116          1           0       12.820805   -1.852464   -0.274235
    117          1           0       12.761747   -0.558740   -1.583835
    118          1           0       13.798064    0.997561    0.377707
    119          1           0       13.853527   -0.312416    1.581538
    120          1           0       15.212311   -0.186626   -1.445282
    121          1           0       14.881376   -2.531732   -0.450023
    122          1           0       16.538293   -2.354474   -0.353060
    123          1           0       15.609035   -2.145815    1.113346
    124          1           0       15.826854    1.650425    0.007008
    125          1           0       16.395640    0.643803    1.600124
    126          1           0       17.890739   -0.397077   -0.072852
    127          1           0       17.637873    0.733176   -1.444151
    128          1           0       18.124771    2.625294   -0.009296
    129          1           0       18.559173    1.660638    1.300845
    130          1           0       20.312258    0.742010   -0.182893
    131          1           0       19.712231    3.325975   -2.072191
    132          1           0       21.270860    1.983081   -2.187925
    133          1           0       19.460219    1.446110   -2.424049
    134          1           0       20.845142    2.662242    1.686680
    135          1           0       21.902926    2.658341    0.206040
    136          1           0       20.706423    3.812548    0.296778
    137          1           0       -7.159419    1.666646    0.756994
    138          1           0       -7.301086   -0.228161   -0.195551
 ---------------------------------------------------------------------

 SCF Done:  E(RB3LYP) =  -2733.00769729     A.U. after   17 cycles

 Excitation energies and oscillator strengths:

 Excited State   1:      Singlet-A      2.0514 eV  604.38 nm  f=0.1526  <S**2>=0.000
     235 -> 238        0.31330
     236 -> 237        0.63027
 This state for optimization and/or second-order correction.
 Total Energy, E(TD-HF/TD-DFT) =  -2732.93230933
 Copying the excited state density for this state as the 1-particle RhoCI density.

 The electronic state is 1-A.
 Alpha  occ. eigenvalues --  -19.17622 -19.15222 -19.12408 -19.11820 -19.11471
 Alpha  occ. eigenvalues --  -14.37847 -14.37062 -14.32530 -14.30459 -10.31221
 Alpha  occ. eigenvalues --  -10.29159 -10.27748 -10.25167 -10.24369 -10.23855
 Alpha  occ. eigenvalues --  -10.23580 -10.23338 -10.23281 -10.22987 -10.22960
 Alpha  occ. eigenvalues --  -10.22212 -10.22079 -10.21693 -10.21336 -10.21249
 Alpha  occ. eigenvalues --  -10.21118 -10.21044 -10.20926 -10.20789 -10.20787
 Alpha  occ. eigenvalues --  -10.20680 -10.20679 -10.20579 -10.20337 -10.20310
 Alpha  occ. eigenvalues --  -10.20222 -10.20111 -10.19958 -10.19916 -10.19746
 Alpha  occ. eigenvalues --  -10.19721 -10.19654 -10.19525 -10.19497 -10.19478
 Alpha  occ. eigenvalues --  -10.19389 -10.19372 -10.19309 -10.19303 -10.19161
 Alpha  occ. eigenvalues --  -10.19038 -10.18882 -10.18869 -10.18687 -10.18563
 Alpha  occ. eigenvalues --  -10.18527 -10.18499 -10.18476 -10.18193 -10.18138
 Alpha  occ. eigenvalues --  -10.17906 -10.17875 -10.17814 -10.17004  -1.11024
 Alpha  occ. eigenvalues --   -1.09389  -1.03967  -1.01119  -1.00150  -0.98708
 Alpha  occ. eigenvalues --   -0.96870  -0.95893  -0.92327  -0.83390  -0.82769
 Alpha  occ. eigenvalues --   -0.81850  -0.81838  -0.81621  -0.81358  -0.80702
 Alpha  occ. eigenvalues --   -0.80441  -0.80293  -0.79333  -0.79237  -0.77787
 Alpha  occ. eigenvalues --   -0.76940  -0.76070  -0.75926  -0.75253  -0.74725
 Alpha  occ. eigenvalues --   -0.73647  -0.73417  -0.72829  -0.71343  -0.70856
 Alpha  occ. eigenvalues --   -0.69869  -0.68989  -0.68540  -0.68013  -0.67819
 Alpha  occ. eigenvalues --   -0.67523  -0.66804  -0.66090  -0.65464  -0.64994
 Alpha  occ. eigenvalues --   -0.64645  -0.63088  -0.62619  -0.61493  -0.61332
 Alpha  occ. eigenvalues --   -0.60732  -0.59063  -0.58423  -0.58132  -0.57881
 Alpha  occ. eigenvalues --   -0.56985  -0.56438  -0.55816  -0.55458  -0.55173
 Alpha  occ. eigenvalues --   -0.54836  -0.54327  -0.53677  -0.53594  -0.52889
 Alpha  occ. eigenvalues --   -0.52586  -0.52236  -0.51584  -0.50921  -0.50645
 Alpha  occ. eigenvalues --   -0.50192  -0.49834  -0.49132  -0.48857  -0.48229
 Alpha  occ. eigenvalues --   -0.47988  -0.47717  -0.47361  -0.47142  -0.46883
 Alpha  occ. eigenvalues --   -0.46693  -0.46458  -0.46019  -0.46004  -0.45828
 Alpha  occ. eigenvalues --   -0.45339  -0.45245  -0.45119  -0.45088  -0.44790
 Alpha  occ. eigenvalues --   -0.44707  -0.44267  -0.44171  -0.44039  -0.43934
 Alpha  occ. eigenvalues --   -0.43598  -0.43400  -0.43131  -0.42854  -0.42553
 Alpha  occ. eigenvalues --   -0.42440  -0.42406  -0.42259  -0.42224  -0.42044
 Alpha  occ. eigenvalues --   -0.41735  -0.41164  -0.40825  -0.40373  -0.40239
 Alpha  occ. eigenvalues --   -0.40138  -0.39709  -0.39657  -0.39454  -0.39304
 Alpha  occ. eigenvalues --   -0.39103  -0.38969  -0.38829  -0.38393  -0.38253
 Alpha  occ. eigenvalues --   -0.37953  -0.37747  -0.37672  -0.37506  -0.37190
 Alpha  occ. eigenvalues --   -0.37140  -0.36754  -0.36651  -0.36440  -0.36262
 Alpha  occ. eigenvalues --   -0.36196  -0.36094  -0.35969  -0.35763  -0.35642
 Alpha  occ. eigenvalues --   -0.35353  -0.35229  -0.34907  -0.34741  -0.34673
 Alpha  occ. eigenvalues --   -0.34481  -0.34158  -0.34015  -0.33811  -0.33676
 Alpha  occ. eigenvalues --   -0.33612  -0.33397  -0.32864  -0.32633  -0.32559
 Alpha  occ. eigenvalues --   -0.32435  -0.31861  -0.31465  -0.31347  -0.31198
 Alpha  occ. eigenvalues --   -0.30908  -0.30721  -0.30469  -0.30402  -0.30327
 Alpha  occ. eigenvalues --   -0.29960  -0.29718  -0.28523  -0.28393  -0.28226
 Alpha  occ. eigenvalues --   -0.27689  -0.27207  -0.27059  -0.26912  -0.25918
 Alpha  occ. eigenvalues --   -0.24291  -0.24286  -0.23550  -0.22849  -0.20092
 Alpha  occ. eigenvalues --   -0.18478
 Alpha virt. eigenvalues --   -0.09734  -0.08063  -0.03882  -0.01443  -0.01006
 Alpha virt. eigenvalues --    0.00006   0.00603   0.01678   0.02907   0.03142
 Alpha virt. eigenvalues --    0.03730   0.03965   0.04129   0.04380   0.04436

 Mulliken charges:
               1
     1  C    0.028942
     2  C   -0.037452
     3  C   -0.134072
     4  C   -0.020100
     5  N   -0.133473
     6  C   -0.031898
     7  C   -0.127775
     8  C   -0.017051
     9  C    0.071319
    10  C    0.060090
    11  C    0.078947
    12  C   -0.007687
    13  C    0.179987
    14  O   -0.266642
    15  O   -0.313950
    16  N   -0.176750
    17  C    0.098252
    18  C   -0.099125
    19  C    0.026415
    20  C    0.125404
    21  C    0.007418
    22  C   -0.025305
    23  C   -0.005988
    24  N   -0.250459
    25  C    0.061315
    26  C   -0.147942
    27  C   -0.035490
    28  C    0.061669
    29  C    0.169403
    30  C    0.051070
    31  C   -0.056523
    32  N    0.046399
    33  C    0.057228
    34  C   -0.164447
    35  C    0.020775
    36  C   -0.005614
    37  C    0.116282
    38  C    0.035209
    39  O   -0.133691
    40  C   -0.097130
    41  C    0.147998
    42  O   -0.131036
    43  O   -0.355303
    44  C    0.247063
    45  C    0.292392
    46  C   -0.094856
    47  C   -0.124056
    48  C    0.004629
    49  C    0.073577
    50  C   -0.040998
    51  C    0.072068
    52  C    0.013489
    53  C   -0.002674
    54  C   -0.037920
    55  C    0.010208
    56  C    0.052170
    57  C   -0.123612
    58  C    0.047599
    59  C   -0.017700
    60  C    0.026136
    61  C    0.062893
    62  C   -0.006978
    63  C   -0.114343
    64  C    0.058429
    65  H   -0.025044
    66  H    0.009247
    67  H   -0.054950
    68  H    0.049920
    69  H   -0.025700
    70  H   -0.001945
    71  H   -0.012222
    72  H    0.015758
    73  H   -0.039627
    74  H    0.025354
    75  H    0.044917
    76  H    0.059224
    77  H    0.048048
    78  H    0.011184
    79  H    0.031919
    80  H   -0.004240
    81  H    0.020439
    82  H    0.026598
    83  H   -0.026019
    84  H    0.052276
    85  H   -0.034055
    86  H   -0.002229
    87  H   -0.028736
    88  H    0.030888
    89  H    0.023917
    90  H    0.019199
    91  H    0.042992
    92  H    0.039871
    93  H    0.030592
    94  H    0.042932
    95  H    0.016501
    96  H   -0.009428
    97  H    0.050344
    98  H    0.026660
    99  H    0.045547
   100  H   -0.032631
   101  H    0.028987
   102  H    0.035086
   103  H    0.006265
   104  H    0.027742
   105  H    0.012113
   106  H    0.011716
   107  H    0.002749
   108  H   -0.017068
   109  H   -0.053010
   110  H   -0.031800
   111  H    0.008601
   112  H   -0.003407
   113  H   -0.001696
   114  H    0.024509
   115  H    0.016525
   116  H    0.024358
   117  H    0.012333
   118  H   -0.034661
   119  H    0.007805
   120  H    0.008834
   121  H   -0.000632
   122  H    0.013000
   123  H    0.004001
   124  H   -0.008469
   125  H    0.016528
   126  H   -0.020756
   127  H   -0.002022
   128  H   -0.051948
   129  H   -0.020111
   130  H   -0.024077
   131  H    0.025425
   132  H    0.027836
   133  H    0.030151
   134  H    0.018357
   135  H   -0.005331
   136  H    0.005227
   137  H    0.199729
   138  H    0.172871
 Sum of Mulliken charges =  -0.00000

 Dipole moment (field-independent basis, Debye):
    X=              1.2993    Y=              2.9934    Z=              1.2073  Tot=              3.4794
 Quadrupole moment (field-independent basis, Debye-Ang):
   XX=           -343.3291   YY=           -383.9588   ZZ=           -396.2640
   XY=            -22.0730   XZ=              1.2569   YZ=              2.1844

 Normal termination of Gaussian 16 at Tue Aug 13 15:40:24 2019.
