 Gaussian 16, Revision A.03,
 Gaussian 16:  ES64L-G16RevA.03 25-Dec-2016

 --------------------------
 # td=(NStates=1) B3LYP/SVP
 --------------------------

 --
 TD
 --
 Symbolic Z-matrix:
 Charge =  0 Multiplicity = 1

                         Standard orientation:
 ---------------------------------------------------------------------
 Center     Atomic      Atomic             Coordinates (Angstroms)
 Number     Number       Type             X           Y           Z
 ---------------------------------------------------------------------
      1          6           0       -5.151297   -1.980171    0.360628
      2          6           0       -4.678050    2.621160    1.426307
      3          6           0       -9.257678    3.351752   -0.186319
      4          6           0       -9.921983   -1.347099   -0.797528
      5          7           0       -5.122869    0.410200    0.533042
      6          6           0       -4.422731   -0.779100    0.668043
      7          6           0       -3.061176   -0.620001    1.111682
      8          6           0       -3.041035    0.836001    1.646556
      9          6           0       -4.291609    1.324122    1.072094
     10          6           0       -3.004732    0.824902    3.228757
     11          6           0       -2.057569   -0.903608    0.001997
     12          6           0       -0.605394   -0.797547    0.382122
     13          6           0        0.429778   -1.041688   -0.693940
     14          8           0        0.152433   -1.119541   -1.910495
     15          8           0        1.713865   -1.009269   -0.158416
     16          7           0       -7.003395    2.812570    0.554120
     17          6           0       -5.818819    3.356591    1.041392
     18          6           0       -6.133480    4.748738    1.020669
     19          6           0       -7.445737    5.048954    0.561658
     20          6           0       -7.919127    3.755168    0.250980
     21          6           0       -5.055139    5.814324    1.470986
     22          6           0       -8.052868    6.327331    0.465008
     23          6           0       -8.915503    6.785831   -0.441528
     24          7           0       -9.217444    0.930877   -0.385085
     25          6           0       -9.763299    2.148827   -0.397647
     26          6           0      -11.250803    1.904834   -0.843715
     27          6           0      -11.413324    0.674647   -1.111497
     28          6           0      -10.151423   -0.016609   -0.733970
     29          6           0      -12.093473    3.166065   -1.048622
     30          6           0      -12.639205   -0.110964   -1.657283
     31          6           0      -12.503710   -0.479461   -2.998350
     32          7           0       -7.583338   -1.261238   -0.236718
     33          6           0       -8.742288   -1.960230   -0.629546
     34          6           0       -8.359038   -3.402887   -0.664639
     35          6           0       -7.060064   -3.418969   -0.165029
     36          6           0       -6.535648   -2.048048    0.077148
     37          6           0       -9.299773   -4.496650   -0.959995
     38          6           0       -5.884888   -4.389043    0.124642
     39          8           0       -5.868672   -5.580655    0.088761
     40          6           0       -4.615258   -3.353687    0.313298
     41          6           0       -4.089824   -3.884667    1.621884
     42          8           0       -4.517081   -3.474133    2.771123
     43          8           0       -3.034989   -4.745536    1.425784
     44          6           0       -2.577641   -5.371454    2.616040
     45          6           0        2.673252   -1.152456   -1.204532
     46          6           0        3.958702   -0.807548   -0.600620
     47          6           0        4.933022   -0.008583   -1.157442
     48          6           0        4.857836    0.626851   -2.461948
     49          6           0        6.268051    0.248047   -0.274274
     50          6           0        7.554782   -0.453636   -0.860963
     51          6           0        8.858809   -0.108539   -0.087217
     52          6           0       10.102372   -0.737956   -0.818560
     53          6           0       10.039413   -2.309854   -0.939551
     54          6           0       11.255327   -0.200514    0.087328
     55          6           0       12.616571   -0.589293   -0.470043
     56          6           0       13.766435    0.041737    0.364592
     57          6           0       15.190680   -0.202195   -0.209349
     58          6           0       15.525199   -1.764005   -0.303439
     59          6           0       16.378831    0.517952    0.611809
     60          6           0       17.659913    0.618339   -0.180254
     61          6           0       18.642790    1.541465    0.525392
     62          6           0       20.106532    1.679831    0.018175
     63          6           0       20.180484    2.401245   -1.305530
     64          6           0       21.061470    2.432201    1.008468
     65          1           0       -3.805295    3.167556    1.656686
     66          1           0       -9.942929    4.241394   -0.322773
     67          1           0      -10.752390   -1.986172   -1.104470
     68          1           0       -2.899011   -1.510328    1.845905
     69          1           0       -2.258457    1.324514    1.305101
     70          1           0       -2.039520    0.135189    3.542846
     71          1           0       -2.822305    1.959505    3.715829
     72          1           0       -3.917739    0.413150    3.617303
     73          1           0       -2.122266   -1.919475   -0.591632
     74          1           0       -2.153978   -0.229160   -0.828979
     75          1           0       -0.464919   -0.007298    1.009817
     76          1           0       -0.166049   -1.588496    1.091721
     77          1           0       -4.131374    5.628725    0.896281
     78          1           0       -5.483721    6.907507    1.417762
     79          1           0       -4.788448    5.573847    2.457029
     80          1           0       -7.789255    6.972603    1.258422
     81          1           0       -9.214877    6.081081   -1.213454
     82          1           0       -9.468207    7.701824   -0.602859
     83          1           0      -12.031461    3.904666   -0.207400
     84          1           0      -11.942520    3.813429   -1.970437
     85          1           0      -13.244459    2.975469   -0.879963
     86          1           0      -12.450650   -1.139601   -0.853111
     87          1           0      -13.546262    0.528511   -1.430168
     88          1           0      -12.666768    0.463166   -3.611708
     89          1           0      -11.556850   -1.070290   -3.258054
     90          1           0      -13.221761   -1.246020   -3.434330
     91          1           0      -10.220557   -4.674917   -0.433307
     92          1           0       -9.382891   -4.623657   -2.073451
     93          1           0       -8.747633   -5.408572   -0.675498
     94          1           0       -4.047955   -3.606175   -0.588262
     95          1           0       -1.961440   -6.238823    2.173853
     96          1           0       -1.872099   -4.720114    3.286446
     97          1           0       -3.436355   -5.578199    3.277302
     98          1           0        2.859241   -2.260260   -1.737048
     99          1           0        2.431613   -0.419106   -2.105619
    100          1           0        4.126688   -1.344312    0.381824
    101          1           0        5.049980    1.791156   -2.329563
    102          1           0        5.577975    0.288532   -3.116350
    103          1           0        4.049297    0.607209   -3.345214
    104          1           0        6.362939    1.525362   -0.043768
    105          1           0        6.056422   -0.024678    0.810955
    106          1           0        7.229157   -1.567094   -0.768026
    107          1           0        7.661889   -0.156231   -1.908793
    108          1           0        8.862475    0.911588    0.051885
    109          1           0        8.623019   -0.393799    0.932426
    110          1           0       10.245540   -0.372023   -1.862184
    111          1           0        9.233748   -2.586796   -1.685864
    112          1           0       10.970214   -2.542590   -1.415041
    113          1           0       10.001467   -2.657078    0.136092
    114          1           0       11.122939    0.946035    0.391725
    115          1           0       11.077948   -0.912751    1.171011
    116          1           0       12.743180   -1.695886   -0.498191
    117          1           0       12.634812   -0.342391   -1.599880
    118          1           0       13.652453    0.976234    0.512104
    119          1           0       13.871601   -0.569849    1.372290
    120          1           0       15.222356    0.133285   -1.217291
    121          1           0       14.753115   -2.443334   -0.643099
    122          1           0       16.518408   -2.163823   -0.738450
    123          1           0       15.546965   -2.225360    0.675948
    124          1           0       15.910686    1.719280    0.441518
    125          1           0       16.537662    0.275949    1.590914
    126          1           0       18.164063   -0.294382   -0.251485
    127          1           0       17.584272    0.873535   -1.168269
    128          1           0       18.076772    2.638219    0.532142
    129          1           0       18.784306    1.336098    1.563374
    130          1           0       20.691250    0.631936    0.071441
    131          1           0       19.670999    3.317708   -1.013271
    132          1           0       21.152672    2.471226   -1.714374
    133          1           0       19.670582    1.627998   -1.981951
    134          1           0       21.016951    1.918364    1.957234
    135          1           0       21.914544    2.543031    0.666573
    136          1           0       20.768715    3.460107    1.126159
    137          1           0       -6.979016    1.705881    0.328273
    138          1           0       -7.454605   -0.148329   -0.280118
 ---------------------------------------------------------------------

 SCF Done:  E(RB3LYP) =  -2733.03442712     A.U. after   17 cycles

 Excitation energies and oscillator strengths:

 Excited State   1:      Singlet-A      1.9940 eV  621.78 nm  f=0.2390  <S**2>=0.000
     235 -> 238       -0.24870
     236 -> 237        0.65670
 This state for optimization and/or second-order correction.
 Total Energy, E(TD-HF/TD-DFT) =  -2732.96114797
 Copying the excited state density for this state as the 1-particle RhoCI density.

 The electronic state is 1-A.
 Alpha  occ. eigenvalues --  -19.19241 -19.19106 -19.14265 -19.13483 -19.12827
 Alpha  occ. eigenvalues --  -14.37160 -14.36790 -14.33108 -14.30052 -10.32788
 Alpha  occ. eigenvalues --  -10.32709 -10.29563 -10.25768 -10.25462 -10.23859
 Alpha  occ. eigenvalues --  -10.23590 -10.23564 -10.23477 -10.23005 -10.22310
 Alpha  occ. eigenvalues --  -10.22164 -10.22070 -10.21735 -10.21516 -10.21347
 Alpha  occ. eigenvalues --  -10.21174 -10.21131 -10.20986 -10.20828 -10.20764
 Alpha  occ. eigenvalues --  -10.20763 -10.20550 -10.20431 -10.20199 -10.20115
 Alpha  occ. eigenvalues --  -10.20088 -10.20013 -10.19960 -10.19818 -10.19810
 Alpha  occ. eigenvalues --  -10.19750 -10.19720 -10.19630 -10.19610 -10.19577
 Alpha  occ. eigenvalues --  -10.19552 -10.19343 -10.19279 -10.19147 -10.19106
 Alpha  occ. eigenvalues --  -10.19011 -10.18974 -10.18891 -10.18885 -10.18816
 Alpha  occ. eigenvalues --  -10.18571 -10.18219 -10.17849 -10.17793 -10.17659
 Alpha  occ. eigenvalues --  -10.17619 -10.17404 -10.16797 -10.15332  -1.09021
 Alpha  occ. eigenvalues --   -1.08597  -1.05263  -1.00170  -0.97994  -0.97663
 Alpha  occ. eigenvalues --   -0.97168  -0.95618  -0.93468  -0.84588  -0.82575
 Alpha  occ. eigenvalues --   -0.81607  -0.81517  -0.81231  -0.81158  -0.80571
 Alpha  occ. eigenvalues --   -0.80251  -0.79926  -0.79614  -0.79205  -0.78173
 Alpha  occ. eigenvalues --   -0.76803  -0.76426  -0.75494  -0.75016  -0.74769
 Alpha  occ. eigenvalues --   -0.73840  -0.73552  -0.72805  -0.71388  -0.70875
 Alpha  occ. eigenvalues --   -0.69903  -0.69042  -0.68461  -0.68374  -0.67715
 Alpha  occ. eigenvalues --   -0.67425  -0.66835  -0.66194  -0.66014  -0.65150
 Alpha  occ. eigenvalues --   -0.64019  -0.63046  -0.62468  -0.61279  -0.60888
 Alpha  occ. eigenvalues --   -0.60259  -0.59425  -0.58895  -0.58248  -0.57941
 Alpha  occ. eigenvalues --   -0.57198  -0.56578  -0.56034  -0.55796  -0.55477
 Alpha  occ. eigenvalues --   -0.54689  -0.54564  -0.54041  -0.53704  -0.53094
 Alpha  occ. eigenvalues --   -0.52621  -0.52544  -0.52065  -0.51712  -0.51030
 Alpha  occ. eigenvalues --   -0.49943  -0.48952  -0.48740  -0.48392  -0.48301
 Alpha  occ. eigenvalues --   -0.48026  -0.47707  -0.47495  -0.47449  -0.47116
 Alpha  occ. eigenvalues --   -0.46859  -0.46551  -0.46255  -0.45679  -0.45471
 Alpha  occ. eigenvalues --   -0.45315  -0.45099  -0.44928  -0.44906  -0.44708
 Alpha  occ. eigenvalues --   -0.44332  -0.44296  -0.44096  -0.43942  -0.43866
 Alpha  occ. eigenvalues --   -0.43686  -0.43444  -0.43352  -0.43022  -0.42976
 Alpha  occ. eigenvalues --   -0.42523  -0.42458  -0.41881  -0.41696  -0.41490
 Alpha  occ. eigenvalues --   -0.41262  -0.41099  -0.40805  -0.40551  -0.40261
 Alpha  occ. eigenvalues --   -0.40164  -0.40019  -0.39817  -0.39755  -0.39547
 Alpha  occ. eigenvalues --   -0.39472  -0.39046  -0.38977  -0.38777  -0.38487
 Alpha  occ. eigenvalues --   -0.38444  -0.38292  -0.38048  -0.37735  -0.37646
 Alpha  occ. eigenvalues --   -0.37557  -0.37248  -0.37128  -0.36846  -0.36709
 Alpha  occ. eigenvalues --   -0.36678  -0.36236  -0.36103  -0.35919  -0.35753
 Alpha  occ. eigenvalues --   -0.35580  -0.35446  -0.35384  -0.34977  -0.34791
 Alpha  occ. eigenvalues --   -0.34670  -0.34656  -0.34476  -0.33964  -0.33892
 Alpha  occ. eigenvalues --   -0.33455  -0.33131  -0.33051  -0.32791  -0.32686
 Alpha  occ. eigenvalues --   -0.31959  -0.31762  -0.31652  -0.31370  -0.30885
 Alpha  occ. eigenvalues --   -0.30806  -0.30751  -0.30232  -0.30214  -0.30012
 Alpha  occ. eigenvalues --   -0.29594  -0.29228  -0.29064  -0.28340  -0.28153
 Alpha  occ. eigenvalues --   -0.27979  -0.27835  -0.26751  -0.26509  -0.25639
 Alpha  occ. eigenvalues --   -0.25061  -0.24171  -0.23907  -0.23442  -0.19986
 Alpha  occ. eigenvalues --   -0.18624
 Alpha virt. eigenvalues --   -0.10573  -0.06753  -0.04709  -0.02028  -0.01756
 Alpha virt. eigenvalues --   -0.01382   0.00143   0.00630   0.01426   0.03437
 Alpha virt. eigenvalues --    0.03630   0.03877   0.04453   0.04698   0.04889

 Mulliken charges:
               1
     1  C    0.005236
     2  C   -0.016608
     3  C   -0.111521
     4  C   -0.104758
     5  N   -0.199527
     6  C   -0.032199
     7  C   -0.031130
     8  C    0.094512
     9  C   -0.039080
    10  C   -0.003052
    11  C    0.041183
    12  C    0.053121
    13  C    0.223282
    14  O   -0.259122
    15  O   -0.315099
    16  N   -0.128621
    17  C    0.099889
    18  C   -0.161509
    19  C    0.082494
    20  C    0.041852
    21  C    0.094746
    22  C   -0.047952
    23  C   -0.030115
    24  N   -0.213317
    25  C    0.092003
    26  C   -0.105186
    27  C   -0.072313
    28  C    0.074600
    29  C    0.029471
    30  C    0.017641
    31  C    0.015202
    32  N   -0.112369
    33  C    0.099406
    34  C   -0.134012
    35  C   -0.052737
    36  C    0.094630
    37  C    0.098918
    38  C    0.074460
    39  O   -0.132036
    40  C   -0.047210
    41  C    0.245859
    42  O   -0.301352
    43  O   -0.296798
    44  C    0.139440
    45  C    0.194601
    46  C   -0.113579
    47  C   -0.081977
    48  C    0.023302
    49  C   -0.044920
    50  C    0.004576
    51  C    0.108258
    52  C   -0.098611
    53  C    0.041726
    54  C   -0.067633
    55  C    0.020672
    56  C    0.136078
    57  C   -0.026873
    58  C   -0.007066
    59  C    0.004206
    60  C    0.160553
    61  C   -0.018095
    62  C   -0.183792
    63  C    0.077427
    64  C    0.161919
    65  H   -0.044062
    66  H   -0.016119
    67  H   -0.026406
    68  H    0.034915
    69  H   -0.054828
    70  H    0.035378
    71  H    0.039767
    72  H    0.040704
    73  H    0.032281
    74  H   -0.000166
    75  H   -0.011365
    76  H    0.021630
    77  H    0.024447
    78  H    0.034139
    79  H    0.006716
    80  H   -0.012123
    81  H    0.014175
    82  H    0.024230
    83  H    0.018064
    84  H    0.040801
    85  H    0.009650
    86  H    0.025424
    87  H    0.016701
    88  H    0.022362
    89  H    0.021004
    90  H    0.012175
    91  H    0.037317
    92  H    0.031251
    93  H    0.017851
    94  H    0.057616
    95  H    0.051306
    96  H    0.034994
    97  H    0.049085
    98  H    0.051305
    99  H    0.048108
   100  H    0.005683
   101  H    0.028550
   102  H    0.000282
   103  H    0.031505
   104  H    0.009892
   105  H    0.010126
   106  H    0.023943
   107  H    0.002352
   108  H   -0.039163
   109  H   -0.022971
   110  H   -0.002724
   111  H    0.029539
   112  H    0.002212
   113  H    0.025414
   114  H    0.030682
   115  H    0.005435
   116  H    0.008428
   117  H   -0.002793
   118  H   -0.068896
   119  H    0.005958
   120  H   -0.019289
   121  H   -0.010690
   122  H    0.018731
   123  H   -0.024504
   124  H    0.005709
   125  H   -0.017859
   126  H   -0.035614
   127  H   -0.036617
   128  H   -0.005700
   129  H   -0.022895
   130  H   -0.000101
   131  H    0.015027
   132  H   -0.004657
   133  H    0.010592
   134  H    0.000078
   135  H   -0.074499
   136  H   -0.027926
   137  H    0.199395
   138  H    0.197946
 Sum of Mulliken charges =  -0.00000

 Dipole moment (field-independent basis, Debye):
    X=              2.7063    Y=              2.0602    Z=             -0.5996  Tot=              3.4537
 Quadrupole moment (field-independent basis, Debye-Ang):
   XX=           -353.4785   YY=           -385.7081   ZZ=           -396.6763
   XY=            -22.0120   XZ=             13.2215   YZ=              2.2495

 Normal termination of Gaussian 16 at Tue Aug 13 17:26:31 2019.
