 Gaussian 16, Revision A.03,
 Gaussian 16:  ES64L-G16RevA.03 25-Dec-2016

 --------------------------
 # td=(NStates=1) B3LYP/SVP
 --------------------------

 --
 TD
 --
 Symbolic Z-matrix:
 Charge =  0 Multiplicity = 1

                         Standard orientation:
 ---------------------------------------------------------------------
 Center     Atomic      Atomic             Coordinates (Angstroms)
 Number     Number       Type             X           Y           Z
 ---------------------------------------------------------------------
      1          6           0       -5.184174   -1.911486    0.364933
      2          6           0       -4.621579    2.684236    1.497391
      3          6           0       -9.155646    3.282147   -0.298761
      4          6           0       -9.836196   -1.354765   -1.069488
      5          7           0       -5.144051    0.410926    0.904047
      6          6           0       -4.499440   -0.731550    0.853351
      7          6           0       -3.004706   -0.648006    1.333304
      8          6           0       -3.045729    0.760359    1.978749
      9          6           0       -4.282429    1.337636    1.295334
     10          6           0       -2.963642    0.863504    3.507405
     11          6           0       -2.070698   -0.689915    0.191115
     12          6           0       -0.559657   -0.721291    0.676007
     13          6           0        0.274247   -1.157669   -0.423889
     14          8           0       -0.039574   -1.523539   -1.573715
     15          8           0        1.586333   -0.794162   -0.165096
     16          7           0       -6.981423    2.732884    0.572880
     17          6           0       -5.829992    3.328236    0.982002
     18          6           0       -6.050620    4.766774    1.058298
     19          6           0       -7.311724    4.968739    0.557398
     20          6           0       -7.923646    3.610565    0.231887
     21          6           0       -4.980634    5.752926    1.443570
     22          6           0       -7.963426    6.300704    0.583920
     23          6           0       -8.966037    6.778041   -0.183338
     24          7           0       -9.179492    0.883602   -0.446006
     25          6           0       -9.820292    2.100429   -0.508260
     26          6           0      -11.214302    1.989963   -1.041156
     27          6           0      -11.304352    0.641362   -1.387192
     28          6           0      -10.074816   -0.014578   -0.885519
     29          6           0      -12.148230    3.140711   -1.510099
     30          6           0      -12.505756   -0.064458   -1.912087
     31          6           0      -12.386540   -0.624656   -3.389617
     32          7           0       -7.535451   -1.202068   -0.240613
     33          6           0       -8.643785   -1.994392   -0.687613
     34          6           0       -8.259590   -3.344832   -0.648940
     35          6           0       -6.908598   -3.434228   -0.182874
     36          6           0       -6.560564   -2.060851   -0.038030
     37          6           0       -9.099304   -4.508187   -1.179862
     38          6           0       -5.737465   -4.306518    0.061950
     39          8           0       -5.810687   -5.466597   -0.172814
     40          6           0       -4.557129   -3.390848    0.521375
     41          6           0       -3.998427   -3.842569    1.845680
     42          8           0       -4.303725   -3.254370    2.874349
     43          8           0       -3.253473   -4.922340    1.599188
     44          6           0       -2.637662   -5.480541    2.802265
     45          6           0        2.570009   -1.142847   -1.186404
     46          6           0        3.998119   -0.689934   -0.552100
     47          6           0        4.812586    0.061880   -1.017463
     48          6           0        4.771604    0.675693   -2.480229
     49          6           0        6.120436    0.426990   -0.261176
     50          6           0        7.469457   -0.288096   -0.949009
     51          6           0        8.655167   -0.006858   -0.144362
     52          6           0       10.037045   -0.657172   -0.747208
     53          6           0        9.945686   -2.271273   -0.711440
     54          6           0       11.319189   -0.253217   -0.009209
     55          6           0       12.616503   -0.775972   -0.544223
     56          6           0       13.765748   -0.076717    0.263137
     57          6           0       15.258096   -0.152101   -0.385769
     58          6           0       15.758779   -1.708892   -0.671682
     59          6           0       16.263486    0.581188    0.469474
     60          6           0       17.636655    0.632724   -0.188576
     61          6           0       18.613444    1.436043    0.599098
     62          6           0       19.988639    1.647854   -0.061751
     63          6           0       19.960949    2.487761   -1.411050
     64          6           0       20.882375    2.259077    0.946832
     65          1           0       -3.889403    3.283191    1.952421
     66          1           0      -10.026138    4.116980   -0.345811
     67          1           0      -10.511783   -2.195089   -1.509864
     68          1           0       -2.999022   -1.437701    2.150526
     69          1           0       -2.002062    1.375574    1.646973
     70          1           0       -2.074576    0.635147    3.878172
     71          1           0       -3.378559    2.013196    3.715971
     72          1           0       -3.613187    0.229478    4.132272
     73          1           0       -2.162953   -1.702314   -0.196142
     74          1           0       -2.171331   -0.077742   -0.680572
     75          1           0       -0.270289    0.409459    1.038475
     76          1           0       -0.482665   -1.428686    1.513774
     77          1           0       -4.312506    5.808993    0.776745
     78          1           0       -5.407803    6.716904    1.627375
     79          1           0       -4.465260    5.489347    2.435420
     80          1           0       -7.446580    6.916993    1.294679
     81          1           0       -9.536355    5.999586   -0.903713
     82          1           0       -9.361196    7.723407   -0.022660
     83          1           0      -12.179151    3.939377   -0.753316
     84          1           0      -11.733522    3.557922   -2.592608
     85          1           0      -13.111895    2.811645   -1.669022
     86          1           0      -12.692637   -1.055196   -1.197196
     87          1           0      -13.288091    0.598381   -1.897616
     88          1           0      -12.101815    0.130973   -4.138159
     89          1           0      -11.551888   -1.399362   -3.382994
     90          1           0      -13.333020   -1.140157   -3.754348
     91          1           0      -10.118200   -4.569268   -0.744901
     92          1           0       -9.204003   -4.474190   -2.427180
     93          1           0       -8.635439   -5.408688   -0.893375
     94          1           0       -3.554857   -3.575240   -0.100179
     95          1           0       -1.890910   -6.290450    2.329196
     96          1           0       -1.990841   -4.750985    3.332432
     97          1           0       -3.464139   -5.759409    3.417241
     98          1           0        2.507709   -2.301554   -1.323134
     99          1           0        2.251592   -0.465955   -2.044450
    100          1           0        4.294509   -1.114143    0.418398
    101          1           0        4.872895    1.752267   -2.517870
    102          1           0        5.639578    0.100121   -3.067064
    103          1           0        3.900739    0.573302   -3.019936
    104          1           0        6.178523    1.546135   -0.095919
    105          1           0        6.051914   -0.083861    0.698581
    106          1           0        7.063334   -1.396766   -0.963715
    107          1           0        7.388867    0.122626   -1.967337
    108          1           0        9.053757    1.121266   -0.270376
    109          1           0        8.702374   -0.372176    1.033252
    110          1           0        9.919670   -0.406913   -1.844671
    111          1           0        9.380309   -2.721824   -1.479250
    112          1           0       11.062024   -2.814564   -0.938555
    113          1           0        9.791262   -2.615431    0.270212
    114          1           0       11.379937    0.785692    0.179700
    115          1           0       10.987063   -0.572268    1.022878
    116          1           0       12.548826   -1.802623   -0.366076
    117          1           0       12.786091   -0.660284   -1.697018
    118          1           0       13.590804    0.813745    0.412724
    119          1           0       13.827606   -0.407057    1.225781
    120          1           0       15.370046    0.444632   -1.354404
    121          1           0       14.809805   -2.445247   -1.029094
    122          1           0       16.488018   -1.856353   -1.453799
    123          1           0       15.887066   -2.138698    0.277446
    124          1           0       16.005154    1.612533    0.543000
    125          1           0       16.283845   -0.018596    1.520381
    126          1           0       18.065191   -0.358672   -0.091424
    127          1           0       17.654234    0.933382   -1.375644
    128          1           0       18.235269    2.499570    0.613568
    129          1           0       18.771679    0.985545    1.507477
    130          1           0       20.511886    0.723424   -0.491231
    131          1           0       19.392122    3.487914   -1.304605
    132          1           0       20.962772    2.523003   -1.982386
    133          1           0       19.408984    1.668347   -2.171628
    134          1           0       21.021058    1.741765    1.992300
    135          1           0       21.921254    2.316932    0.457696
    136          1           0       20.456717    3.380189    1.267444
    137          1           0       -7.062886    1.735352    0.824024
    138          1           0       -7.616178   -0.162904    0.148633
 ---------------------------------------------------------------------

 SCF Done:  E(RB3LYP) =  -2733.03329378     A.U. after   17 cycles

 Excitation energies and oscillator strengths:

 Excited State   1:      Singlet-A      2.0667 eV  599.91 nm  f=0.1443  <S**2>=0.000
     235 -> 237       -0.14911
     235 -> 238       -0.32298
     236 -> 237        0.60237
 This state for optimization and/or second-order correction.
 Total Energy, E(TD-HF/TD-DFT) =  -2732.95734359
 Copying the excited state density for this state as the 1-particle RhoCI density.

 The electronic state is 1-A.
 Alpha  occ. eigenvalues --  -19.19696 -19.16648 -19.13258 -19.12650 -19.12083
 Alpha  occ. eigenvalues --  -14.37711 -14.36166 -14.32111 -14.29851 -10.32335
 Alpha  occ. eigenvalues --  -10.31592 -10.27864 -10.26546 -10.26180 -10.24084
 Alpha  occ. eigenvalues --  -10.23902 -10.22879 -10.22793 -10.22554 -10.22260
 Alpha  occ. eigenvalues --  -10.21936 -10.21677 -10.21372 -10.21249 -10.21231
 Alpha  occ. eigenvalues --  -10.21052 -10.20887 -10.20804 -10.20642 -10.20425
 Alpha  occ. eigenvalues --  -10.20369 -10.20275 -10.20263 -10.20252 -10.20209
 Alpha  occ. eigenvalues --  -10.20204 -10.20044 -10.20040 -10.19887 -10.19763
 Alpha  occ. eigenvalues --  -10.19659 -10.19604 -10.19563 -10.19491 -10.19323
 Alpha  occ. eigenvalues --  -10.19253 -10.19247 -10.19179 -10.19179 -10.19108
 Alpha  occ. eigenvalues --  -10.19008 -10.18924 -10.18746 -10.18610 -10.18592
 Alpha  occ. eigenvalues --  -10.18445 -10.18393 -10.18194 -10.18147 -10.18115
 Alpha  occ. eigenvalues --  -10.17938 -10.17561 -10.17377 -10.16170  -1.10433
 Alpha  occ. eigenvalues --   -1.07417  -1.04234  -1.01645  -0.99425  -0.98607
 Alpha  occ. eigenvalues --   -0.97555  -0.96041  -0.93224  -0.82861  -0.82496
 Alpha  occ. eigenvalues --   -0.81976  -0.81858  -0.81712  -0.80815  -0.80498
 Alpha  occ. eigenvalues --   -0.79396  -0.78853  -0.78750  -0.78669  -0.77469
 Alpha  occ. eigenvalues --   -0.76714  -0.76169  -0.75741  -0.74212  -0.73825
 Alpha  occ. eigenvalues --   -0.73256  -0.72657  -0.71704  -0.71238  -0.70743
 Alpha  occ. eigenvalues --   -0.69583  -0.68804  -0.68666  -0.68125  -0.67672
 Alpha  occ. eigenvalues --   -0.66947  -0.66362  -0.65875  -0.65751  -0.65367
 Alpha  occ. eigenvalues --   -0.64048  -0.63048  -0.62199  -0.61619  -0.61533
 Alpha  occ. eigenvalues --   -0.61088  -0.58569  -0.57886  -0.57497  -0.57358
 Alpha  occ. eigenvalues --   -0.56923  -0.56388  -0.55884  -0.54716  -0.54362
 Alpha  occ. eigenvalues --   -0.54293  -0.54010  -0.53473  -0.53410  -0.53186
 Alpha  occ. eigenvalues --   -0.52369  -0.51813  -0.51100  -0.50378  -0.50289
 Alpha  occ. eigenvalues --   -0.49598  -0.49229  -0.49062  -0.48799  -0.48365
 Alpha  occ. eigenvalues --   -0.47986  -0.47833  -0.47686  -0.47286  -0.46732
 Alpha  occ. eigenvalues --   -0.46250  -0.46193  -0.46158  -0.46081  -0.45547
 Alpha  occ. eigenvalues --   -0.45336  -0.45198  -0.44944  -0.44642  -0.44604
 Alpha  occ. eigenvalues --   -0.44158  -0.43837  -0.43630  -0.43492  -0.43328
 Alpha  occ. eigenvalues --   -0.43107  -0.42975  -0.42564  -0.42399  -0.42290
 Alpha  occ. eigenvalues --   -0.42006  -0.41890  -0.41771  -0.41433  -0.41333
 Alpha  occ. eigenvalues --   -0.41129  -0.41023  -0.40853  -0.40710  -0.40385
 Alpha  occ. eigenvalues --   -0.40109  -0.39826  -0.39396  -0.39249  -0.39187
 Alpha  occ. eigenvalues --   -0.39143  -0.38797  -0.38750  -0.38668  -0.38443
 Alpha  occ. eigenvalues --   -0.38307  -0.38149  -0.38039  -0.37849  -0.37604
 Alpha  occ. eigenvalues --   -0.37271  -0.37201  -0.36898  -0.36695  -0.36633
 Alpha  occ. eigenvalues --   -0.36557  -0.36146  -0.36101  -0.35951  -0.35773
 Alpha  occ. eigenvalues --   -0.35712  -0.35606  -0.35106  -0.34599  -0.34507
 Alpha  occ. eigenvalues --   -0.34378  -0.34049  -0.33827  -0.33812  -0.33550
 Alpha  occ. eigenvalues --   -0.33332  -0.32836  -0.32669  -0.32651  -0.32027
 Alpha  occ. eigenvalues --   -0.31786  -0.31637  -0.31396  -0.31195  -0.31116
 Alpha  occ. eigenvalues --   -0.31076  -0.30950  -0.30779  -0.30643  -0.30219
 Alpha  occ. eigenvalues --   -0.29804  -0.29180  -0.28792  -0.28331  -0.27971
 Alpha  occ. eigenvalues --   -0.27639  -0.27382  -0.26884  -0.26350  -0.26019
 Alpha  occ. eigenvalues --   -0.25855  -0.24597  -0.24031  -0.22556  -0.19323
 Alpha  occ. eigenvalues --   -0.18798
 Alpha virt. eigenvalues --   -0.10014  -0.07379  -0.03856  -0.02136  -0.01567
 Alpha virt. eigenvalues --   -0.00361   0.00494   0.02108   0.03024   0.03061
 Alpha virt. eigenvalues --    0.03663   0.04008   0.04139   0.04489   0.04845

 Mulliken charges:
               1
     1  C    0.035349
     2  C   -0.064788
     3  C   -0.088795
     4  C   -0.124575
     5  N   -0.134644
     6  C   -0.123711
     7  C   -0.013511
     8  C   -0.131813
     9  C    0.032270
    10  C    0.097139
    11  C    0.110266
    12  C    0.000007
    13  C    0.200564
    14  O   -0.265287
    15  O   -0.351023
    16  N   -0.005867
    17  C    0.056777
    18  C   -0.160344
    19  C    0.014315
    20  C    0.085948
    21  C    0.207426
    22  C   -0.040815
    23  C   -0.020589
    24  N   -0.246804
    25  C   -0.002734
    26  C   -0.126985
    27  C   -0.099706
    28  C    0.143808
    29  C    0.084994
    30  C    0.069136
    31  C   -0.030778
    32  N   -0.076856
    33  C    0.053543
    34  C   -0.147950
    35  C   -0.025923
    36  C    0.053787
    37  C    0.066478
    38  C    0.092167
    39  O   -0.133646
    40  C   -0.120666
    41  C    0.199301
    42  O   -0.239684
    43  O   -0.296408
    44  C    0.169767
    45  C    0.248119
    46  C   -0.065728
    47  C   -0.137742
    48  C    0.073241
    49  C    0.039272
    50  C   -0.012349
    51  C   -0.015855
    52  C   -0.098995
    53  C   -0.002391
    54  C    0.038896
    55  C    0.092843
    56  C    0.206011
    57  C   -0.104195
    58  C   -0.005786
    59  C    0.028424
    60  C   -0.008855
    61  C    0.095334
    62  C   -0.111982
    63  C   -0.065378
    64  C   -0.014918
    65  H   -0.040416
    66  H    0.018481
    67  H    0.013131
    68  H    0.028893
    69  H    0.011372
    70  H   -0.019959
    71  H    0.020519
    72  H    0.018030
    73  H   -0.002767
    74  H    0.018273
    75  H    0.074655
    76  H    0.029154
    77  H   -0.022931
    78  H   -0.007600
    79  H    0.026123
    80  H   -0.014388
    81  H    0.050295
    82  H    0.005808
    83  H    0.025893
    84  H    0.053194
    85  H   -0.008366
    86  H    0.030367
    87  H   -0.029379
    88  H    0.016536
    89  H    0.016845
    90  H    0.021698
    91  H    0.023999
    92  H    0.054862
    93  H    0.016905
    94  H    0.077661
    95  H    0.067176
    96  H    0.036037
    97  H    0.042816
    98  H    0.045966
    99  H    0.041096
   100  H   -0.022505
   101  H    0.010520
   102  H    0.042936
   103  H   -0.025264
   104  H    0.021002
   105  H   -0.012853
   106  H    0.027266
   107  H    0.015927
   108  H    0.024144
   109  H    0.026421
   110  H   -0.007118
   111  H    0.007987
   112  H    0.005035
   113  H   -0.005583
   114  H   -0.033850
   115  H   -0.015609
   116  H   -0.009979
   117  H    0.016603
   118  H   -0.105225
   119  H   -0.050261
   120  H   -0.007775
   121  H    0.005612
   122  H    0.031188
   123  H   -0.002800
   124  H   -0.016157
   125  H    0.008691
   126  H   -0.017154
   127  H    0.019247
   128  H   -0.010454
   129  H   -0.024704
   130  H   -0.004489
   131  H    0.035407
   132  H    0.028565
   133  H    0.020996
   134  H    0.022158
   135  H    0.014175
   136  H    0.013015
   137  H    0.157131
   138  H    0.200667
 Sum of Mulliken charges =  -0.00000

 Dipole moment (field-independent basis, Debye):
    X=              2.9662    Y=              2.9127    Z=              2.2328  Tot=              4.7189
 Quadrupole moment (field-independent basis, Debye-Ang):
   XX=           -370.1042   YY=           -381.9840   ZZ=           -392.6069
   XY=            -24.7607   XZ=              4.8805   YZ=             -6.7059

 Normal termination of Gaussian 16 at Tue Aug 27 14:36:19 2019.
