 Gaussian 16, Revision A.03,
 Gaussian 16:  ES64L-G16RevA.03 25-Dec-2016

 --------------------------
 # td=(NStates=1) B3LYP/SVP
 --------------------------

 --
 TD
 --
 Symbolic Z-matrix:
 Charge =  0 Multiplicity = 1

                         Standard orientation:
 ---------------------------------------------------------------------
 Center     Atomic      Atomic             Coordinates (Angstroms)
 Number     Number       Type             X           Y           Z
 ---------------------------------------------------------------------
      1          6           0       -5.154344   -1.913404    0.421710
      2          6           0       -4.736166    2.739359    1.497101
      3          6           0       -9.247749    3.408154   -0.286434
      4          6           0       -9.843559   -1.456075   -0.945726
      5          7           0       -5.148265    0.373375    0.784847
      6          6           0       -4.501682   -0.777478    0.843222
      7          6           0       -3.102445   -0.629141    1.265586
      8          6           0       -2.993341    0.811346    1.782932
      9          6           0       -4.417730    1.304545    1.263995
     10          6           0       -3.049511    0.876371    3.326840
     11          6           0       -2.044352   -0.827423    0.077258
     12          6           0       -0.603159   -0.670868    0.534772
     13          6           0        0.351377   -1.006508   -0.558087
     14          8           0       -0.024474   -1.434333   -1.598307
     15          8           0        1.573348   -0.751621   -0.240337
     16          7           0       -6.913944    2.772948    0.370262
     17          6           0       -5.829241    3.420368    0.954075
     18          6           0       -6.106982    4.727659    1.114344
     19          6           0       -7.397439    4.935353    0.667860
     20          6           0       -7.887407    3.639118    0.091348
     21          6           0       -5.029547    5.766683    1.517943
     22          6           0       -8.089298    6.270127    0.476327
     23          6           0       -8.986239    6.707368   -0.415037
     24          7           0       -9.159158    0.890352   -0.492108
     25          6           0       -9.836821    2.129538   -0.502698
     26          6           0      -11.198567    1.900513   -0.933068
     27          6           0      -11.486917    0.610890   -1.070856
     28          6           0      -10.075244   -0.073401   -0.754441
     29          6           0      -12.194198    3.067690   -1.126971
     30          6           0      -12.582350   -0.145146   -1.545369
     31          6           0      -12.520767   -0.647403   -3.075477
     32          7           0       -7.522936   -1.271273   -0.385582
     33          6           0       -8.591172   -1.991550   -0.660830
     34          6           0       -8.171847   -3.422837   -0.760098
     35          6           0       -6.827884   -3.407374   -0.407490
     36          6           0       -6.410164   -2.026469   -0.150487
     37          6           0       -9.113458   -4.582902   -0.911250
     38          6           0       -5.745626   -4.267202    0.012016
     39          8           0       -5.710505   -5.511294   -0.014950
     40          6           0       -4.592480   -3.394487    0.504667
     41          6           0       -4.069418   -3.832864    1.707734
     42          8           0       -4.081356   -3.246114    2.802111
     43          8           0       -3.309086   -5.050133    1.579195
     44          6           0       -2.755434   -5.512123    2.812394
     45          6           0        2.696447   -1.032696   -1.173979
     46          6           0        3.964697   -0.650960   -0.652367
     47          6           0        4.922855    0.196776   -1.114518
     48          6           0        4.771411    0.818749   -2.563289
     49          6           0        6.237859    0.425993   -0.400851
     50          6           0        7.480605   -0.296526   -1.056569
     51          6           0        8.770921   -0.156971   -0.222874
     52          6           0        9.983538   -0.676707   -0.798512
     53          6           0       10.037080   -2.238692   -0.859450
     54          6           0       11.392166   -0.121530   -0.099432
     55          6           0       12.634743   -0.665678   -0.549050
     56          6           0       13.833992   -0.035970    0.107443
     57          6           0       15.218846   -0.371544   -0.334530
     58          6           0       15.634511   -1.884699   -0.243413
     59          6           0       16.262857    0.505370    0.392456
     60          6           0       17.656326    0.613113   -0.116479
     61          6           0       18.461359    1.637949    0.607459
     62          6           0       20.049495    1.602713    0.167717
     63          6           0       20.373217    1.916751   -1.232160
     64          6           0       20.869418    2.532739    1.160999
     65          1           0       -4.101702    3.506794    1.885451
     66          1           0       -9.998909    4.285503   -0.439022
     67          1           0      -10.747978   -1.983508   -1.356374
     68          1           0       -2.752348   -1.398076    2.015420
     69          1           0       -2.309435    1.357346    1.267960
     70          1           0       -1.956997    0.623620    3.734657
     71          1           0       -3.046310    2.087096    3.424903
     72          1           0       -3.812563    0.176351    3.927989
     73          1           0       -2.213582   -1.487161   -0.775832
     74          1           0       -2.119947   -0.141565   -0.717237
     75          1           0       -0.140364    0.225977    0.880530
     76          1           0       -0.373710   -1.440419    1.343817
     77          1           0       -3.901728    5.580309    1.266826
     78          1           0       -5.408898    6.799240    1.255565
     79          1           0       -5.100588    5.780104    2.566852
     80          1           0       -7.801329    6.935451    1.233995
     81          1           0       -9.207784    6.077680   -1.260936
     82          1           0       -9.693533    7.516872   -0.387827
     83          1           0      -12.389716    3.830680   -0.350881
     84          1           0      -11.880124    3.674179   -1.865869
     85          1           0      -13.262288    2.826024   -1.527270
     86          1           0      -12.806252   -1.085946   -1.087195
     87          1           0      -13.606066    0.505448   -1.616418
     88          1           0      -12.238767    0.153642   -3.850490
     89          1           0      -11.647909   -1.566986   -3.046135
     90          1           0      -13.415463   -1.056159   -3.311609
     91          1           0      -10.048839   -4.482799   -0.165320
     92          1           0       -9.218265   -4.632921   -1.832484
     93          1           0       -8.685155   -5.508117   -0.616948
     94          1           0       -3.890243   -3.648915   -0.290768
     95          1           0       -2.315559   -6.412469    2.534700
     96          1           0       -1.999822   -4.662354    3.346132
     97          1           0       -3.784977   -5.602385    3.521793
     98          1           0        2.823599   -2.041202   -1.412791
     99          1           0        2.337185   -0.608137   -2.193758
    100          1           0        4.301958   -1.230311    0.319639
    101          1           0        5.077003    2.012185   -2.451211
    102          1           0        5.333041    0.361620   -3.333945
    103          1           0        3.634799    0.989853   -2.711500
    104          1           0        6.255009    1.456695   -0.340966
    105          1           0        6.190992    0.155818    0.623802
    106          1           0        7.288412   -1.369603   -1.485896
    107          1           0        7.500188    0.155267   -2.001289
    108          1           0        8.955275    0.989857   -0.065688
    109          1           0        8.503017   -0.551115    0.926660
    110          1           0        9.974613   -0.188895   -1.904487
    111          1           0        9.076401   -2.396781   -1.348690
    112          1           0       10.705021   -2.302267   -1.810739
    113          1           0       10.159811   -2.661431    0.106645
    114          1           0       11.423736    0.982075   -0.044683
    115          1           0       11.211213   -0.323299    1.036456
    116          1           0       12.791612   -1.864098   -0.192152
    117          1           0       12.813451   -0.551571   -1.675262
    118          1           0       13.701162    1.126360    0.085501
    119          1           0       13.814039   -0.139953    1.381323
    120          1           0       15.407465   -0.122308   -1.356131
    121          1           0       14.759595   -2.525408   -0.846465
    122          1           0       16.581265   -2.019453   -0.689804
    123          1           0       15.740357   -2.136743    0.929584
    124          1           0       15.718451    1.490293    0.217638
    125          1           0       16.059666    0.417793    1.666087
    126          1           0       18.012376   -0.370835   -0.018873
    127          1           0       17.626355    0.933016   -1.232242
    128          1           0       18.065898    2.750719    0.512500
    129          1           0       18.375842    1.332061    1.576692
    130          1           0       20.524070    0.684055    0.523134
    131          1           0       20.274867    3.093146   -1.461961
    132          1           0       21.602291    1.845665   -1.431259
    133          1           0       19.887357    1.273837   -2.277690
    134          1           0       20.692025    2.138781    2.107192
    135          1           0       21.885783    2.625062    0.832802
    136          1           0       20.554181    3.614462    1.030086
    137          1           0       -6.995632    1.941730    0.193005
    138          1           0       -7.606982   -0.300969   -0.371296
 ---------------------------------------------------------------------

 SCF Done:  E(RB3LYP) =  -2732.94962186     A.U. after   17 cycles

 Excitation energies and oscillator strengths:

 Excited State   1:      Singlet-A      1.9933 eV  622.01 nm  f=0.1894  <S**2>=0.000
     235 -> 238        0.27881
     236 -> 237        0.63404
     236 -> 238       -0.10570
 This state for optimization and/or second-order correction.
 Total Energy, E(TD-HF/TD-DFT) =  -2732.87637028
 Copying the excited state density for this state as the 1-particle RhoCI density.

 The electronic state is 1-A.
 Alpha  occ. eigenvalues --  -19.17810 -19.16151 -19.12719 -19.11737 -19.10934
 Alpha  occ. eigenvalues --  -14.37060 -14.35973 -14.32187 -14.30464 -10.31368
 Alpha  occ. eigenvalues --  -10.30131 -10.27818 -10.25468 -10.24973 -10.24205
 Alpha  occ. eigenvalues --  -10.23698 -10.23549 -10.23267 -10.22748 -10.22447
 Alpha  occ. eigenvalues --  -10.21939 -10.21864 -10.21689 -10.21568 -10.21442
 Alpha  occ. eigenvalues --  -10.21436 -10.21289 -10.21256 -10.21043 -10.20981
 Alpha  occ. eigenvalues --  -10.20928 -10.20906 -10.20475 -10.20392 -10.20361
 Alpha  occ. eigenvalues --  -10.20208 -10.20201 -10.20043 -10.19954 -10.19911
 Alpha  occ. eigenvalues --  -10.19877 -10.19869 -10.19868 -10.19863 -10.19838
 Alpha  occ. eigenvalues --  -10.19729 -10.19553 -10.19531 -10.19333 -10.19232
 Alpha  occ. eigenvalues --  -10.19205 -10.19114 -10.19071 -10.18886 -10.18807
 Alpha  occ. eigenvalues --  -10.18709 -10.18667 -10.18594 -10.18553 -10.18544
 Alpha  occ. eigenvalues --  -10.18451 -10.18367 -10.18195 -10.17668  -1.10693
 Alpha  occ. eigenvalues --   -1.06465  -1.01103  -1.01039  -1.00212  -0.99862
 Alpha  occ. eigenvalues --   -0.98599  -0.97288  -0.92174  -0.85878  -0.83221
 Alpha  occ. eigenvalues --   -0.82970  -0.82414  -0.81440  -0.80921  -0.80752
 Alpha  occ. eigenvalues --   -0.80232  -0.79816  -0.79662  -0.79026  -0.78303
 Alpha  occ. eigenvalues --   -0.77551  -0.76966  -0.76162  -0.75709  -0.74575
 Alpha  occ. eigenvalues --   -0.74144  -0.73475  -0.73112  -0.72208  -0.71629
 Alpha  occ. eigenvalues --   -0.70673  -0.68706  -0.68527  -0.68162  -0.67565
 Alpha  occ. eigenvalues --   -0.66612  -0.66519  -0.66045  -0.65911  -0.65765
 Alpha  occ. eigenvalues --   -0.64617  -0.63756  -0.63412  -0.62787  -0.61917
 Alpha  occ. eigenvalues --   -0.61826  -0.59760  -0.58893  -0.58545  -0.57966
 Alpha  occ. eigenvalues --   -0.57670  -0.57131  -0.56441  -0.55675  -0.55097
 Alpha  occ. eigenvalues --   -0.54990  -0.54486  -0.54319  -0.53760  -0.53236
 Alpha  occ. eigenvalues --   -0.52650  -0.51986  -0.51825  -0.51105  -0.50871
 Alpha  occ. eigenvalues --   -0.50380  -0.50147  -0.48258  -0.48130  -0.48107
 Alpha  occ. eigenvalues --   -0.47882  -0.47745  -0.47525  -0.47312  -0.47022
 Alpha  occ. eigenvalues --   -0.46699  -0.46204  -0.46104  -0.45841  -0.45622
 Alpha  occ. eigenvalues --   -0.45594  -0.45300  -0.45025  -0.44891  -0.44770
 Alpha  occ. eigenvalues --   -0.44597  -0.44571  -0.44384  -0.43872  -0.43743
 Alpha  occ. eigenvalues --   -0.43544  -0.43377  -0.43183  -0.43051  -0.42741
 Alpha  occ. eigenvalues --   -0.42729  -0.42599  -0.42325  -0.42102  -0.41643
 Alpha  occ. eigenvalues --   -0.41296  -0.41127  -0.40947  -0.40881  -0.40623
 Alpha  occ. eigenvalues --   -0.40409  -0.40077  -0.39821  -0.39621  -0.39526
 Alpha  occ. eigenvalues --   -0.39284  -0.39097  -0.38909  -0.38583  -0.38302
 Alpha  occ. eigenvalues --   -0.38125  -0.38037  -0.37912  -0.37780  -0.37442
 Alpha  occ. eigenvalues --   -0.37229  -0.37135  -0.36844  -0.36740  -0.36612
 Alpha  occ. eigenvalues --   -0.36515  -0.36351  -0.35883  -0.35759  -0.35573
 Alpha  occ. eigenvalues --   -0.35483  -0.35298  -0.35036  -0.34961  -0.34760
 Alpha  occ. eigenvalues --   -0.34469  -0.34400  -0.34290  -0.34072  -0.33826
 Alpha  occ. eigenvalues --   -0.33592  -0.33309  -0.32857  -0.32493  -0.32179
 Alpha  occ. eigenvalues --   -0.31940  -0.31681  -0.31313  -0.31065  -0.30658
 Alpha  occ. eigenvalues --   -0.30435  -0.30272  -0.29965  -0.29618  -0.29477
 Alpha  occ. eigenvalues --   -0.29139  -0.28768  -0.28548  -0.28264  -0.27781
 Alpha  occ. eigenvalues --   -0.27380  -0.26772  -0.26737  -0.26415  -0.26151
 Alpha  occ. eigenvalues --   -0.25323  -0.24848  -0.24308  -0.23188  -0.20064
 Alpha  occ. eigenvalues --   -0.18334
 Alpha virt. eigenvalues --   -0.10153  -0.07682  -0.04967  -0.02061  -0.01568
 Alpha virt. eigenvalues --   -0.01188   0.00846   0.02173   0.02749   0.03589
 Alpha virt. eigenvalues --    0.03731   0.03916   0.04006   0.04274   0.04483

 Mulliken charges:
               1
     1  C    0.040022
     2  C   -0.014832
     3  C   -0.089242
     4  C   -0.081694
     5  N   -0.068899
     6  C   -0.096699
     7  C   -0.014023
     8  C    0.036670
     9  C   -0.056958
    10  C   -0.009137
    11  C    0.059745
    12  C    0.066790
    13  C    0.096708
    14  O   -0.233210
    15  O   -0.289046
    16  N    0.113771
    17  C    0.040068
    18  C   -0.100333
    19  C   -0.046529
    20  C    0.058693
    21  C    0.097986
    22  C   -0.009259
    23  C   -0.022605
    24  N   -0.276878
    25  C    0.065026
    26  C   -0.102102
    27  C    0.001019
    28  C    0.001734
    29  C    0.103785
    30  C   -0.019521
    31  C   -0.031183
    32  N    0.062431
    33  C    0.054011
    34  C   -0.194900
    35  C    0.020027
    36  C    0.075460
    37  C    0.217629
    38  C    0.003740
    39  O   -0.193293
    40  C    0.077580
    41  C    0.219905
    42  O   -0.246650
    43  O   -0.349216
    44  C    0.133103
    45  C    0.297024
    46  C   -0.097608
    47  C   -0.199379
    48  C   -0.000099
    49  C    0.166687
    50  C    0.015399
    51  C    0.001626
    52  C   -0.143599
    53  C    0.107190
    54  C    0.018452
    55  C    0.053516
    56  C   -0.081476
    57  C   -0.001280
    58  C   -0.020677
    59  C   -0.099879
    60  C    0.110459
    61  C    0.053422
    62  C   -0.076903
    63  C   -0.088480
    64  C    0.048836
    65  H   -0.047791
    66  H    0.013183
    67  H    0.002234
    68  H    0.025579
    69  H   -0.033296
    70  H    0.020692
    71  H    0.025915
    72  H    0.081246
    73  H    0.006371
    74  H   -0.042625
    75  H    0.014663
    76  H    0.028822
    77  H    0.062222
    78  H    0.023514
    79  H    0.007890
    80  H   -0.018292
    81  H    0.016763
    82  H    0.024338
    83  H    0.017708
    84  H   -0.027396
    85  H    0.007482
    86  H    0.006715
    87  H    0.017875
    88  H    0.036086
    89  H    0.018342
    90  H   -0.000098
    91  H    0.051242
    92  H   -0.043682
    93  H    0.008263
    94  H    0.066272
    95  H    0.027437
    96  H    0.048845
    97  H    0.051003
    98  H    0.012782
    99  H    0.029133
   100  H    0.016140
   101  H    0.018416
   102  H    0.048649
   103  H    0.039755
   104  H   -0.018240
   105  H   -0.028819
   106  H    0.016192
   107  H   -0.031461
   108  H    0.004322
   109  H    0.009597
   110  H    0.000690
   111  H   -0.022267
   112  H    0.023786
   113  H    0.025362
   114  H   -0.014065
   115  H   -0.006227
   116  H    0.033107
   117  H    0.007866
   118  H   -0.003955
   119  H    0.000068
   120  H   -0.028989
   121  H    0.034861
   122  H    0.007561
   123  H    0.021460
   124  H   -0.014476
   125  H    0.005148
   126  H   -0.020906
   127  H    0.007757
   128  H    0.016061
   129  H   -0.036600
   130  H   -0.001393
   131  H    0.021787
   132  H    0.021161
   133  H    0.044789
   134  H    0.003814
   135  H   -0.003610
   136  H   -0.000653
   137  H   -0.004387
   138  H    0.105338
 Sum of Mulliken charges =  -0.00000

 Dipole moment (field-independent basis, Debye):
    X=              3.2841    Y=              4.9763    Z=             -0.8818  Tot=              6.0271
 Quadrupole moment (field-independent basis, Debye-Ang):
   XX=           -339.3189   YY=           -392.7774   ZZ=           -396.2950
   XY=            -19.4599   XZ=              9.4585   YZ=              1.2519

 Normal termination of Gaussian 16 at Thu Aug 22 06:28:56 2019.
