 Gaussian 16, Revision A.03,
 Gaussian 16:  ES64L-G16RevA.03 25-Dec-2016

 --------------------------
 # td=(NStates=1) B3LYP/SVP
 --------------------------

 --
 TD
 --
 Symbolic Z-matrix:
 Charge =  0 Multiplicity = 1

                         Standard orientation:
 ---------------------------------------------------------------------
 Center     Atomic      Atomic             Coordinates (Angstroms)
 Number     Number       Type             X           Y           Z
 ---------------------------------------------------------------------
      1          6           0       -5.109831   -1.905195    0.275306
      2          6           0       -4.705731    2.834590    1.274825
      3          6           0       -9.304039    3.268381   -0.312551
      4          6           0       -9.950321   -1.486357   -0.745746
      5          7           0       -5.253976    0.472685    0.716310
      6          6           0       -4.498529   -0.749408    0.740960
      7          6           0       -3.103680   -0.542534    1.207932
      8          6           0       -3.087542    0.975572    1.742823
      9          6           0       -4.438305    1.451148    1.323781
     10          6           0       -3.013865    0.946377    3.225309
     11          6           0       -2.031155   -0.778787    0.032599
     12          6           0       -0.521087   -0.731438    0.487397
     13          6           0        0.419276   -1.114961   -0.639869
     14          8           0        0.090592   -1.572416   -1.732358
     15          8           0        1.653194   -0.743088   -0.319566
     16          7           0       -7.054764    2.751183    0.492959
     17          6           0       -5.965256    3.352078    1.067160
     18          6           0       -6.324274    4.838462    1.054848
     19          6           0       -7.558609    5.015254    0.475584
     20          6           0       -8.061770    3.717330    0.219655
     21          6           0       -5.389803    5.837479    1.519403
     22          6           0       -8.321874    6.281781    0.317757
     23          6           0       -9.266803    6.589888   -0.552487
     24          7           0       -9.248816    0.803976   -0.435433
     25          6           0       -9.879672    1.996338   -0.560619
     26          6           0      -11.341900    1.772210   -0.882461
     27          6           0      -11.458436    0.481894   -1.028659
     28          6           0      -10.291486   -0.131007   -0.714771
     29          6           0      -12.299979    2.859830   -1.258805
     30          6           0      -12.706999   -0.317348   -1.483155
     31          6           0      -12.590228   -0.651052   -3.037821
     32          7           0       -7.581967   -1.274526   -0.274198
     33          6           0       -8.650449   -2.103786   -0.613027
     34          6           0       -8.232672   -3.467886   -0.601222
     35          6           0       -6.853876   -3.425088   -0.263505
     36          6           0       -6.424894   -2.023439   -0.089122
     37          6           0       -9.187757   -4.602575   -0.712257
     38          6           0       -5.754238   -4.316567    0.075208
     39          8           0       -5.646101   -5.547853    0.145928
     40          6           0       -4.490068   -3.324904    0.315967
     41          6           0       -3.788710   -3.744631    1.642538
     42          8           0       -4.018524   -3.203851    2.788996
     43          8           0       -3.026652   -4.820546    1.536174
     44          6           0       -2.439763   -5.235524    2.785476
     45          6           0        2.733839   -1.025417   -1.168429
     46          6           0        4.056723   -0.726479   -0.579153
     47          6           0        5.048809    0.040320   -1.116839
     48          6           0        4.930614    0.783174   -2.513568
     49          6           0        6.267830    0.248187   -0.413794
     50          6           0        7.535455   -0.390776   -0.920913
     51          6           0        8.725291   -0.085764   -0.114801
     52          6           0        9.990829   -0.641238   -0.763156
     53          6           0       10.122732   -2.096837   -1.100228
     54          6           0       11.323738   -0.122444    0.199723
     55          6           0       12.598939   -0.407435   -0.595143
     56          6           0       13.809708   -0.007135    0.268818
     57          6           0       15.236340   -0.089809   -0.459783
     58          6           0       15.651385   -1.577575   -0.844455
     59          6           0       16.388952    0.418100    0.515163
     60          6           0       17.749919    0.783518   -0.243649
     61          6           0       18.780808    1.428567    0.785403
     62          6           0       20.184158    1.525495    0.171959
     63          6           0       20.339368    2.287352   -1.137022
     64          6           0       21.100201    2.084036    1.325346
     65          1           0       -3.888948    3.518246    1.603469
     66          1           0       -9.799356    4.188108   -0.542903
     67          1           0      -10.805944   -2.192781   -0.950726
     68          1           0       -2.902015   -1.345844    1.877240
     69          1           0       -2.197741    1.490378    1.251289
     70          1           0       -1.855614    0.714048    3.615381
     71          1           0       -3.351899    1.970980    3.652567
     72          1           0       -3.866325    0.265036    3.702375
     73          1           0       -2.198507   -1.751420   -0.438453
     74          1           0       -2.348428    0.019662   -0.583048
     75          1           0       -0.432858    0.396630    0.649020
     76          1           0       -0.170548   -1.441436    1.389573
     77          1           0       -4.433113    5.873304    0.807035
     78          1           0       -5.974933    6.794834    1.693628
     79          1           0       -4.966033    5.608926    2.652161
     80          1           0       -7.864655    6.909998    0.824029
     81          1           0       -9.630526    5.949598   -1.352447
     82          1           0       -9.720886    7.588915   -0.718006
     83          1           0      -12.781667    3.455863   -0.550661
     84          1           0      -11.945190    3.702358   -1.966170
     85          1           0      -13.210125    2.437590   -1.859448
     86          1           0      -12.934252   -1.276036   -1.097798
     87          1           0      -13.638819    0.196707   -1.311060
     88          1           0      -12.328527    0.137736   -3.518010
     89          1           0      -11.812374   -1.413407   -3.194521
     90          1           0      -13.457787   -1.208937   -3.149421
     91          1           0      -10.115286   -4.629623    0.219408
     92          1           0       -9.707592   -4.553538   -1.517802
     93          1           0       -8.637609   -5.566101   -0.731474
     94          1           0       -3.922358   -3.510895   -0.529232
     95          1           0       -1.641734   -5.808529    2.514035
     96          1           0       -2.054718   -4.391068    3.604826
     97          1           0       -3.210860   -5.615495    3.465200
     98          1           0        2.490754   -2.127742   -1.380145
     99          1           0        2.617570   -0.383983   -2.136659
    100          1           0        4.216357   -1.133746    0.366950
    101          1           0        5.346644    1.821869   -2.322996
    102          1           0        5.544257    0.084666   -3.217918
    103          1           0        3.890313    0.794415   -2.781607
    104          1           0        6.276030    1.380485   -0.485718
    105          1           0        6.290919   -0.067052    0.651012
    106          1           0        7.129556   -1.347905   -1.096642
    107          1           0        7.641393   -0.113820   -1.987601
    108          1           0        8.791919    0.887991    0.145609
    109          1           0        8.544909   -0.707809    0.948880
    110          1           0       10.025126    0.070311   -1.538602
    111          1           0        9.177118   -2.332427   -1.875824
    112          1           0       11.015154   -2.515942   -1.498088
    113          1           0        9.863029   -2.670431   -0.254185
    114          1           0       11.279510    0.846034    0.648303
    115          1           0       11.462705   -0.826121    1.117194
    116          1           0       12.659424   -1.366954   -0.984457
    117          1           0       12.755736    0.143723   -1.506217
    118          1           0       13.905030    1.086544    0.520417
    119          1           0       13.799896   -0.370204    1.281016
    120          1           0       15.305109    0.654828   -1.377710
    121          1           0       14.721343   -2.139765   -1.363217
    122          1           0       16.486353   -1.800615   -1.338502
    123          1           0       15.873156   -2.340246    0.129679
    124          1           0       15.924088    1.456639    1.169160
    125          1           0       16.648646   -0.311771    1.284886
    126          1           0       18.182006   -0.220719   -0.867414
    127          1           0       17.605680    1.538666   -1.177902
    128          1           0       18.274053    2.515012    0.828866
    129          1           0       18.809913    1.024606    1.865838
    130          1           0       20.573543    0.351132    0.041042
    131          1           0       20.020895    3.157351   -1.214041
    132          1           0       21.333786    2.324427   -1.475618
    133          1           0       19.861946    1.877928   -2.044702
    134          1           0       21.052810    1.418176    2.253959
    135          1           0       22.170800    2.147149    0.730484
    136          1           0       20.838239    3.111642    1.761540
    137          1           0       -7.153590    1.591869    0.712257
    138          1           0       -7.596179   -0.157001   -0.395845
 ---------------------------------------------------------------------

 SCF Done:  E(RB3LYP) =  -2732.99398110     A.U. after   17 cycles

 Excitation energies and oscillator strengths:

 Excited State   1:      Singlet-A      2.0210 eV  613.47 nm  f=0.1742  <S**2>=0.000
     235 -> 238        0.29769
     236 -> 237        0.63611
 This state for optimization and/or second-order correction.
 Total Energy, E(TD-HF/TD-DFT) =  -2732.91970978
 Copying the excited state density for this state as the 1-particle RhoCI density.

 The electronic state is 1-A.
 Alpha  occ. eigenvalues --  -19.19234 -19.17569 -19.12079 -19.11760 -19.11514
 Alpha  occ. eigenvalues --  -14.37003 -14.36665 -14.33126 -14.30249 -10.32099
 Alpha  occ. eigenvalues --  -10.31452 -10.27668 -10.25299 -10.24692 -10.23866
 Alpha  occ. eigenvalues --  -10.23810 -10.23381 -10.23368 -10.23269 -10.22964
 Alpha  occ. eigenvalues --  -10.22151 -10.21946 -10.21902 -10.21410 -10.21318
 Alpha  occ. eigenvalues --  -10.21073 -10.21025 -10.20952 -10.20928 -10.20894
 Alpha  occ. eigenvalues --  -10.20862 -10.20803 -10.20737 -10.20675 -10.20607
 Alpha  occ. eigenvalues --  -10.20506 -10.20308 -10.20246 -10.20139 -10.19900
 Alpha  occ. eigenvalues --  -10.19864 -10.19755 -10.19732 -10.19711 -10.19705
 Alpha  occ. eigenvalues --  -10.19639 -10.19513 -10.19421 -10.19406 -10.19277
 Alpha  occ. eigenvalues --  -10.19188 -10.19154 -10.19151 -10.19082 -10.18896
 Alpha  occ. eigenvalues --  -10.18718 -10.18676 -10.18266 -10.18262 -10.18080
 Alpha  occ. eigenvalues --  -10.17737 -10.17373 -10.16559 -10.16115  -1.10140
 Alpha  occ. eigenvalues --   -1.09822  -1.00727  -1.00035  -0.96876  -0.96411
 Alpha  occ. eigenvalues --   -0.96182  -0.93358  -0.91932  -0.84114  -0.84051
 Alpha  occ. eigenvalues --   -0.82713  -0.81260  -0.80651  -0.80101  -0.79908
 Alpha  occ. eigenvalues --   -0.79631  -0.79363  -0.79058  -0.78457  -0.77690
 Alpha  occ. eigenvalues --   -0.77139  -0.76206  -0.75385  -0.74970  -0.74531
 Alpha  occ. eigenvalues --   -0.73647  -0.73154  -0.72488  -0.71342  -0.70779
 Alpha  occ. eigenvalues --   -0.70036  -0.69802  -0.68874  -0.68713  -0.68692
 Alpha  occ. eigenvalues --   -0.67600  -0.66542  -0.65911  -0.64873  -0.64611
 Alpha  occ. eigenvalues --   -0.63915  -0.62974  -0.62634  -0.62324  -0.61430
 Alpha  occ. eigenvalues --   -0.60607  -0.59533  -0.58214  -0.57527  -0.57361
 Alpha  occ. eigenvalues --   -0.57059  -0.56996  -0.56082  -0.55289  -0.54902
 Alpha  occ. eigenvalues --   -0.54479  -0.54370  -0.54114  -0.53810  -0.52799
 Alpha  occ. eigenvalues --   -0.52705  -0.52081  -0.51515  -0.50995  -0.50829
 Alpha  occ. eigenvalues --   -0.50122  -0.49789  -0.49314  -0.49068  -0.48458
 Alpha  occ. eigenvalues --   -0.48146  -0.47542  -0.47202  -0.47108  -0.46845
 Alpha  occ. eigenvalues --   -0.46460  -0.46372  -0.45874  -0.45764  -0.45727
 Alpha  occ. eigenvalues --   -0.45447  -0.45292  -0.44724  -0.44698  -0.44385
 Alpha  occ. eigenvalues --   -0.44332  -0.44125  -0.43889  -0.43658  -0.43314
 Alpha  occ. eigenvalues --   -0.43290  -0.42777  -0.42632  -0.42430  -0.42304
 Alpha  occ. eigenvalues --   -0.42105  -0.41921  -0.41859  -0.41468  -0.41123
 Alpha  occ. eigenvalues --   -0.41045  -0.40725  -0.40278  -0.40041  -0.39969
 Alpha  occ. eigenvalues --   -0.39696  -0.39606  -0.39508  -0.39341  -0.39134
 Alpha  occ. eigenvalues --   -0.39121  -0.38907  -0.38683  -0.38578  -0.38387
 Alpha  occ. eigenvalues --   -0.38260  -0.37885  -0.37792  -0.37682  -0.37610
 Alpha  occ. eigenvalues --   -0.37333  -0.37127  -0.36966  -0.36588  -0.36280
 Alpha  occ. eigenvalues --   -0.36187  -0.36147  -0.36110  -0.35921  -0.35778
 Alpha  occ. eigenvalues --   -0.35556  -0.35500  -0.35255  -0.35121  -0.35039
 Alpha  occ. eigenvalues --   -0.34941  -0.34485  -0.34061  -0.34022  -0.33855
 Alpha  occ. eigenvalues --   -0.33711  -0.33492  -0.33109  -0.33005  -0.32422
 Alpha  occ. eigenvalues --   -0.32117  -0.32016  -0.31891  -0.31364  -0.30987
 Alpha  occ. eigenvalues --   -0.30571  -0.30542  -0.30275  -0.30004  -0.29791
 Alpha  occ. eigenvalues --   -0.29652  -0.28979  -0.27907  -0.27644  -0.27561
 Alpha  occ. eigenvalues --   -0.27258  -0.27079  -0.26808  -0.26387  -0.25557
 Alpha  occ. eigenvalues --   -0.24600  -0.24502  -0.24376  -0.23446  -0.19794
 Alpha  occ. eigenvalues --   -0.18775
 Alpha virt. eigenvalues --   -0.10229  -0.07810  -0.04937  -0.02360  -0.01114
 Alpha virt. eigenvalues --   -0.00675  -0.00494   0.00197   0.02060   0.03443
 Alpha virt. eigenvalues --    0.03946   0.04106   0.04239   0.04271   0.04367

 Mulliken charges:
               1
     1  C   -0.031308
     2  C   -0.070942
     3  C   -0.008596
     4  C   -0.078202
     5  N   -0.264706
     6  C   -0.052404
     7  C    0.031446
     8  C   -0.017725
     9  C    0.021694
    10  C   -0.015167
    11  C    0.018307
    12  C    0.001165
    13  C    0.167864
    14  O   -0.250938
    15  O   -0.288306
    16  N   -0.175444
    17  C    0.121769
    18  C   -0.124449
    19  C    0.041390
    20  C    0.004181
    21  C   -0.014126
    22  C    0.138055
    23  C   -0.029171
    24  N   -0.266400
    25  C    0.086432
    26  C   -0.088314
    27  C   -0.028241
    28  C    0.083173
    29  C    0.052887
    30  C    0.051447
    31  C    0.108268
    32  N   -0.122558
    33  C    0.067709
    34  C   -0.116978
    35  C   -0.038611
    36  C    0.147606
    37  C    0.129086
    38  C    0.064514
    39  O   -0.193734
    40  C    0.007771
    41  C    0.223178
    42  O   -0.315195
    43  O   -0.251024
    44  C    0.176856
    45  C    0.241147
    46  C   -0.057023
    47  C   -0.182912
    48  C    0.071861
    49  C    0.069287
    50  C    0.033930
    51  C    0.095916
    52  C   -0.044349
    53  C    0.054235
    54  C   -0.006534
    55  C    0.124960
    56  C    0.019353
    57  C   -0.068631
    58  C   -0.000185
    59  C   -0.024942
    60  C   -0.073303
    61  C   -0.007825
    62  C   -0.114403
    63  C    0.159431
    64  C   -0.031639
    65  H   -0.006931
    66  H   -0.073753
    67  H   -0.013404
    68  H   -0.005333
    69  H    0.018373
    70  H    0.041968
    71  H    0.009132
    72  H    0.055439
    73  H    0.022209
    74  H    0.005051
    75  H    0.043294
    76  H    0.063816
    77  H    0.065933
    78  H    0.033231
    79  H    0.044791
    80  H   -0.133171
    81  H    0.032694
    82  H    0.030077
    83  H   -0.002172
    84  H    0.020316
    85  H    0.014513
    86  H   -0.019745
    87  H   -0.009909
    88  H   -0.024298
    89  H   -0.004843
    90  H   -0.008301
    91  H    0.047208
    92  H   -0.031420
    93  H    0.038781
    94  H    0.032060
    95  H    0.020314
    96  H    0.045072
    97  H    0.038275
    98  H    0.025234
    99  H    0.018604
   100  H   -0.042958
   101  H    0.032196
   102  H    0.054456
   103  H    0.010045
   104  H   -0.004629
   105  H   -0.008433
   106  H   -0.019587
   107  H   -0.028967
   108  H   -0.032306
   109  H   -0.004755
   110  H   -0.018711
   111  H    0.018695
   112  H    0.025222
   113  H   -0.002207
   114  H   -0.011468
   115  H   -0.000835
   116  H   -0.032564
   117  H   -0.029397
   118  H   -0.012617
   119  H   -0.019082
   120  H    0.019951
   121  H    0.015046
   122  H   -0.016315
   123  H    0.005460
   124  H    0.004825
   125  H    0.007593
   126  H    0.019630
   127  H    0.022329
   128  H    0.014144
   129  H    0.019607
   130  H    0.015593
   131  H   -0.066466
   132  H   -0.019535
   133  H   -0.007276
   134  H    0.021741
   135  H    0.025165
   136  H    0.017363
   137  H    0.229848
   138  H    0.205463
 Sum of Mulliken charges =  -0.00000

 Dipole moment (field-independent basis, Debye):
    X=              2.6116    Y=              5.6293    Z=              0.0201  Tot=              6.2056
 Quadrupole moment (field-independent basis, Debye-Ang):
   XX=           -347.3418   YY=           -382.2235   ZZ=           -397.0704
   XY=            -27.4886   XZ=              6.3483   YZ=             -2.5466

 Normal termination of Gaussian 16 at Sun Aug 25 09:34:32 2019.
