 Gaussian 16, Revision A.03,
 Gaussian 16:  ES64L-G16RevA.03 25-Dec-2016

 --------------------------
 # td=(NStates=1) B3LYP/SVP
 --------------------------

 --
 TD
 --
 Symbolic Z-matrix:
 Charge =  0 Multiplicity = 1

                         Standard orientation:
 ---------------------------------------------------------------------
 Center     Atomic      Atomic             Coordinates (Angstroms)
 Number     Number       Type             X           Y           Z
 ---------------------------------------------------------------------
      1          6           0       -5.087575   -1.968421    0.448427
      2          6           0       -4.740753    2.771286    1.269811
      3          6           0       -9.338993    3.369411   -0.360095
      4          6           0       -9.852587   -1.416131   -0.812636
      5          7           0       -5.162187    0.461383    0.730522
      6          6           0       -4.441148   -0.759088    0.698358
      7          6           0       -3.104032   -0.568335    1.206830
      8          6           0       -3.088617    0.876161    1.741614
      9          6           0       -4.402161    1.370017    1.261791
     10          6           0       -3.062868    0.871416    3.272297
     11          6           0       -2.054622   -0.795174   -0.002365
     12          6           0       -0.567864   -0.692379    0.484150
     13          6           0        0.444994   -1.099938   -0.511491
     14          8           0        0.080590   -1.821289   -1.491894
     15          8           0        1.663489   -0.698512   -0.230716
     16          7           0       -7.036486    2.758861    0.488281
     17          6           0       -5.925807    3.449852    0.940016
     18          6           0       -6.286176    4.823030    1.057847
     19          6           0       -7.454427    4.996178    0.556233
     20          6           0       -7.987978    3.610454    0.210759
     21          6           0       -5.312096    5.805220    1.644274
     22          6           0       -8.106768    6.290016    0.422445
     23          6           0       -9.095520    6.633836   -0.432737
     24          7           0       -9.114372    0.895004   -0.404240
     25          6           0       -9.801816    2.104739   -0.504599
     26          6           0      -11.242852    1.928582   -0.985960
     27          6           0      -11.376194    0.633574   -1.107106
     28          6           0      -10.082704    0.025512   -0.859551
     29          6           0      -12.171819    3.032830   -1.010652
     30          6           0      -12.582222   -0.204525   -1.645604
     31          6           0      -12.678145   -0.375736   -3.134231
     32          7           0       -7.433466   -1.303033   -0.271136
     33          6           0       -8.572403   -1.963540   -0.626198
     34          6           0       -8.172014   -3.356620   -0.636213
     35          6           0       -6.812814   -3.407777   -0.396173
     36          6           0       -6.364219   -2.081790   -0.014481
     37          6           0       -9.073903   -4.574788   -0.960974
     38          6           0       -5.755470   -4.347999   -0.092517
     39          8           0       -5.728530   -5.493073   -0.103254
     40          6           0       -4.607897   -3.466010    0.420654
     41          6           0       -3.836944   -3.869793    1.807665
     42          8           0       -4.123514   -3.447988    2.897998
     43          8           0       -3.161136   -4.976296    1.641046
     44          6           0       -2.697780   -5.578739    2.822593
     45          6           0        2.757895   -1.127779   -1.162744
     46          6           0        3.990951   -0.587498   -0.542637
     47          6           0        4.970541    0.075173   -1.180067
     48          6           0        4.922533    0.693754   -2.546374
     49          6           0        6.278010    0.317476   -0.377660
     50          6           0        7.533864   -0.359048   -1.265731
     51          6           0        8.740400   -0.049807   -0.400462
     52          6           0       10.083280   -0.724342   -0.926685
     53          6           0        9.872232   -2.274563   -0.858314
     54          6           0       11.278435   -0.347722    0.025200
     55          6           0       12.656742   -0.727307   -0.557127
     56          6           0       13.806578   -0.108746    0.343398
     57          6           0       15.185748   -0.144842   -0.388428
     58          6           0       15.564119   -1.544009   -0.504486
     59          6           0       16.128094    0.708101    0.406744
     60          6           0       17.606102    0.692227   -0.069216
     61          6           0       18.546148    1.754151    0.602809
     62          6           0       20.110762    1.676421    0.240035
     63          6           0       20.498595    2.103995   -1.165586
     64          6           0       20.914445    2.508510    1.220649
     65          1           0       -3.952000    3.337658    1.815032
     66          1           0       -9.997399    4.275196   -0.502988
     67          1           0      -10.760848   -1.923686   -1.014154
     68          1           0       -3.029347   -1.459530    2.068329
     69          1           0       -2.216245    1.374584    1.331406
     70          1           0       -2.186887    0.226969    3.653230
     71          1           0       -3.085133    1.956208    3.771877
     72          1           0       -3.877744    0.514494    3.750892
     73          1           0       -2.052786   -1.884664   -0.431505
     74          1           0       -2.393998   -0.049302   -0.828901
     75          1           0       -0.275709    0.216346    0.851706
     76          1           0       -0.351700   -1.159506    1.358420
     77          1           0       -4.275761    5.909389    1.160503
     78          1           0       -5.803923    6.714503    1.537250
     79          1           0       -5.132084    5.632370    2.679499
     80          1           0       -7.622470    7.051059    0.873623
     81          1           0       -9.397916    5.961872   -1.230959
     82          1           0       -9.371695    7.652698   -0.474587
     83          1           0      -12.293019    3.357497    0.017635
     84          1           0      -11.805625    3.707374   -1.647025
     85          1           0      -13.227269    2.710939   -1.314190
     86          1           0      -12.559223   -1.132622   -1.213123
     87          1           0      -13.405049    0.696886   -1.417005
     88          1           0      -12.436776    0.762781   -3.479397
     89          1           0      -11.779337   -0.916309   -3.518207
     90          1           0      -13.590534   -0.838020   -3.371560
     91          1           0      -10.189820   -4.500299   -0.663140
     92          1           0       -9.364932   -4.761944   -2.049484
     93          1           0       -8.473638   -5.272277   -0.614949
     94          1           0       -3.643109   -3.389774   -0.457033
     95          1           0       -2.129661   -6.454777    2.584359
     96          1           0       -2.149670   -5.013749    3.592798
     97          1           0       -3.659824   -5.855436    3.383398
     98          1           0        2.971544   -2.236455   -1.035277
     99          1           0        2.581182   -0.581755   -2.237138
    100          1           0        4.283401   -1.011093    0.460480
    101          1           0        5.255533    1.742844   -2.577856
    102          1           0        5.280762   -0.135830   -3.188935
    103          1           0        3.835283    0.783323   -2.937732
    104          1           0        6.684112    1.299818   -0.633016
    105          1           0        6.288089    0.234228    0.745138
    106          1           0        7.362980   -1.418356   -1.256556
    107          1           0        7.354176    0.047123   -2.180414
    108          1           0        8.945824    0.927855   -0.232698
    109          1           0        8.710442   -0.277302    0.779531
    110          1           0       10.154399   -0.475602   -1.808504
    111          1           0        8.947066   -2.391599   -1.330072
    112          1           0       10.664166   -2.851806   -1.289479
    113          1           0        9.662897   -2.814312    0.049305
    114          1           0       11.224240    0.638660    0.203526
    115          1           0       11.145983   -0.685589    1.054309
    116          1           0       12.784359   -1.737752   -0.608679
    117          1           0       12.657267   -0.329979   -1.570616
    118          1           0       13.455784    1.041995    0.119804
    119          1           0       13.806677   -0.337502    1.381475
    120          1           0       15.137956   -0.030742   -1.537785
    121          1           0       14.832759   -2.065270   -1.217765
    122          1           0       16.570742   -1.708705   -1.039255
    123          1           0       15.592399   -2.073559    0.553892
    124          1           0       15.741468    1.866812    0.385400
    125          1           0       16.273731    0.221108    1.384575
    126          1           0       17.881233   -0.329171   -0.087181
    127          1           0       17.537035    0.868328   -1.055963
    128          1           0       18.215967    2.756679    0.277744
    129          1           0       18.501114    1.465794    1.587170
    130          1           0       20.269218    0.543037    0.386170
    131          1           0       20.156281    3.138081   -1.444228
    132          1           0       21.458507    1.856100   -1.203960
    133          1           0       20.022797    1.379972   -1.952342
    134          1           0       20.552724    2.257900    2.369743
    135          1           0       21.995214    2.239775    1.267555
    136          1           0       20.646809    3.634013    1.115411
    137          1           0       -6.880057    1.689493    0.221874
    138          1           0       -7.600236   -0.372596   -0.021825
 ---------------------------------------------------------------------

 SCF Done:  E(RB3LYP) =  -2733.00585312     A.U. after   16 cycles

 Excitation energies and oscillator strengths:

 Excited State   1:      Singlet-A      1.9547 eV  634.28 nm  f=0.2119  <S**2>=0.000
     235 -> 238       -0.24556
     236 -> 237        0.65074
     236 -> 238       -0.10969
 This state for optimization and/or second-order correction.
 Total Energy, E(TD-HF/TD-DFT) =  -2732.93401870
 Copying the excited state density for this state as the 1-particle RhoCI density.

 The electronic state is 1-A.
 Alpha  occ. eigenvalues --  -19.18816 -19.18776 -19.12626 -19.11840 -19.10862
 Alpha  occ. eigenvalues --  -14.37532 -14.35858 -14.32307 -14.29950 -10.32037
 Alpha  occ. eigenvalues --  -10.31038 -10.27031 -10.26976 -10.24541 -10.24163
 Alpha  occ. eigenvalues --  -10.22871 -10.22832 -10.22741 -10.22392 -10.22358
 Alpha  occ. eigenvalues --  -10.22353 -10.21225 -10.20923 -10.20900 -10.20765
 Alpha  occ. eigenvalues --  -10.20720 -10.20639 -10.20541 -10.20063 -10.20046
 Alpha  occ. eigenvalues --  -10.19910 -10.19670 -10.19547 -10.19541 -10.19517
 Alpha  occ. eigenvalues --  -10.19493 -10.19490 -10.19434 -10.19309 -10.19240
 Alpha  occ. eigenvalues --  -10.19165 -10.19125 -10.19050 -10.19023 -10.18976
 Alpha  occ. eigenvalues --  -10.18822 -10.18791 -10.18779 -10.18746 -10.18705
 Alpha  occ. eigenvalues --  -10.18644 -10.18637 -10.18571 -10.18234 -10.17786
 Alpha  occ. eigenvalues --  -10.17715 -10.17688 -10.17624 -10.17539 -10.17479
 Alpha  occ. eigenvalues --  -10.17446 -10.16811 -10.16180 -10.16179  -1.11914
 Alpha  occ. eigenvalues --   -1.09018  -1.06446  -1.01341  -0.99308  -0.98603
 Alpha  occ. eigenvalues --   -0.97492  -0.95119  -0.92362  -0.84603  -0.83223
 Alpha  occ. eigenvalues --   -0.82860  -0.82418  -0.81074  -0.80560  -0.80198
 Alpha  occ. eigenvalues --   -0.80013  -0.79661  -0.79235  -0.78364  -0.78085
 Alpha  occ. eigenvalues --   -0.76901  -0.76521  -0.75430  -0.75145  -0.74805
 Alpha  occ. eigenvalues --   -0.73819  -0.73332  -0.73057  -0.72146  -0.70886
 Alpha  occ. eigenvalues --   -0.70279  -0.69911  -0.68701  -0.68141  -0.67541
 Alpha  occ. eigenvalues --   -0.67460  -0.67008  -0.66221  -0.65831  -0.65189
 Alpha  occ. eigenvalues --   -0.63563  -0.63453  -0.62888  -0.61948  -0.61510
 Alpha  occ. eigenvalues --   -0.60332  -0.60043  -0.58801  -0.58129  -0.57797
 Alpha  occ. eigenvalues --   -0.57757  -0.57418  -0.56434  -0.55716  -0.55003
 Alpha  occ. eigenvalues --   -0.54791  -0.54704  -0.54458  -0.53980  -0.52665
 Alpha  occ. eigenvalues --   -0.52190  -0.51916  -0.51219  -0.51128  -0.50105
 Alpha  occ. eigenvalues --   -0.49813  -0.49595  -0.49397  -0.49215  -0.48628
 Alpha  occ. eigenvalues --   -0.48170  -0.48046  -0.47790  -0.47768  -0.47208
 Alpha  occ. eigenvalues --   -0.46826  -0.46622  -0.46546  -0.46250  -0.45909
 Alpha  occ. eigenvalues --   -0.45865  -0.45748  -0.45634  -0.45380  -0.45035
 Alpha  occ. eigenvalues --   -0.44749  -0.44446  -0.44335  -0.44243  -0.44028
 Alpha  occ. eigenvalues --   -0.43873  -0.43519  -0.43332  -0.43093  -0.42985
 Alpha  occ. eigenvalues --   -0.42700  -0.42523  -0.42036  -0.41921  -0.41557
 Alpha  occ. eigenvalues --   -0.41285  -0.41081  -0.41018  -0.40693  -0.40549
 Alpha  occ. eigenvalues --   -0.40349  -0.39902  -0.39661  -0.39564  -0.39539
 Alpha  occ. eigenvalues --   -0.39242  -0.39159  -0.39044  -0.38696  -0.38563
 Alpha  occ. eigenvalues --   -0.38459  -0.38207  -0.38001  -0.37886  -0.37641
 Alpha  occ. eigenvalues --   -0.37476  -0.37342  -0.37213  -0.36824  -0.36540
 Alpha  occ. eigenvalues --   -0.36523  -0.36349  -0.36066  -0.35964  -0.35703
 Alpha  occ. eigenvalues --   -0.35531  -0.35041  -0.34940  -0.34718  -0.34575
 Alpha  occ. eigenvalues --   -0.34388  -0.34196  -0.34133  -0.33889  -0.33570
 Alpha  occ. eigenvalues --   -0.33484  -0.33262  -0.33142  -0.32819  -0.32278
 Alpha  occ. eigenvalues --   -0.32239  -0.32116  -0.31910  -0.31343  -0.30976
 Alpha  occ. eigenvalues --   -0.30744  -0.30594  -0.30515  -0.30209  -0.29969
 Alpha  occ. eigenvalues --   -0.29889  -0.29553  -0.28373  -0.27873  -0.27578
 Alpha  occ. eigenvalues --   -0.27279  -0.27006  -0.26469  -0.25899  -0.25709
 Alpha  occ. eigenvalues --   -0.25047  -0.24316  -0.24278  -0.23306  -0.19794
 Alpha  occ. eigenvalues --   -0.17349
 Alpha virt. eigenvalues --   -0.09470  -0.06920  -0.03819  -0.01868  -0.00629
 Alpha virt. eigenvalues --   -0.00125   0.00367   0.01324   0.02148   0.03652
 Alpha virt. eigenvalues --    0.03893   0.04046   0.04764   0.04794   0.05151

 Mulliken charges:
               1
     1  C    0.038259
     2  C   -0.045156
     3  C   -0.146125
     4  C   -0.051745
     5  N   -0.175755
     6  C   -0.058478
     7  C   -0.141312
     8  C    0.048370
     9  C   -0.067807
    10  C    0.062256
    11  C   -0.000241
    12  C    0.167930
    13  C    0.168484
    14  O   -0.308219
    15  O   -0.296199
    16  N   -0.044549
    17  C    0.064911
    18  C   -0.112487
    19  C    0.017125
    20  C    0.046246
    21  C    0.163268
    22  C   -0.021036
    23  C   -0.002237
    24  N   -0.272001
    25  C    0.109051
    26  C   -0.174595
    27  C   -0.100154
    28  C    0.025232
    29  C    0.169889
    30  C    0.036865
    31  C    0.026967
    32  N    0.031968
    33  C    0.111726
    34  C   -0.145064
    35  C   -0.072185
    36  C    0.059041
    37  C    0.112752
    38  C    0.112421
    39  O   -0.089588
    40  C   -0.157283
    41  C    0.197183
    42  O   -0.231549
    43  O   -0.231020
    44  C    0.169625
    45  C    0.244205
    46  C   -0.111110
    47  C   -0.153546
    48  C    0.062081
    49  C    0.018997
    50  C    0.066596
    51  C    0.005266
    52  C    0.051485
    53  C    0.078683
    54  C    0.098898
    55  C    0.082255
    56  C   -0.007371
    57  C   -0.078211
    58  C   -0.040955
    59  C    0.033408
    60  C    0.057625
    61  C    0.104311
    62  C   -0.149777
    63  C    0.087076
    64  C   -0.014967
    65  H   -0.025336
    66  H    0.000224
    67  H   -0.051775
    68  H    0.062414
    69  H   -0.001414
    70  H    0.022629
    71  H    0.012603
    72  H   -0.008581
    73  H    0.053839
    74  H    0.033283
    75  H   -0.035809
    76  H   -0.019547
    77  H    0.035022
    78  H   -0.027587
    79  H    0.014422
    80  H   -0.055891
    81  H    0.030929
    82  H    0.009120
    83  H    0.031286
    84  H    0.000741
    85  H    0.006723
    86  H   -0.010334
    87  H    0.019650
    88  H    0.017721
    89  H    0.009659
    90  H    0.021691
    91  H    0.019763
    92  H    0.026105
    93  H    0.002480
    94  H    0.092151
    95  H    0.028548
    96  H    0.030601
    97  H    0.030740
    98  H    0.056055
    99  H    0.065429
   100  H    0.000783
   101  H    0.043982
   102  H    0.046298
   103  H    0.011374
   104  H   -0.010585
   105  H    0.023360
   106  H    0.015458
   107  H   -0.014075
   108  H   -0.053273
   109  H   -0.004151
   110  H   -0.098916
   111  H   -0.039657
   112  H   -0.003965
   113  H   -0.015458
   114  H   -0.067181
   115  H   -0.026675
   116  H   -0.021028
   117  H   -0.011508
   118  H    0.008742
   119  H    0.001859
   120  H   -0.004466
   121  H    0.018745
   122  H    0.017622
   123  H    0.005657
   124  H    0.016596
   125  H   -0.009441
   126  H   -0.028675
   127  H   -0.058557
   128  H   -0.003965
   129  H   -0.026356
   130  H   -0.002421
   131  H    0.021049
   132  H   -0.024116
   133  H    0.002670
   134  H    0.006027
   135  H    0.023911
   136  H    0.023908
   137  H    0.209089
   138  H    0.100046
 Sum of Mulliken charges =  -0.00000

 Dipole moment (field-independent basis, Debye):
    X=              4.4202    Y=              4.5463    Z=              0.4191  Tot=              6.3547
 Quadrupole moment (field-independent basis, Debye-Ang):
   XX=           -362.1650   YY=           -384.1363   ZZ=           -392.1077
   XY=            -28.9822   XZ=              0.6586   YZ=             -6.6244

 Normal termination of Gaussian 16 at Thu Aug 15 10:15:29 2019.
