 Gaussian 16, Revision A.03,
 Gaussian 16:  ES64L-G16RevA.03 25-Dec-2016

 --------------------------
 # td=(NStates=1) B3LYP/SVP
 --------------------------

 --
 TD
 --
 Symbolic Z-matrix:
 Charge =  0 Multiplicity = 1

                         Standard orientation:
 ---------------------------------------------------------------------
 Center     Atomic      Atomic             Coordinates (Angstroms)
 Number     Number       Type             X           Y           Z
 ---------------------------------------------------------------------
      1          6           0       -5.152067   -1.896769    0.380446
      2          6           0       -4.801980    2.694664    1.328181
      3          6           0       -9.452348    3.230529   -0.264344
      4          6           0       -9.857707   -1.531848   -0.820428
      5          7           0       -5.245353    0.379613    0.679163
      6          6           0       -4.461213   -0.782230    0.804231
      7          6           0       -3.108147   -0.547218    1.304855
      8          6           0       -3.064874    0.924152    1.845234
      9          6           0       -4.395258    1.441486    1.211993
     10          6           0       -2.903968    1.046965    3.431251
     11          6           0       -2.064938   -0.886444    0.240342
     12          6           0       -0.630484   -0.639883    0.560492
     13          6           0        0.406893   -0.893652   -0.531324
     14          8           0        0.165971   -1.280432   -1.602516
     15          8           0        1.636778   -0.539718   -0.097194
     16          7           0       -7.106382    2.767036    0.442087
     17          6           0       -6.065221    3.312452    1.018848
     18          6           0       -6.324447    4.783176    0.964493
     19          6           0       -7.635360    4.979511    0.480147
     20          6           0       -8.113854    3.585107    0.129427
     21          6           0       -5.351899    5.801748    1.403641
     22          6           0       -8.327181    6.183697    0.375160
     23          6           0       -9.197249    6.594383   -0.530327
     24          7           0       -9.283424    0.905603   -0.539016
     25          6           0       -9.998070    1.990505   -0.532795
     26          6           0      -11.397600    1.754883   -0.814747
     27          6           0      -11.558943    0.339676   -0.970505
     28          6           0      -10.125873   -0.146626   -0.800580
     29          6           0      -12.376785    2.851659   -1.144559
     30          6           0      -12.805401   -0.393117   -1.547167
     31          6           0      -12.767118   -0.702310   -3.098546
     32          7           0       -7.467794   -1.318085   -0.173101
     33          6           0       -8.672892   -2.112966   -0.520769
     34          6           0       -8.108091   -3.502337   -0.578350
     35          6           0       -6.752317   -3.438823   -0.129510
     36          6           0       -6.480525   -2.051751    0.037455
     37          6           0       -8.869584   -4.705904   -1.009200
     38          6           0       -5.649448   -4.290483   -0.047403
     39          8           0       -5.510328   -5.494668   -0.248817
     40          6           0       -4.475013   -3.292173    0.416193
     41          6           0       -3.813205   -3.761788    1.689404
     42          8           0       -4.071808   -3.328984    2.784671
     43          8           0       -2.979813   -4.818802    1.444198
     44          6           0       -2.343944   -5.327712    2.488953
     45          6           0        2.727636   -0.841240   -1.128616
     46          6           0        3.987623   -0.478623   -0.482494
     47          6           0        4.949346    0.143228   -1.187418
     48          6           0        4.851505    0.767845   -2.518629
     49          6           0        6.224653    0.360284   -0.368752
     50          6           0        7.507116   -0.239711   -0.967503
     51          6           0        8.759161    0.034257   -0.152217
     52          6           0       10.086513   -0.586560   -0.774245
     53          6           0       10.020741   -2.076709   -0.806420
     54          6           0       11.253217   -0.064225    0.060060
     55          6           0       12.740957   -0.480566   -0.554004
     56          6           0       13.861200    0.185773    0.256770
     57          6           0       15.262406   -0.117505   -0.297538
     58          6           0       15.516975   -1.600955   -0.543397
     59          6           0       16.408434    0.545333    0.572673
     60          6           0       17.720417    0.618534   -0.151983
     61          6           0       18.716238    1.485251    0.656991
     62          6           0       20.208643    1.362012    0.089219
     63          6           0       20.238034    2.015610   -1.362002
     64          6           0       21.263969    2.059250    0.963847
     65          1           0       -4.052357    3.503469    1.466913
     66          1           0       -9.998770    4.062789   -0.297707
     67          1           0      -10.774606   -2.237839   -1.127540
     68          1           0       -3.011148   -1.155338    2.200621
     69          1           0       -2.030895    1.266402    1.259289
     70          1           0       -2.026339    0.705930    3.798297
     71          1           0       -3.049510    2.018638    3.652870
     72          1           0       -3.651879    0.372838    3.810579
     73          1           0       -2.264654   -2.148686    0.011274
     74          1           0       -2.276751   -0.461750   -0.887985
     75          1           0       -0.391265    0.399160    0.833136
     76          1           0       -0.138183   -1.283651    1.548138
     77          1           0       -4.499404    5.620025    0.765981
     78          1           0       -5.824827    6.851895    1.352761
     79          1           0       -5.060120    5.636404    2.425854
     80          1           0       -7.979216    6.861114    1.205177
     81          1           0       -9.437689    6.017547   -1.413281
     82          1           0       -9.483624    7.737998   -0.380463
     83          1           0      -12.571516    3.616364   -0.347369
     84          1           0      -11.932562    3.310022   -2.123538
     85          1           0      -13.286451    2.409703   -1.523741
     86          1           0      -12.705049   -1.312553   -0.999575
     87          1           0      -13.804678    0.157997   -1.316252
     88          1           0      -12.493940    0.267038   -3.736801
     89          1           0      -11.881565   -1.448559   -3.255774
     90          1           0      -13.820265   -1.085241   -3.423845
     91          1           0       -9.739677   -4.598608   -0.261622
     92          1           0       -9.127737   -4.834763   -2.050318
     93          1           0       -8.434293   -5.679562   -0.755824
     94          1           0       -3.891000   -3.279480   -0.507784
     95          1           0       -1.753240   -6.304665    2.269860
     96          1           0       -1.440452   -4.548098    2.874406
     97          1           0       -3.105184   -5.717877    3.448667
     98          1           0        2.789560   -1.853230   -1.409599
     99          1           0        2.392934   -0.115818   -1.998200
    100          1           0        4.185489   -0.928409    0.588804
    101          1           0        5.312981    1.781131   -2.503842
    102          1           0        5.556684    0.410927   -3.168716
    103          1           0        3.724356    0.858763   -2.854251
    104          1           0        6.375370    1.507336   -0.150128
    105          1           0        5.973560    0.023085    0.469280
    106          1           0        7.296144   -1.244910   -0.863792
    107          1           0        7.462531    0.178685   -1.921698
    108          1           0        8.702460    1.187194   -0.040877
    109          1           0        8.708067   -0.424904    0.983008
    110          1           0       10.222241   -0.174235   -1.765280
    111          1           0        9.177267   -2.650585   -1.272511
    112          1           0       10.831821   -2.569157   -1.127155
    113          1           0        9.790518   -2.661280    0.170431
    114          1           0       11.204055    1.034819   -0.039124
    115          1           0       11.233447   -0.613887    1.052022
    116          1           0       12.589251   -1.527967   -0.495529
    117          1           0       12.640575   -0.172348   -1.630080
    118          1           0       13.766251    1.342380    0.382809
    119          1           0       13.792417   -0.296574    1.309909
    120          1           0       15.188884    0.261952   -1.530770
    121          1           0       14.655452   -2.155972   -0.858479
    122          1           0       16.383856   -1.629735   -1.196666
    123          1           0       15.868339   -2.286396    0.418995
    124          1           0       16.093302    1.563150    0.701782
    125          1           0       16.420433    0.100347    1.401097
    126          1           0       18.034016   -0.426072   -0.162901
    127          1           0       17.695007    0.973090   -1.142454
    128          1           0       18.203268    2.524671    0.676424
    129          1           0       19.029256    0.896012    1.583777
    130          1           0       20.458114    0.288571   -0.008493
    131          1           0       19.637639    3.046872   -1.340087
    132          1           0       21.237011    2.133435   -1.780689
    133          1           0       19.585421    1.319744   -1.888196
    134          1           0       21.174133    1.343962    1.834943
    135          1           0       22.227608    2.154653    0.407590
    136          1           0       21.143035    3.073361    1.027774
    137          1           0       -7.054400    1.651583    0.228210
    138          1           0       -7.627284   -0.292272   -0.155612
 ---------------------------------------------------------------------

 SCF Done:  E(RB3LYP) =  -2733.04124293     A.U. after   17 cycles

 Excitation energies and oscillator strengths:

 Excited State   1:      Singlet-A      2.0634 eV  600.88 nm  f=0.1589  <S**2>=0.000
     235 -> 238       -0.31899
     236 -> 237        0.62215
 This state for optimization and/or second-order correction.
 Total Energy, E(TD-HF/TD-DFT) =  -2732.96541464
 Copying the excited state density for this state as the 1-particle RhoCI density.

 The electronic state is 1-A.
 Alpha  occ. eigenvalues --  -19.18454 -19.16725 -19.13113 -19.12126 -19.11903
 Alpha  occ. eigenvalues --  -14.38122 -14.37361 -14.32647 -14.30181 -10.32209
 Alpha  occ. eigenvalues --  -10.30576 -10.27359 -10.26546 -10.25062 -10.24168
 Alpha  occ. eigenvalues --  -10.23943 -10.23877 -10.23279 -10.23094 -10.22715
 Alpha  occ. eigenvalues --  -10.22694 -10.22295 -10.22139 -10.21833 -10.21622
 Alpha  occ. eigenvalues --  -10.21584 -10.20895 -10.20573 -10.20549 -10.20512
 Alpha  occ. eigenvalues --  -10.20444 -10.20223 -10.20218 -10.20167 -10.20086
 Alpha  occ. eigenvalues --  -10.20084 -10.20013 -10.19955 -10.19918 -10.19904
 Alpha  occ. eigenvalues --  -10.19613 -10.19506 -10.19475 -10.19429 -10.19380
 Alpha  occ. eigenvalues --  -10.19288 -10.19279 -10.19254 -10.19251 -10.19173
 Alpha  occ. eigenvalues --  -10.19039 -10.18891 -10.18648 -10.18563 -10.18431
 Alpha  occ. eigenvalues --  -10.18142 -10.17928 -10.17792 -10.17719 -10.17433
 Alpha  occ. eigenvalues --  -10.17420 -10.17301 -10.17256 -10.16443  -1.11341
 Alpha  occ. eigenvalues --   -1.09369  -1.02345  -1.01540  -1.00740  -0.99680
 Alpha  occ. eigenvalues --   -0.99452  -0.94361  -0.91770  -0.84867  -0.83489
 Alpha  occ. eigenvalues --   -0.82360  -0.81769  -0.81487  -0.81090  -0.80850
 Alpha  occ. eigenvalues --   -0.79933  -0.79474  -0.79056  -0.78131  -0.77558
 Alpha  occ. eigenvalues --   -0.77059  -0.76254  -0.75911  -0.75268  -0.74439
 Alpha  occ. eigenvalues --   -0.73757  -0.73472  -0.72478  -0.71669  -0.71225
 Alpha  occ. eigenvalues --   -0.70604  -0.69297  -0.69042  -0.68592  -0.67483
 Alpha  occ. eigenvalues --   -0.67273  -0.66883  -0.66406  -0.66358  -0.64777
 Alpha  occ. eigenvalues --   -0.64470  -0.63162  -0.62759  -0.62342  -0.61083
 Alpha  occ. eigenvalues --   -0.60827  -0.59425  -0.58929  -0.58406  -0.57368
 Alpha  occ. eigenvalues --   -0.56672  -0.55542  -0.55360  -0.55218  -0.54879
 Alpha  occ. eigenvalues --   -0.54657  -0.54407  -0.53601  -0.53355  -0.52893
 Alpha  occ. eigenvalues --   -0.52533  -0.52252  -0.52027  -0.51247  -0.50762
 Alpha  occ. eigenvalues --   -0.49952  -0.49314  -0.49010  -0.48767  -0.48354
 Alpha  occ. eigenvalues --   -0.48314  -0.47979  -0.47845  -0.47456  -0.47248
 Alpha  occ. eigenvalues --   -0.46914  -0.46567  -0.46098  -0.45917  -0.45628
 Alpha  occ. eigenvalues --   -0.45535  -0.45323  -0.45021  -0.44984  -0.44663
 Alpha  occ. eigenvalues --   -0.44381  -0.44271  -0.44004  -0.43972  -0.43825
 Alpha  occ. eigenvalues --   -0.43527  -0.43333  -0.43179  -0.42987  -0.42779
 Alpha  occ. eigenvalues --   -0.42604  -0.42310  -0.42150  -0.42029  -0.41886
 Alpha  occ. eigenvalues --   -0.41593  -0.41502  -0.41405  -0.41215  -0.41049
 Alpha  occ. eigenvalues --   -0.40900  -0.40553  -0.40290  -0.39903  -0.39474
 Alpha  occ. eigenvalues --   -0.39388  -0.39164  -0.38878  -0.38720  -0.38697
 Alpha  occ. eigenvalues --   -0.38577  -0.38228  -0.37991  -0.37774  -0.37680
 Alpha  occ. eigenvalues --   -0.37408  -0.37061  -0.36982  -0.36600  -0.36569
 Alpha  occ. eigenvalues --   -0.36411  -0.36185  -0.35975  -0.35651  -0.35454
 Alpha  occ. eigenvalues --   -0.35385  -0.35204  -0.35051  -0.34666  -0.34585
 Alpha  occ. eigenvalues --   -0.34430  -0.34299  -0.34031  -0.33728  -0.33449
 Alpha  occ. eigenvalues --   -0.33360  -0.33183  -0.32918  -0.32852  -0.32733
 Alpha  occ. eigenvalues --   -0.32548  -0.32360  -0.32333  -0.31503  -0.31244
 Alpha  occ. eigenvalues --   -0.31012  -0.30750  -0.30083  -0.29726  -0.29446
 Alpha  occ. eigenvalues --   -0.29425  -0.28733  -0.28669  -0.28403  -0.27815
 Alpha  occ. eigenvalues --   -0.27734  -0.27437  -0.26882  -0.26513  -0.26483
 Alpha  occ. eigenvalues --   -0.24807  -0.24537  -0.23629  -0.22195  -0.19543
 Alpha  occ. eigenvalues --   -0.19279
 Alpha virt. eigenvalues --   -0.10493  -0.07721  -0.04142  -0.02107  -0.00937
 Alpha virt. eigenvalues --    0.00082   0.00510   0.01284   0.01769   0.03399
 Alpha virt. eigenvalues --    0.03574   0.04238   0.04373   0.04512   0.04620

 Mulliken charges:
               1
     1  C   -0.082916
     2  C   -0.067557
     3  C    0.005066
     4  C   -0.116066
     5  N   -0.298672
     6  C   -0.065330
     7  C    0.108460
     8  C   -0.135136
     9  C    0.069088
    10  C    0.183337
    11  C   -0.064325
    12  C   -0.008414
    13  C    0.149610
    14  O   -0.188851
    15  O   -0.359556
    16  N   -0.023475
    17  C    0.029152
    18  C   -0.184785
    19  C    0.057972
    20  C    0.013834
    21  C    0.120268
    22  C   -0.102718
    23  C   -0.029507
    24  N   -0.190707
    25  C    0.076965
    26  C   -0.149597
    27  C   -0.120860
    28  C    0.032790
    29  C    0.095777
    30  C    0.038247
    31  C   -0.058972
    32  N    0.017213
    33  C    0.095198
    34  C   -0.106456
    35  C   -0.007789
    36  C    0.128744
    37  C    0.071871
    38  C    0.015648
    39  O   -0.179161
    40  C   -0.071674
    41  C    0.259214
    42  O   -0.206980
    43  O   -0.231462
    44  C    0.054160
    45  C    0.255869
    46  C   -0.127691
    47  C   -0.187552
    48  C    0.143989
    49  C    0.137182
    50  C    0.130492
    51  C   -0.053897
    52  C    0.008947
    53  C    0.039879
    54  C   -0.006523
    55  C   -0.007023
    56  C    0.055405
    57  C   -0.160225
    58  C    0.012879
    59  C    0.200378
    60  C    0.025245
    61  C    0.009069
    62  C   -0.157139
    63  C   -0.005302
    64  C    0.105955
    65  H   -0.017145
    66  H   -0.104889
    67  H    0.030067
    68  H    0.003245
    69  H    0.021504
    70  H   -0.012245
    71  H   -0.012399
    72  H    0.020270
    73  H    0.046708
    74  H    0.051083
    75  H    0.031046
    76  H    0.052067
    77  H    0.032304
    78  H    0.026010
    79  H    0.021347
    80  H    0.011504
    81  H    0.028769
    82  H    0.045250
    83  H    0.040197
    84  H    0.028732
    85  H   -0.005949
    86  H    0.006380
    87  H    0.027754
    88  H    0.035412
    89  H    0.029123
    90  H    0.040276
    91  H    0.040385
    92  H    0.041163
    93  H    0.028005
    94  H    0.056270
    95  H    0.041837
    96  H    0.027014
    97  H    0.046222
    98  H    0.032534
    99  H    0.050291
   100  H    0.032009
   101  H   -0.001873
   102  H   -0.005629
   103  H    0.034623
   104  H   -0.001615
   105  H   -0.107296
   106  H   -0.023947
   107  H   -0.023876
   108  H    0.001229
   109  H    0.011845
   110  H   -0.018856
   111  H   -0.001902
   112  H   -0.024777
   113  H   -0.010798
   114  H    0.001706
   115  H    0.006958
   116  H    0.002704
   117  H   -0.002784
   118  H    0.013875
   119  H   -0.001711
   120  H   -0.000279
   121  H    0.006172
   122  H    0.014774
   123  H   -0.003270
   124  H   -0.033706
   125  H   -0.073022
   126  H   -0.016695
   127  H   -0.010029
   128  H    0.024497
   129  H   -0.002257
   130  H    0.000981
   131  H    0.014827
   132  H    0.013405
   133  H    0.007040
   134  H    0.022588
   135  H   -0.008382
   136  H   -0.023838
   137  H    0.212286
   138  H    0.143293
 Sum of Mulliken charges =  -0.00000

 Dipole moment (field-independent basis, Debye):
    X=              2.0834    Y=              4.0405    Z=             -0.4223  Tot=              4.5656
 Quadrupole moment (field-independent basis, Debye-Ang):
   XX=           -355.4709   YY=           -386.7030   ZZ=           -398.0380
   XY=            -23.3977   XZ=              8.0154   YZ=             -0.3312

 Normal termination of Gaussian 16 at Mon Aug 12 12:22:56 2019.
