 Gaussian 16, Revision A.03,
 Gaussian 16:  ES64L-G16RevA.03 25-Dec-2016

 --------------------------
 # td=(NStates=1) B3LYP/SVP
 --------------------------

 --
 TD
 --
 Symbolic Z-matrix:
 Charge =  0 Multiplicity = 1

                         Standard orientation:
 ---------------------------------------------------------------------
 Center     Atomic      Atomic             Coordinates (Angstroms)
 Number     Number       Type             X           Y           Z
 ---------------------------------------------------------------------
      1          6           0       -5.192476   -2.001624    0.570958
      2          6           0       -4.735230    2.716552    1.520564
      3          6           0       -9.253582    3.343155   -0.295612
      4          6           0       -9.898802   -1.498872   -1.052342
      5          7           0       -5.247807    0.429125    0.771629
      6          6           0       -4.549401   -0.792418    0.856848
      7          6           0       -3.182267   -0.591125    1.237697
      8          6           0       -3.081978    0.815689    1.886943
      9          6           0       -4.395551    1.359526    1.325164
     10          6           0       -2.990402    0.800808    3.373246
     11          6           0       -2.217330   -0.740918    0.078033
     12          6           0       -0.632615   -0.777762    0.542415
     13          6           0        0.380693   -1.089525   -0.622894
     14          8           0        0.125770   -1.681003   -1.659529
     15          8           0        1.557981   -0.437472   -0.290348
     16          7           0       -6.998133    2.787270    0.460423
     17          6           0       -5.914544    3.423214    1.016231
     18          6           0       -6.252556    4.760856    1.101223
     19          6           0       -7.425605    4.983404    0.501381
     20          6           0       -8.001452    3.678132    0.109676
     21          6           0       -5.216195    5.823282    1.650651
     22          6           0       -8.055743    6.219794    0.378321
     23          6           0       -8.992542    6.694031   -0.543454
     24          7           0       -9.219421    0.947741   -0.475577
     25          6           0       -9.880974    2.063977   -0.417275
     26          6           0      -11.196939    1.943957   -0.977975
     27          6           0      -11.472329    0.498164   -1.141108
     28          6           0      -10.167863   -0.100805   -0.887181
     29          6           0      -12.259029    3.007290   -1.122680
     30          6           0      -12.574008   -0.159001   -1.680482
     31          6           0      -12.683816   -0.316284   -3.222219
     32          7           0       -7.586921   -1.233962   -0.266090
     33          6           0       -8.590112   -2.013468   -0.739747
     34          6           0       -8.232361   -3.389448   -0.705746
     35          6           0       -6.992797   -3.412655   -0.176836
     36          6           0       -6.607223   -2.147430    0.185936
     37          6           0       -9.064812   -4.590404   -1.242230
     38          6           0       -5.826820   -4.321559    0.120676
     39          8           0       -5.719099   -5.575709   -0.132233
     40          6           0       -4.652199   -3.400644    0.553559
     41          6           0       -3.927695   -3.845070    1.735376
     42          8           0       -4.098497   -3.290313    2.858282
     43          8           0       -3.104163   -4.910378    1.582823
     44          6           0       -2.605859   -5.530446    2.791225
     45          6           0        2.683916   -0.810034   -1.169407
     46          6           0        3.912202   -0.344958   -0.456946
     47          6           0        4.932192    0.128579   -1.078431
     48          6           0        5.202276    0.493411   -2.585681
     49          6           0        6.317098    0.355450   -0.310985
     50          6           0        7.488829   -0.446799   -0.903284
     51          6           0        8.744361   -0.277754   -0.039101
     52          6           0       10.034394   -0.704841   -0.724470
     53          6           0       10.215017   -2.198033   -0.917984
     54          6           0       11.252134   -0.160714    0.050016
     55          6           0       12.589421   -0.530756   -0.509255
     56          6           0       13.832455    0.089910    0.203155
     57          6           0       15.285746   -0.156199   -0.400693
     58          6           0       15.571971   -1.749774   -0.604353
     59          6           0       16.310436    0.563630    0.416026
     60          6           0       17.760269    0.516311   -0.147113
     61          6           0       18.711453    1.600295    0.565884
     62          6           0       20.139777    1.545074    0.148678
     63          6           0       20.238488    2.233712   -1.324342
     64          6           0       21.053791    2.274723    1.088846
     65          1           0       -3.929095    3.365328    1.887353
     66          1           0       -9.958318    4.163767   -0.496544
     67          1           0      -10.667003   -2.284668   -1.384881
     68          1           0       -2.850867   -1.314223    2.005332
     69          1           0       -2.100873    1.311992    1.459854
     70          1           0       -1.989511    0.287020    3.638458
     71          1           0       -2.809840    2.032265    3.895493
     72          1           0       -3.858848    0.301339    3.836197
     73          1           0       -2.455907   -1.669999   -0.516161
     74          1           0       -2.347268    0.087693   -0.697769
     75          1           0       -0.306718    0.295486    0.717835
     76          1           0       -0.414821   -1.645572    1.232480
     77          1           0       -4.311437    5.632969    1.056571
     78          1           0       -5.739669    6.861087    1.377779
     79          1           0       -4.994126    5.430870    2.667246
     80          1           0       -7.596459    6.948184    1.131861
     81          1           0       -9.249938    5.791205   -1.211130
     82          1           0       -9.430805    7.736353   -0.317519
     83          1           0      -12.406509    3.563807   -0.281149
     84          1           0      -12.033645    3.752812   -2.078902
     85          1           0      -13.180756    2.535443   -1.279494
     86          1           0      -12.863411   -1.055033   -1.072607
     87          1           0      -13.464631    0.545554   -1.348944
     88          1           0      -12.797222    0.792290   -3.597938
     89          1           0      -11.901850   -1.003196   -3.632857
     90          1           0      -13.674535   -0.949722   -3.496515
     91          1           0       -9.893694   -4.711094   -0.573797
     92          1           0       -9.610740   -4.360580   -2.161710
     93          1           0       -8.603965   -5.526041   -1.277571
     94          1           0       -3.940338   -3.490953   -0.351853
     95          1           0       -2.206620   -6.495036    2.432853
     96          1           0       -2.042058   -4.803651    3.250662
     97          1           0       -3.514178   -5.574522    3.446365
     98          1           0        2.715436   -2.086284   -1.108179
     99          1           0        2.309014   -0.445566   -2.109939
    100          1           0        3.932509   -0.748592    0.589856
    101          1           0        5.960458    1.297964   -2.652257
    102          1           0        5.545876   -0.517245   -3.222280
    103          1           0        4.196587    0.932482   -2.845402
    104          1           0        6.338790    1.667308   -0.395048
    105          1           0        6.347482    0.162285    0.859492
    106          1           0        7.186419   -1.529411   -0.764937
    107          1           0        7.634388   -0.292852   -1.867547
    108          1           0        8.758062    0.708444    0.258703
    109          1           0        8.699350   -0.860682    0.922694
    110          1           0       10.118079   -0.097303   -1.725871
    111          1           0        9.471564   -2.512896   -1.426824
    112          1           0       11.149358   -2.365004   -1.392842
    113          1           0       10.358736   -2.514757    0.018447
    114          1           0       11.083758    0.865298    0.211473
    115          1           0       11.149476   -0.674091    1.083778
    116          1           0       12.595545   -1.719837   -0.598743
    117          1           0       12.696672   -0.272425   -1.612616
    118          1           0       13.897366    1.232126    0.008962
    119          1           0       13.873605   -0.103044    1.383875
    120          1           0       15.203370    0.145832   -1.375340
    121          1           0       14.814692   -2.083751   -1.290838
    122          1           0       16.465461   -1.954082   -1.133881
    123          1           0       15.744448   -2.460814    0.388181
    124          1           0       16.271159    1.658953    0.313667
    125          1           0       16.544545    0.202854    1.389114
    126          1           0       18.144329   -0.313034   -0.295831
    127          1           0       17.622947    0.836468   -1.276715
    128          1           0       18.444471    2.751901    0.666679
    129          1           0       18.745124    1.420168    1.580773
    130          1           0       20.468313    0.484795   -0.019665
    131          1           0       20.218762    3.457976   -1.230432
    132          1           0       21.465466    2.328944   -1.537512
    133          1           0       19.702859    1.487495   -2.082661
    134          1           0       21.019630    1.828514    1.858374
    135          1           0       22.114985    2.307112    0.807862
    136          1           0       20.689816    3.406268    1.258001
    137          1           0       -7.269632    1.651060    0.044568
    138          1           0       -7.616452   -0.187600   -0.296193
 ---------------------------------------------------------------------

 SCF Done:  E(RB3LYP) =  -2732.95741943     A.U. after   17 cycles

 Excitation energies and oscillator strengths:

 Excited State   1:      Singlet-A      2.0198 eV  613.83 nm  f=0.1280  <S**2>=0.000
     235 -> 237       -0.26503
     235 -> 238        0.28396
     236 -> 237        0.55815
     236 -> 238        0.18264
 This state for optimization and/or second-order correction.
 Total Energy, E(TD-HF/TD-DFT) =  -2732.88319171
 Copying the excited state density for this state as the 1-particle RhoCI density.

 The electronic state is 1-A.
 Alpha  occ. eigenvalues --  -19.17868 -19.17524 -19.13178 -19.12445 -19.12057
 Alpha  occ. eigenvalues --  -14.37014 -14.36859 -14.32526 -14.30811 -10.31933
 Alpha  occ. eigenvalues --  -10.31791 -10.29000 -10.26055 -10.24338 -10.24160
 Alpha  occ. eigenvalues --  -10.23649 -10.23281 -10.23164 -10.23087 -10.22698
 Alpha  occ. eigenvalues --  -10.22410 -10.22183 -10.22101 -10.21834 -10.21762
 Alpha  occ. eigenvalues --  -10.21718 -10.21397 -10.21323 -10.21151 -10.21018
 Alpha  occ. eigenvalues --  -10.20998 -10.20896 -10.20861 -10.20804 -10.20729
 Alpha  occ. eigenvalues --  -10.20538 -10.20521 -10.20479 -10.19899 -10.19855
 Alpha  occ. eigenvalues --  -10.19772 -10.19754 -10.19747 -10.19708 -10.19581
 Alpha  occ. eigenvalues --  -10.19276 -10.19128 -10.19121 -10.19087 -10.19028
 Alpha  occ. eigenvalues --  -10.18994 -10.18903 -10.18878 -10.18836 -10.18775
 Alpha  occ. eigenvalues --  -10.18447 -10.18384 -10.18246 -10.17806 -10.17797
 Alpha  occ. eigenvalues --  -10.17766 -10.17732 -10.16613 -10.15242  -1.08479
 Alpha  occ. eigenvalues --   -1.07770  -1.00348  -0.99343  -0.98403  -0.98094
 Alpha  occ. eigenvalues --   -0.97456  -0.93523  -0.92896  -0.85256  -0.82922
 Alpha  occ. eigenvalues --   -0.81997  -0.81790  -0.81475  -0.81208  -0.80551
 Alpha  occ. eigenvalues --   -0.80460  -0.79743  -0.79713  -0.78214  -0.77595
 Alpha  occ. eigenvalues --   -0.77129  -0.75686  -0.75404  -0.74621  -0.74024
 Alpha  occ. eigenvalues --   -0.73645  -0.72806  -0.72274  -0.71861  -0.70622
 Alpha  occ. eigenvalues --   -0.69568  -0.69420  -0.68730  -0.68307  -0.67781
 Alpha  occ. eigenvalues --   -0.67523  -0.66598  -0.66306  -0.65792  -0.65118
 Alpha  occ. eigenvalues --   -0.64012  -0.62572  -0.62452  -0.62021  -0.61666
 Alpha  occ. eigenvalues --   -0.61071  -0.59410  -0.58545  -0.58061  -0.57652
 Alpha  occ. eigenvalues --   -0.56717  -0.55559  -0.55487  -0.55470  -0.55093
 Alpha  occ. eigenvalues --   -0.54891  -0.54695  -0.54285  -0.53355  -0.52650
 Alpha  occ. eigenvalues --   -0.52066  -0.51764  -0.51471  -0.50486  -0.50107
 Alpha  occ. eigenvalues --   -0.49279  -0.48913  -0.48903  -0.48606  -0.48089
 Alpha  occ. eigenvalues --   -0.47853  -0.47441  -0.47337  -0.47278  -0.47176
 Alpha  occ. eigenvalues --   -0.46623  -0.46389  -0.46308  -0.45718  -0.45438
 Alpha  occ. eigenvalues --   -0.45162  -0.44950  -0.44887  -0.44803  -0.44725
 Alpha  occ. eigenvalues --   -0.44331  -0.44071  -0.43865  -0.43690  -0.43468
 Alpha  occ. eigenvalues --   -0.43323  -0.43037  -0.42881  -0.42729  -0.42525
 Alpha  occ. eigenvalues --   -0.42271  -0.42087  -0.41809  -0.41665  -0.41302
 Alpha  occ. eigenvalues --   -0.40958  -0.40840  -0.40777  -0.40636  -0.40534
 Alpha  occ. eigenvalues --   -0.40025  -0.39931  -0.39853  -0.39775  -0.39423
 Alpha  occ. eigenvalues --   -0.39334  -0.39312  -0.38892  -0.38757  -0.38547
 Alpha  occ. eigenvalues --   -0.38291  -0.38197  -0.38077  -0.38011  -0.37875
 Alpha  occ. eigenvalues --   -0.37625  -0.37394  -0.37214  -0.36979  -0.36937
 Alpha  occ. eigenvalues --   -0.36655  -0.36528  -0.36366  -0.36179  -0.36063
 Alpha  occ. eigenvalues --   -0.35808  -0.35353  -0.35243  -0.34712  -0.34462
 Alpha  occ. eigenvalues --   -0.34331  -0.34155  -0.34083  -0.33826  -0.33567
 Alpha  occ. eigenvalues --   -0.33551  -0.33273  -0.32822  -0.32224  -0.32109
 Alpha  occ. eigenvalues --   -0.32019  -0.31957  -0.31770  -0.31105  -0.31031
 Alpha  occ. eigenvalues --   -0.30882  -0.30833  -0.30515  -0.30331  -0.29934
 Alpha  occ. eigenvalues --   -0.29820  -0.29069  -0.28383  -0.28110  -0.27840
 Alpha  occ. eigenvalues --   -0.27483  -0.27427  -0.26935  -0.26512  -0.26206
 Alpha  occ. eigenvalues --   -0.25828  -0.25246  -0.23493  -0.21688  -0.19981
 Alpha  occ. eigenvalues --   -0.19011
 Alpha virt. eigenvalues --   -0.10469  -0.08563  -0.05063  -0.02341  -0.01357
 Alpha virt. eigenvalues --   -0.00474  -0.00068   0.00596   0.01525   0.03164
 Alpha virt. eigenvalues --    0.03299   0.03461   0.04135   0.04172   0.04652

 Mulliken charges:
               1
     1  C   -0.006990
     2  C   -0.054380
     3  C   -0.090736
     4  C   -0.092720
     5  N   -0.209908
     6  C   -0.015746
     7  C    0.000484
     8  C   -0.061883
     9  C    0.024954
    10  C    0.003443
    11  C    0.010685
    12  C    0.008728
    13  C    0.167704
    14  O   -0.231128
    15  O   -0.352990
    16  N   -0.189011
    17  C    0.110946
    18  C   -0.165286
    19  C    0.096269
    20  C    0.108657
    21  C    0.084361
    22  C   -0.150927
    23  C   -0.038531
    24  N   -0.295232
    25  C    0.081096
    26  C   -0.184206
    27  C   -0.057250
    28  C    0.099726
    29  C    0.126959
    30  C   -0.000368
    31  C   -0.012807
    32  N   -0.068542
    33  C    0.038652
    34  C   -0.196826
    35  C    0.018083
    36  C    0.079104
    37  C    0.179931
    38  C    0.105556
    39  O   -0.229879
    40  C    0.010907
    41  C    0.203503
    42  O   -0.288247
    43  O   -0.310678
    44  C    0.233314
    45  C    0.184522
    46  C   -0.053736
    47  C   -0.108142
    48  C    0.023471
    49  C   -0.072983
    50  C    0.106126
    51  C    0.074811
    52  C   -0.170984
    53  C    0.243436
    54  C    0.038660
    55  C    0.003617
    56  C   -0.006003
    57  C   -0.022647
    58  C   -0.006807
    59  C    0.087863
    60  C    0.064675
    61  C    0.071105
    62  C   -0.140213
    63  C   -0.071605
    64  C    0.152910
    65  H   -0.028156
    66  H   -0.024975
    67  H    0.016870
    68  H    0.004192
    69  H    0.016373
    70  H    0.032292
    71  H    0.025249
    72  H    0.047785
    73  H    0.020574
    74  H    0.012404
    75  H    0.055744
    76  H    0.053379
    77  H    0.035674
    78  H    0.052512
    79  H    0.043113
    80  H    0.004382
    81  H    0.050196
    82  H    0.054665
    83  H    0.002007
    84  H    0.034530
    85  H   -0.024287
    86  H    0.006507
    87  H    0.003559
    88  H    0.046313
    89  H    0.027741
    90  H    0.021621
    91  H    0.001828
    92  H    0.009280
    93  H    0.019062
    94  H    0.087110
    95  H    0.058089
    96  H    0.003051
    97  H    0.031023
    98  H    0.049530
    99  H    0.030463
   100  H    0.011830
   101  H    0.031844
   102  H    0.071118
   103  H    0.033959
   104  H    0.023088
   105  H    0.015960
   106  H    0.008595
   107  H   -0.042118
   108  H   -0.033876
   109  H   -0.011487
   110  H   -0.013393
   111  H   -0.056026
   112  H   -0.009622
   113  H   -0.040684
   114  H   -0.025329
   115  H   -0.010120
   116  H    0.021821
   117  H   -0.009152
   118  H    0.005325
   119  H    0.016029
   120  H   -0.039956
   121  H    0.002093
   122  H   -0.010242
   123  H    0.023559
   124  H    0.007615
   125  H   -0.004988
   126  H   -0.084553
   127  H   -0.012920
   128  H   -0.002392
   129  H   -0.045437
   130  H   -0.001481
   131  H    0.026622
   132  H   -0.000736
   133  H    0.053784
   134  H   -0.091370
   135  H    0.004200
   136  H    0.012886
   137  H    0.254525
   138  H    0.154465
 Sum of Mulliken charges =  -0.00000

 Dipole moment (field-independent basis, Debye):
    X=              2.7178    Y=              2.7191    Z=              0.3632  Tot=              3.8615
 Quadrupole moment (field-independent basis, Debye-Ang):
   XX=           -346.1290   YY=           -387.5549   ZZ=           -398.4611
   XY=            -24.0452   XZ=             14.6637   YZ=             -1.6195

 Normal termination of Gaussian 16 at Fri Aug 16 16:17:34 2019.
