 Gaussian 16, Revision A.03,
 Gaussian 16:  ES64L-G16RevA.03 25-Dec-2016

 --------------------------
 # td=(NStates=1) B3LYP/SVP
 --------------------------

 --
 TD
 --
 Symbolic Z-matrix:
 Charge =  0 Multiplicity = 1

                         Standard orientation:
 ---------------------------------------------------------------------
 Center     Atomic      Atomic             Coordinates (Angstroms)
 Number     Number       Type             X           Y           Z
 ---------------------------------------------------------------------
      1          6           0       -5.177359   -2.031467    0.374197
      2          6           0       -4.663169    2.714444    1.385314
      3          6           0       -9.156538    3.478602   -0.315767
      4          6           0       -9.840346   -1.408694   -0.927486
      5          7           0       -5.129601    0.436796    0.760741
      6          6           0       -4.452391   -0.789555    0.664570
      7          6           0       -3.070630   -0.733418    1.214992
      8          6           0       -2.996570    0.719992    1.752991
      9          6           0       -4.345845    1.365281    1.249316
     10          6           0       -2.966082    0.987820    3.277656
     11          6           0       -2.030254   -0.929824    0.136605
     12          6           0       -0.575649   -0.855243    0.601998
     13          6           0        0.396417   -1.231186   -0.418335
     14          8           0        0.281238   -1.763923   -1.510474
     15          8           0        1.684551   -1.005076   -0.080148
     16          7           0       -6.900993    2.837507    0.436233
     17          6           0       -5.833010    3.373294    1.052075
     18          6           0       -6.051337    4.848072    1.059938
     19          6           0       -7.336891    5.107745    0.602100
     20          6           0       -7.883126    3.771601    0.188412
     21          6           0       -5.050790    5.824771    1.526271
     22          6           0       -7.914124    6.417927    0.348869
     23          6           0       -8.914812    6.777720   -0.454839
     24          7           0       -9.170209    0.962320   -0.443673
     25          6           0       -9.826130    2.219221   -0.480166
     26          6           0      -11.205656    2.176247   -0.842812
     27          6           0      -11.423035    0.799299   -1.026695
     28          6           0      -10.147564    0.076885   -0.733732
     29          6           0      -12.207535    3.178362   -1.110258
     30          6           0      -12.704170    0.027132   -1.646446
     31          6           0      -12.621153   -0.254446   -3.271402
     32          7           0       -7.456168   -1.216848   -0.208934
     33          6           0       -8.602663   -1.958686   -0.731522
     34          6           0       -8.270763   -3.359974   -0.774591
     35          6           0       -6.881880   -3.378707   -0.293657
     36          6           0       -6.419261   -2.054003   -0.081800
     37          6           0       -9.201751   -4.445689   -1.153983
     38          6           0       -5.856677   -4.342131   -0.046220
     39          8           0       -5.916627   -5.570578   -0.242739
     40          6           0       -4.543343   -3.407478    0.368378
     41          6           0       -3.995405   -3.846471    1.644152
     42          8           0       -4.162601   -3.339960    2.747044
     43          8           0       -3.218107   -4.935196    1.470584
     44          6           0       -2.570626   -5.466895    2.627952
     45          6           0        2.657339   -1.402465   -0.893266
     46          6           0        3.965647   -0.870262   -0.384844
     47          6           0        5.006308   -0.163455   -1.028968
     48          6           0        4.875155    0.222039   -2.465414
     49          6           0        6.362187    0.094141   -0.369089
     50          6           0        7.456050   -0.717348   -0.927908
     51          6           0        8.663751   -0.261217   -0.095110
     52          6           0       10.083875   -1.024541   -0.624089
     53          6           0        9.964618   -2.438708   -0.550383
     54          6           0       11.321260   -0.333262    0.182326
     55          6           0       12.636720   -0.732778   -0.374976
     56          6           0       13.764894   -0.097806    0.509848
     57          6           0       15.189430   -0.217683   -0.158819
     58          6           0       15.579686   -1.758935   -0.123489
     59          6           0       16.133859    0.718530    0.523565
     60          6           0       17.549476    0.831176   -0.211453
     61          6           0       18.536872    2.022301    0.338621
     62          6           0       19.964888    1.986949   -0.129165
     63          6           0       19.966831    2.144525   -1.757371
     64          6           0       20.794868    3.190914    0.645094
     65          1           0       -3.891037    3.349313    1.605097
     66          1           0       -9.802760    4.416439   -0.236804
     67          1           0      -10.551961   -2.163928   -1.339191
     68          1           0       -2.898359   -1.240495    2.287573
     69          1           0       -2.157914    1.352235    1.382283
     70          1           0       -2.016217    0.373496    3.493592
     71          1           0       -3.042173    1.932288    3.716029
     72          1           0       -3.676873    0.336084    3.776375
     73          1           0       -2.084083   -1.870599   -0.178395
     74          1           0       -2.168439   -0.214343   -0.729159
     75          1           0       -0.317908    0.148549    0.945916
     76          1           0       -0.432492   -1.403771    1.409598
     77          1           0       -3.970417    5.499938    0.948678
     78          1           0       -5.244765    6.826653    1.112750
     79          1           0       -4.952318    6.004156    2.662428
     80          1           0       -7.326456    7.271322    0.541802
     81          1           0       -9.311409    5.898932   -1.169344
     82          1           0       -9.096872    7.782693   -0.323658
     83          1           0      -12.638919    3.648418   -0.082763
     84          1           0      -11.689053    4.243615   -1.621976
     85          1           0      -13.166973    2.612815   -1.523640
     86          1           0      -13.162184   -0.831480   -1.239730
     87          1           0      -13.527282    0.586477   -1.611807
     88          1           0      -12.598502    0.827122   -3.744981
     89          1           0      -11.799815   -0.900770   -3.505976
     90          1           0      -13.533725   -0.695210   -3.785573
     91          1           0      -10.002422   -4.383492   -0.383657
     92          1           0       -9.637822   -4.397663   -2.136212
     93          1           0       -8.694366   -5.477770   -1.068194
     94          1           0       -3.770123   -3.437521   -0.415966
     95          1           0       -2.038137   -6.330403    2.305469
     96          1           0       -2.061025   -4.660824    3.318007
     97          1           0       -3.332129   -5.832031    3.285315
     98          1           0        2.768963   -2.703269   -0.985526
     99          1           0        2.430329   -1.186101   -1.956630
    100          1           0        4.106135   -0.864621    0.700445
    101          1           0        4.907163    1.169879   -2.658266
    102          1           0        5.729599   -0.264692   -3.090416
    103          1           0        3.890190   -0.032519   -3.142313
    104          1           0        6.566917    1.203624   -0.338360
    105          1           0        6.163882   -0.441519    0.714738
    106          1           0        7.415254   -1.769319   -0.951645
    107          1           0        7.512687   -0.282942   -2.021187
    108          1           0        8.797413    0.799599   -0.177626
    109          1           0        8.415812   -0.408969    1.103833
    110          1           0       10.037862   -0.459939   -1.718331
    111          1           0        8.964245   -2.957543   -1.060251
    112          1           0       10.846616   -3.008638   -0.940690
    113          1           0       10.033890   -2.851851    0.520288
    114          1           0       11.110178    0.664618    0.036960
    115          1           0       11.246417   -0.468553    1.289110
    116          1           0       12.863522   -1.781549   -0.405176
    117          1           0       12.737147   -0.511019   -1.463768
    118          1           0       13.678238    0.941580    0.670556
    119          1           0       13.648784   -0.556097    1.454403
    120          1           0       15.005160   -0.020514   -1.243606
    121          1           0       14.830426   -2.567244   -0.616367
    122          1           0       16.522124   -1.985713   -0.653610
    123          1           0       15.758334   -1.973782    1.001031
    124          1           0       15.808061    1.798539    0.479628
    125          1           0       16.252874    0.266169    1.446180
    126          1           0       18.255599   -0.054777   -0.436143
    127          1           0       17.315255    1.195549   -1.306069
    128          1           0       18.108399    3.015546    0.091106
    129          1           0       18.549824    2.047001    1.431155
    130          1           0       20.531761    1.079726    0.238156
    131          1           0       19.555345    3.008480   -2.215076
    132          1           0       21.040270    2.040670   -2.334775
    133          1           0       19.343550    1.094208   -2.079846
    134          1           0       20.755095    3.183890    1.854497
    135          1           0       21.780011    3.127686    0.303038
    136          1           0       20.414041    4.121124    0.273492
    137          1           0       -7.142732    1.745035    0.485849
    138          1           0       -7.510126   -0.218524   -0.104488
 ---------------------------------------------------------------------

 SCF Done:  E(RB3LYP) =  -2733.04997853     A.U. after   16 cycles

 Excitation energies and oscillator strengths:

 Excited State   1:      Singlet-A      1.9727 eV  628.51 nm  f=0.1098  <S**2>=0.000
     235 -> 237        0.17906
     235 -> 238        0.29377
     236 -> 237        0.57223
     236 -> 238       -0.22525
 This state for optimization and/or second-order correction.
 Total Energy, E(TD-HF/TD-DFT) =  -2732.97748395
 Copying the excited state density for this state as the 1-particle RhoCI density.

 The electronic state is 1-A.
 Alpha  occ. eigenvalues --  -19.17703 -19.17441 -19.12658 -19.12279 -19.12207
 Alpha  occ. eigenvalues --  -14.37842 -14.36735 -14.32665 -14.30717 -10.31809
 Alpha  occ. eigenvalues --  -10.31438 -10.28416 -10.25178 -10.24406 -10.24337
 Alpha  occ. eigenvalues --  -10.24211 -10.24116 -10.23837 -10.23189 -10.23049
 Alpha  occ. eigenvalues --  -10.22862 -10.22691 -10.22187 -10.22030 -10.21963
 Alpha  occ. eigenvalues --  -10.21889 -10.21693 -10.21463 -10.21229 -10.21155
 Alpha  occ. eigenvalues --  -10.20720 -10.20711 -10.20593 -10.20584 -10.20467
 Alpha  occ. eigenvalues --  -10.20457 -10.20437 -10.20353 -10.20046 -10.20022
 Alpha  occ. eigenvalues --  -10.19984 -10.19906 -10.19894 -10.19884 -10.19771
 Alpha  occ. eigenvalues --  -10.19737 -10.19381 -10.19332 -10.19271 -10.19258
 Alpha  occ. eigenvalues --  -10.19094 -10.19047 -10.18970 -10.18952 -10.18737
 Alpha  occ. eigenvalues --  -10.18695 -10.18516 -10.18492 -10.18426 -10.18223
 Alpha  occ. eigenvalues --  -10.18179 -10.17842 -10.17541 -10.17019  -1.12012
 Alpha  occ. eigenvalues --   -1.09360  -1.01111  -1.00448  -0.99896  -0.98367
 Alpha  occ. eigenvalues --   -0.97521  -0.94585  -0.92574  -0.85738  -0.83567
 Alpha  occ. eigenvalues --   -0.82298  -0.82023  -0.81407  -0.81217  -0.80595
 Alpha  occ. eigenvalues --   -0.79508  -0.79206  -0.78873  -0.78162  -0.77862
 Alpha  occ. eigenvalues --   -0.77178  -0.76595  -0.76341  -0.75001  -0.74197
 Alpha  occ. eigenvalues --   -0.73849  -0.73341  -0.72763  -0.71315  -0.70634
 Alpha  occ. eigenvalues --   -0.70388  -0.69304  -0.68324  -0.67215  -0.66978
 Alpha  occ. eigenvalues --   -0.66609  -0.66354  -0.65867  -0.65751  -0.65374
 Alpha  occ. eigenvalues --   -0.64715  -0.63186  -0.62742  -0.61818  -0.61428
 Alpha  occ. eigenvalues --   -0.61116  -0.58919  -0.58524  -0.58073  -0.57732
 Alpha  occ. eigenvalues --   -0.57398  -0.56061  -0.55898  -0.55741  -0.55465
 Alpha  occ. eigenvalues --   -0.54880  -0.54701  -0.54403  -0.53881  -0.53441
 Alpha  occ. eigenvalues --   -0.52970  -0.51932  -0.51555  -0.51529  -0.51287
 Alpha  occ. eigenvalues --   -0.50956  -0.50292  -0.49598  -0.48700  -0.48460
 Alpha  occ. eigenvalues --   -0.48108  -0.47778  -0.47686  -0.47522  -0.46886
 Alpha  occ. eigenvalues --   -0.46788  -0.46066  -0.46037  -0.45685  -0.45504
 Alpha  occ. eigenvalues --   -0.45383  -0.45114  -0.45026  -0.44670  -0.44321
 Alpha  occ. eigenvalues --   -0.44258  -0.43938  -0.43629  -0.43542  -0.43250
 Alpha  occ. eigenvalues --   -0.43141  -0.42999  -0.42723  -0.42468  -0.42319
 Alpha  occ. eigenvalues --   -0.42210  -0.41891  -0.41735  -0.41589  -0.41443
 Alpha  occ. eigenvalues --   -0.41381  -0.41093  -0.40874  -0.40483  -0.40307
 Alpha  occ. eigenvalues --   -0.40263  -0.39931  -0.39763  -0.39551  -0.39376
 Alpha  occ. eigenvalues --   -0.39202  -0.39105  -0.38856  -0.38694  -0.38659
 Alpha  occ. eigenvalues --   -0.38299  -0.38225  -0.37974  -0.37765  -0.37576
 Alpha  occ. eigenvalues --   -0.37424  -0.37125  -0.36691  -0.36561  -0.36499
 Alpha  occ. eigenvalues --   -0.36317  -0.36212  -0.36104  -0.35927  -0.35792
 Alpha  occ. eigenvalues --   -0.35661  -0.35491  -0.35236  -0.34943  -0.34788
 Alpha  occ. eigenvalues --   -0.34686  -0.34256  -0.34187  -0.33999  -0.33949
 Alpha  occ. eigenvalues --   -0.33729  -0.33621  -0.33121  -0.33093  -0.32796
 Alpha  occ. eigenvalues --   -0.32775  -0.32317  -0.31922  -0.31714  -0.31326
 Alpha  occ. eigenvalues --   -0.31279  -0.30899  -0.30617  -0.29996  -0.29228
 Alpha  occ. eigenvalues --   -0.29189  -0.28688  -0.28506  -0.28025  -0.27826
 Alpha  occ. eigenvalues --   -0.27444  -0.26873  -0.26571  -0.26388  -0.26088
 Alpha  occ. eigenvalues --   -0.25076  -0.24082  -0.22799  -0.22464  -0.20441
 Alpha  occ. eigenvalues --   -0.18916
 Alpha virt. eigenvalues --   -0.10478  -0.09130  -0.05744  -0.02272  -0.00891
 Alpha virt. eigenvalues --   -0.00834   0.00011   0.00319   0.01600   0.03176
 Alpha virt. eigenvalues --    0.03845   0.03932   0.04253   0.04336   0.04821

 Mulliken charges:
               1
     1  C   -0.059721
     2  C   -0.026379
     3  C   -0.095479
     4  C   -0.068643
     5  N   -0.176214
     6  C   -0.018281
     7  C   -0.030080
     8  C   -0.112133
     9  C   -0.012177
    10  C    0.083784
    11  C    0.109994
    12  C    0.138893
    13  C    0.148862
    14  O   -0.241452
    15  O   -0.248076
    16  N   -0.084858
    17  C    0.100514
    18  C   -0.130868
    19  C    0.089400
    20  C    0.024184
    21  C    0.016347
    22  C   -0.072655
    23  C   -0.019667
    24  N   -0.271719
    25  C    0.077447
    26  C   -0.067548
    27  C   -0.081278
    28  C    0.054941
    29  C   -0.028307
    30  C    0.121852
    31  C   -0.070683
    32  N   -0.057312
    33  C    0.096552
    34  C   -0.107784
    35  C   -0.021263
    36  C    0.159756
    37  C    0.078873
    38  C    0.063995
    39  O   -0.194461
    40  C   -0.064361
    41  C    0.208715
    42  O   -0.245527
    43  O   -0.301101
    44  C    0.202613
    45  C    0.203556
    46  C   -0.069128
    47  C   -0.131015
    48  C    0.057069
    49  C    0.014518
    50  C    0.047286
    51  C   -0.037494
    52  C   -0.111189
    53  C    0.016088
    54  C    0.094232
    55  C    0.055158
    56  C    0.072257
    57  C   -0.097707
    58  C   -0.044399
    59  C    0.133515
    60  C   -0.073461
    61  C    0.047490
    62  C   -0.110200
    63  C   -0.066508
    64  C    0.013035
    65  H   -0.068900
    66  H    0.011555
    67  H   -0.001350
    68  H    0.057464
    69  H   -0.000051
    70  H    0.001863
    71  H    0.019222
    72  H    0.010931
    73  H   -0.032637
    74  H    0.029792
    75  H    0.018973
    76  H   -0.017236
    77  H    0.047132
    78  H    0.016171
    79  H    0.057908
    80  H   -0.023121
    81  H    0.064893
    82  H    0.007429
    83  H    0.037425
    84  H    0.050402
    85  H    0.047209
    86  H   -0.011318
    87  H   -0.058052
    88  H    0.027277
    89  H    0.021008
    90  H    0.016316
    91  H    0.041049
    92  H    0.034515
    93  H    0.056236
    94  H    0.074335
    95  H    0.029251
    96  H    0.041321
    97  H    0.009126
    98  H    0.017893
    99  H    0.013068
   100  H   -0.012223
   101  H   -0.031930
   102  H    0.024953
   103  H    0.019405
   104  H    0.023447
   105  H    0.011128
   106  H   -0.002378
   107  H    0.006665
   108  H   -0.017272
   109  H    0.005439
   110  H    0.012526
   111  H    0.035677
   112  H    0.009482
   113  H    0.010870
   114  H   -0.037759
   115  H   -0.005569
   116  H   -0.022306
   117  H   -0.016557
   118  H   -0.032962
   119  H   -0.023422
   120  H   -0.010189
   121  H    0.037377
   122  H    0.011098
   123  H    0.013352
   124  H    0.017353
   125  H   -0.019587
   126  H    0.022163
   127  H    0.010942
   128  H   -0.010166
   129  H   -0.013419
   130  H    0.014964
   131  H    0.019543
   132  H    0.023516
   133  H    0.035152
   134  H    0.031718
   135  H   -0.004765
   136  H   -0.001350
   137  H    0.212456
   138  H    0.123723
 Sum of Mulliken charges =  -0.00000

 Dipole moment (field-independent basis, Debye):
    X=              1.3980    Y=              4.8059    Z=              1.3343  Tot=              5.1800
 Quadrupole moment (field-independent basis, Debye-Ang):
   XX=           -361.8785   YY=           -379.9656   ZZ=           -397.3916
   XY=            -15.2605   XZ=              8.0865   YZ=             -1.5783

 Normal termination of Gaussian 16 at Sat Aug 31 04:24:58 2019.
