 Gaussian 16, Revision A.03,
 Gaussian 16:  ES64L-G16RevA.03 25-Dec-2016

 --------------------------
 # td=(NStates=1) B3LYP/SVP
 --------------------------

 --
 TD
 --
 Symbolic Z-matrix:
 Charge =  0 Multiplicity = 1

                         Standard orientation:
 ---------------------------------------------------------------------
 Center     Atomic      Atomic             Coordinates (Angstroms)
 Number     Number       Type             X           Y           Z
 ---------------------------------------------------------------------
      1          6           0       -5.178770   -1.955209    0.599986
      2          6           0       -4.783122    2.737165    1.505471
      3          6           0       -9.310430    3.237802   -0.395952
      4          6           0       -9.819526   -1.515472   -0.963578
      5          7           0       -5.216605    0.446324    0.845480
      6          6           0       -4.491856   -0.784621    0.902169
      7          6           0       -2.999761   -0.525406    1.364936
      8          6           0       -3.168209    0.862394    1.989397
      9          6           0       -4.438030    1.483048    1.371967
     10          6           0       -3.113176    0.868684    3.539167
     11          6           0       -2.103119   -0.665520    0.234166
     12          6           0       -0.685370   -0.828854    0.629493
     13          6           0        0.328563   -0.950132   -0.602178
     14          8           0        0.071570   -1.276158   -1.725014
     15          8           0        1.618852   -0.835454   -0.199313
     16          7           0       -6.974552    2.774080    0.348867
     17          6           0       -5.930026    3.385413    0.965107
     18          6           0       -6.298057    4.783411    1.016398
     19          6           0       -7.643468    4.903121    0.567766
     20          6           0       -8.081478    3.621444    0.198377
     21          6           0       -5.331065    5.838756    1.419543
     22          6           0       -8.241060    6.205736    0.481602
     23          6           0       -9.217353    6.638059   -0.250520
     24          7           0       -9.146530    0.855892   -0.505936
     25          6           0       -9.864590    1.997028   -0.669962
     26          6           0      -11.216295    1.914338   -1.066150
     27          6           0      -11.405558    0.577295   -1.261599
     28          6           0      -10.016289   -0.001884   -0.914794
     29          6           0      -12.187568    3.010896   -1.255100
     30          6           0      -12.634040   -0.263778   -1.810751
     31          6           0      -12.504451   -0.487604   -3.358759
     32          7           0       -7.576060   -1.267966   -0.217034
     33          6           0       -8.568654   -2.104368   -0.643654
     34          6           0       -8.114098   -3.396580   -0.780715
     35          6           0       -6.801307   -3.406603   -0.190800
     36          6           0       -6.508300   -2.076816    0.097731
     37          6           0       -8.873163   -4.632107   -1.141908
     38          6           0       -5.654645   -4.332801    0.049393
     39          8           0       -5.594433   -5.548647   -0.018936
     40          6           0       -4.479178   -3.363832    0.459902
     41          6           0       -3.934450   -3.817834    1.762339
     42          8           0       -4.246517   -3.451641    2.887384
     43          8           0       -2.994278   -4.783923    1.655102
     44          6           0       -2.375697   -5.334845    2.737845
     45          6           0        2.635669   -0.905726   -1.170846
     46          6           0        3.984173   -0.671311   -0.424265
     47          6           0        4.936390    0.076049   -0.951634
     48          6           0        4.848634    0.855943   -2.289730
     49          6           0        6.331211    0.248030   -0.262815
     50          6           0        7.430570   -0.450763   -0.992024
     51          6           0        8.802386   -0.294451   -0.155012
     52          6           0       10.043662   -0.822747   -0.894855
     53          6           0       10.052755   -2.302692   -1.228381
     54          6           0       11.296987   -0.425316    0.028437
     55          6           0       12.683649   -0.556623   -0.577759
     56          6           0       13.845595   -0.062366    0.216127
     57          6           0       15.217489   -0.091599   -0.404445
     58          6           0       15.725996   -1.579306   -0.733399
     59          6           0       16.276147    0.595678    0.555500
     60          6           0       17.671006    0.752107   -0.165163
     61          6           0       18.671575    1.474347    0.719218
     62          6           0       20.040066    1.742724    0.032540
     63          6           0       19.903817    2.516606   -1.273769
     64          6           0       21.031603    2.245170    1.036222
     65          1           0       -4.191962    3.498171    2.243595
     66          1           0      -10.026721    3.921265   -0.073102
     67          1           0      -10.538690   -2.218995   -1.408145
     68          1           0       -2.824617   -1.295004    2.215245
     69          1           0       -2.334554    1.519304    1.712748
     70          1           0       -2.262579    0.193519    3.777413
     71          1           0       -2.989656    2.089791    3.992618
     72          1           0       -3.982405    0.468682    4.085065
     73          1           0       -2.327980   -1.544626   -0.396440
     74          1           0       -2.429929    0.460914   -0.279334
     75          1           0       -0.353801    0.109480    1.493973
     76          1           0       -0.571516   -1.946561    1.269466
     77          1           0       -4.458618    5.562314    0.806575
     78          1           0       -5.703675    6.823873    1.402719
     79          1           0       -4.936968    5.368254    2.496737
     80          1           0       -7.796340    7.067192    1.126776
     81          1           0       -9.907108    5.940075   -1.036871
     82          1           0       -9.392488    7.764582   -0.407598
     83          1           0      -12.615194    3.335885   -0.349271
     84          1           0      -11.899388    3.895260   -1.945591
     85          1           0      -13.087357    2.468322   -1.760108
     86          1           0      -12.897822   -1.207880   -1.402835
     87          1           0      -13.591194    0.282617   -1.656067
     88          1           0      -12.389344    0.418806   -3.846583
     89          1           0      -11.545224   -0.944107   -3.519124
     90          1           0      -13.229353   -1.227249   -3.778799
     91          1           0       -9.686117   -4.779429   -0.506956
     92          1           0       -9.155194   -4.555737   -2.176495
     93          1           0       -8.241018   -5.726217   -1.087708
     94          1           0       -3.687254   -3.530072   -0.388691
     95          1           0       -1.770505   -6.150321    2.285564
     96          1           0       -1.576272   -4.867844    3.267593
     97          1           0       -3.061721   -5.683811    3.605106
     98          1           0        2.464949   -1.859423   -1.486838
     99          1           0        2.296213   -0.145628   -1.794612
    100          1           0        4.065653   -1.370977    0.340992
    101          1           0        5.434820    1.821806   -2.206023
    102          1           0        5.384554    0.288755   -3.205747
    103          1           0        3.882940    1.064848   -2.854791
    104          1           0        6.502579    1.254397   -0.271723
    105          1           0        6.289043   -0.188144    0.751599
    106          1           0        7.227726   -1.596908   -1.068230
    107          1           0        7.646301   -0.153565   -2.013950
    108          1           0        9.087508    0.707346   -0.335075
    109          1           0        8.683410   -0.714397    0.920076
    110          1           0       10.218075   -0.186973   -1.788684
    111          1           0        9.112134   -2.685695   -1.754432
    112          1           0       10.921129   -2.760110   -1.768723
    113          1           0        9.819356   -2.739769   -0.291787
    114          1           0       11.171595    0.619322    0.283692
    115          1           0       11.271538   -0.904613    0.841517
    116          1           0       12.779730   -1.510050   -0.932472
    117          1           0       12.794518    0.065789   -1.480047
    118          1           0       13.645952    0.978495    0.496965
    119          1           0       13.815955   -0.599763    1.100272
    120          1           0       15.074709    0.362608   -1.246489
    121          1           0       15.160932   -2.032564   -1.544233
    122          1           0       16.740923   -1.580270   -1.166612
    123          1           0       15.800188   -2.061735    0.205246
    124          1           0       15.906181    1.497596    0.880413
    125          1           0       16.538894    0.066496    1.569191
    126          1           0       18.224430   -0.266166   -0.348639
    127          1           0       17.264462    1.173354   -1.061381
    128          1           0       18.395398    2.611634    1.048403
    129          1           0       18.879585    0.777114    1.687795
    130          1           0       20.325613    0.607069   -0.266969
    131          1           0       19.623685    3.552798   -1.235881
    132          1           0       21.030570    2.972414   -1.725598
    133          1           0       19.421721    2.099348   -2.007260
    134          1           0       21.288433    1.770956    1.916352
    135          1           0       21.964162    2.421981    0.591423
    136          1           0       20.931677    3.235361    1.404280
    137          1           0       -7.053621    1.828012    0.111685
    138          1           0       -7.731089   -0.207410   -0.050260
 ---------------------------------------------------------------------

 SCF Done:  E(RB3LYP) =  -2733.03998972     A.U. after   18 cycles

 Excitation energies and oscillator strengths:

 Excited State   1:      Singlet-A      2.0095 eV  616.98 nm  f=0.1555  <S**2>=0.000
     235 -> 237       -0.28596
     235 -> 238        0.26160
     236 -> 237        0.56461
     236 -> 238        0.16662
 This state for optimization and/or second-order correction.
 Total Energy, E(TD-HF/TD-DFT) =  -2732.96614094
 Copying the excited state density for this state as the 1-particle RhoCI density.

 The electronic state is 1-A.
 Alpha  occ. eigenvalues --  -19.17516 -19.16012 -19.13180 -19.12624 -19.11893
 Alpha  occ. eigenvalues --  -14.36646 -14.36592 -14.32243 -14.31491 -10.31751
 Alpha  occ. eigenvalues --  -10.31642 -10.28974 -10.24197 -10.24063 -10.23876
 Alpha  occ. eigenvalues --  -10.23773 -10.23452 -10.23438 -10.23227 -10.23039
 Alpha  occ. eigenvalues --  -10.22879 -10.22811 -10.22260 -10.21398 -10.21324
 Alpha  occ. eigenvalues --  -10.21285 -10.21194 -10.21045 -10.20931 -10.20878
 Alpha  occ. eigenvalues --  -10.20758 -10.20749 -10.20646 -10.20434 -10.20421
 Alpha  occ. eigenvalues --  -10.20317 -10.20228 -10.20209 -10.20159 -10.20103
 Alpha  occ. eigenvalues --  -10.20091 -10.20081 -10.20044 -10.19947 -10.19927
 Alpha  occ. eigenvalues --  -10.19348 -10.19250 -10.19195 -10.19155 -10.19069
 Alpha  occ. eigenvalues --  -10.18900 -10.18681 -10.18583 -10.18474 -10.18150
 Alpha  occ. eigenvalues --  -10.18131 -10.17832 -10.17815 -10.17807 -10.17174
 Alpha  occ. eigenvalues --  -10.16417 -10.16389 -10.16262 -10.15984  -1.10130
 Alpha  occ. eigenvalues --   -1.09649  -1.03067  -1.00894  -0.99922  -0.98724
 Alpha  occ. eigenvalues --   -0.98184  -0.96787  -0.91787  -0.84834  -0.82501
 Alpha  occ. eigenvalues --   -0.82416  -0.81954  -0.81762  -0.81088  -0.80741
 Alpha  occ. eigenvalues --   -0.80690  -0.79932  -0.79750  -0.78481  -0.77341
 Alpha  occ. eigenvalues --   -0.77062  -0.76596  -0.75967  -0.75372  -0.74857
 Alpha  occ. eigenvalues --   -0.73611  -0.73154  -0.72541  -0.71780  -0.71145
 Alpha  occ. eigenvalues --   -0.69807  -0.69378  -0.69294  -0.68960  -0.68250
 Alpha  occ. eigenvalues --   -0.67964  -0.67401  -0.66604  -0.66419  -0.66062
 Alpha  occ. eigenvalues --   -0.64353  -0.62399  -0.62308  -0.62205  -0.61544
 Alpha  occ. eigenvalues --   -0.60437  -0.59428  -0.58159  -0.57814  -0.57712
 Alpha  occ. eigenvalues --   -0.57272  -0.56859  -0.56306  -0.55454  -0.55181
 Alpha  occ. eigenvalues --   -0.55127  -0.54822  -0.54350  -0.54041  -0.53490
 Alpha  occ. eigenvalues --   -0.53051  -0.52151  -0.51738  -0.51035  -0.50869
 Alpha  occ. eigenvalues --   -0.50195  -0.50079  -0.49109  -0.48660  -0.48580
 Alpha  occ. eigenvalues --   -0.48187  -0.47774  -0.47607  -0.47369  -0.47273
 Alpha  occ. eigenvalues --   -0.46765  -0.46562  -0.46310  -0.45786  -0.45584
 Alpha  occ. eigenvalues --   -0.45548  -0.45356  -0.45065  -0.44946  -0.44737
 Alpha  occ. eigenvalues --   -0.44558  -0.44177  -0.43975  -0.43832  -0.43704
 Alpha  occ. eigenvalues --   -0.43488  -0.43347  -0.43129  -0.43069  -0.42868
 Alpha  occ. eigenvalues --   -0.42548  -0.42341  -0.42205  -0.41991  -0.41573
 Alpha  occ. eigenvalues --   -0.41537  -0.41277  -0.40973  -0.40591  -0.40559
 Alpha  occ. eigenvalues --   -0.40263  -0.40114  -0.39834  -0.39436  -0.39351
 Alpha  occ. eigenvalues --   -0.39092  -0.38993  -0.38746  -0.38622  -0.38392
 Alpha  occ. eigenvalues --   -0.38313  -0.38173  -0.38017  -0.37809  -0.37569
 Alpha  occ. eigenvalues --   -0.37297  -0.37247  -0.37189  -0.37009  -0.36910
 Alpha  occ. eigenvalues --   -0.36878  -0.36740  -0.36274  -0.36057  -0.35717
 Alpha  occ. eigenvalues --   -0.35444  -0.35259  -0.34909  -0.34590  -0.34488
 Alpha  occ. eigenvalues --   -0.34397  -0.34212  -0.33975  -0.33885  -0.33664
 Alpha  occ. eigenvalues --   -0.33510  -0.33391  -0.33147  -0.32678  -0.32638
 Alpha  occ. eigenvalues --   -0.32148  -0.32056  -0.32017  -0.31576  -0.31537
 Alpha  occ. eigenvalues --   -0.31212  -0.30980  -0.30786  -0.30152  -0.29763
 Alpha  occ. eigenvalues --   -0.29548  -0.29122  -0.29023  -0.28073  -0.27843
 Alpha  occ. eigenvalues --   -0.27665  -0.27389  -0.27093  -0.26186  -0.26158
 Alpha  occ. eigenvalues --   -0.25721  -0.25537  -0.24676  -0.23329  -0.19838
 Alpha  occ. eigenvalues --   -0.19344
 Alpha virt. eigenvalues --   -0.10988  -0.07894  -0.04709  -0.01679  -0.00612
 Alpha virt. eigenvalues --   -0.00330   0.00295   0.00387   0.01970   0.02405
 Alpha virt. eigenvalues --    0.03406   0.03791   0.04041   0.04205   0.04553

 Mulliken charges:
               1
     1  C   -0.022245
     2  C   -0.098105
     3  C   -0.065975
     4  C   -0.065718
     5  N   -0.255145
     6  C   -0.059920
     7  C   -0.031866
     8  C   -0.016977
     9  C    0.071849
    10  C    0.004273
    11  C    0.070156
    12  C   -0.122434
    13  C    0.202659
    14  O   -0.221688
    15  O   -0.337808
    16  N   -0.033229
    17  C    0.061153
    18  C   -0.182237
    19  C    0.110576
    20  C    0.020042
    21  C    0.112878
    22  C   -0.059388
    23  C   -0.132491
    24  N   -0.179300
    25  C    0.061693
    26  C   -0.123522
    27  C   -0.099058
    28  C    0.018046
    29  C    0.089294
    30  C    0.064446
    31  C    0.042201
    32  N   -0.079482
    33  C    0.071299
    34  C   -0.124616
    35  C   -0.055868
    36  C    0.165409
    37  C    0.061190
    38  C    0.089323
    39  O   -0.160572
    40  C   -0.085121
    41  C    0.204923
    42  O   -0.236227
    43  O   -0.268200
    44  C    0.169756
    45  C    0.351271
    46  C   -0.070001
    47  C   -0.077263
    48  C   -0.016288
    49  C    0.158170
    50  C   -0.023212
    51  C    0.013863
    52  C   -0.090559
    53  C    0.052508
    54  C    0.110891
    55  C    0.090319
    56  C    0.075654
    57  C   -0.002377
    58  C    0.042494
    59  C    0.038612
    60  C    0.016376
    61  C   -0.049752
    62  C   -0.076986
    63  C    0.058815
    64  C    0.133743
    65  H    0.014544
    66  H   -0.001772
    67  H   -0.010171
    68  H    0.024542
    69  H   -0.015411
    70  H    0.024798
    71  H    0.029367
    72  H    0.032882
    73  H    0.026240
    74  H    0.040953
    75  H    0.060260
    76  H    0.067509
    77  H    0.033673
    78  H    0.015532
    79  H    0.042355
    80  H    0.019224
    81  H    0.047137
    82  H    0.034881
    83  H    0.017783
    84  H    0.046846
    85  H    0.013808
    86  H   -0.005834
    87  H   -0.001610
    88  H   -0.006930
    89  H   -0.011413
    90  H    0.020028
    91  H    0.025807
    92  H    0.018552
    93  H    0.063728
    94  H    0.088970
    95  H    0.018170
    96  H    0.001045
    97  H    0.038272
    98  H   -0.019145
    99  H   -0.012656
   100  H   -0.030377
   101  H    0.022548
   102  H    0.040313
   103  H    0.030639
   104  H   -0.025395
   105  H   -0.002411
   106  H    0.006100
   107  H   -0.005653
   108  H   -0.009301
   109  H    0.023208
   110  H   -0.016523
   111  H    0.000375
   112  H    0.031845
   113  H   -0.020804
   114  H   -0.031126
   115  H   -0.078852
   116  H   -0.043516
   117  H   -0.038598
   118  H   -0.024082
   119  H   -0.044652
   120  H   -0.069356
   121  H    0.006688
   122  H   -0.004670
   123  H    0.001711
   124  H   -0.032682
   125  H   -0.006298
   126  H    0.023053
   127  H   -0.001308
   128  H    0.006686
   129  H    0.019789
   130  H   -0.003072
   131  H   -0.007747
   132  H   -0.005260
   133  H   -0.017836
   134  H   -0.021857
   135  H   -0.030626
   136  H   -0.029655
   137  H    0.103611
   138  H    0.192873
 Sum of Mulliken charges =  -0.00000

 Dipole moment (field-independent basis, Debye):
    X=              1.4206    Y=              4.2677    Z=             -0.3700  Tot=              4.5131
 Quadrupole moment (field-independent basis, Debye-Ang):
   XX=           -346.3966   YY=           -385.2435   ZZ=           -397.1274
   XY=            -15.6997   XZ=             14.2259   YZ=              1.8258

 Normal termination of Gaussian 16 at Wed Aug 28 00:45:51 2019.
