 Gaussian 16, Revision A.03,
 Gaussian 16:  ES64L-G16RevA.03 25-Dec-2016

 --------------------------
 # td=(NStates=1) B3LYP/SVP
 --------------------------

 --
 TD
 --
 Symbolic Z-matrix:
 Charge =  0 Multiplicity = 1

                         Standard orientation:
 ---------------------------------------------------------------------
 Center     Atomic      Atomic             Coordinates (Angstroms)
 Number     Number       Type             X           Y           Z
 ---------------------------------------------------------------------
      1          6           0       -5.154820   -1.913632    0.558892
      2          6           0       -4.995107    2.722474    1.511869
      3          6           0       -9.475907    3.205211   -0.309694
      4          6           0       -9.866483   -1.551982   -0.908246
      5          7           0       -5.236266    0.378625    0.899362
      6          6           0       -4.517480   -0.748568    0.873523
      7          6           0       -3.104821   -0.516876    1.407915
      8          6           0       -3.153946    1.023576    1.964127
      9          6           0       -4.456457    1.411207    1.370477
     10          6           0       -3.172829    1.008558    3.508015
     11          6           0       -2.117415   -0.623735    0.204759
     12          6           0       -0.667984   -0.781317    0.555487
     13          6           0        0.354744   -0.963429   -0.534786
     14          8           0       -0.023630   -1.331382   -1.732595
     15          8           0        1.534972   -0.756268   -0.146470
     16          7           0       -7.116824    2.801207    0.454404
     17          6           0       -6.078733    3.409221    0.995462
     18          6           0       -6.261534    4.774702    0.964268
     19          6           0       -7.533458    4.948239    0.434939
     20          6           0       -8.087930    3.638762    0.113931
     21          6           0       -5.403597    5.864523    1.615027
     22          6           0       -8.297178    6.231228    0.180598
     23          6           0       -9.196257    6.509355   -0.821941
     24          7           0       -9.230631    0.767603   -0.363274
     25          6           0       -9.899975    1.920190   -0.480006
     26          6           0      -11.282134    1.790086   -0.996690
     27          6           0      -11.402828    0.454815   -1.284515
     28          6           0      -10.148680   -0.153334   -0.781013
     29          6           0      -12.191659    2.817229   -1.237683
     30          6           0      -12.590556   -0.307486   -1.678527
     31          6           0      -12.596609   -0.575071   -3.204193
     32          7           0       -7.436946   -1.250525   -0.225316
     33          6           0       -8.556039   -2.055547   -0.628496
     34          6           0       -8.044098   -3.403318   -0.601340
     35          6           0       -6.805770   -3.361556   -0.225538
     36          6           0       -6.495274   -2.104794    0.168408
     37          6           0       -8.914019   -4.593195   -1.057419
     38          6           0       -5.634237   -4.218647   -0.042284
     39          8           0       -5.500338   -5.465040   -0.102776
     40          6           0       -4.486682   -3.307451    0.448918
     41          6           0       -3.782641   -3.804729    1.688557
     42          8           0       -4.145089   -3.369201    2.804674
     43          8           0       -2.889841   -4.761681    1.349117
     44          6           0       -2.181974   -5.399977    2.501672
     45          6           0        2.588017   -0.888861   -1.151001
     46          6           0        3.880424   -0.617678   -0.492131
     47          6           0        4.911274    0.075703   -0.995784
     48          6           0        4.996996    0.533033   -2.395925
     49          6           0        6.241942    0.218445   -0.281373
     50          6           0        7.446251   -0.332143   -0.927356
     51          6           0        8.767350   -0.217615   -0.066599
     52          6           0       10.079819   -0.689595   -0.658137
     53          6           0        9.996488   -2.197690   -0.979067
     54          6           0       11.356386   -0.179273    0.157481
     55          6           0       12.699291   -0.488764   -0.548149
     56          6           0       13.880774    0.038451    0.241355
     57          6           0       15.257308   -0.103517   -0.303902
     58          6           0       15.647854   -1.632852   -0.557750
     59          6           0       16.387107    0.555584    0.368333
     60          6           0       17.757882    0.703595   -0.226000
     61          6           0       18.623040    1.654657    0.541449
     62          6           0       20.093521    1.606091    0.086434
     63          6           0       20.271961    2.113070   -1.493028
     64          6           0       20.986103    2.378550    1.097494
     65          1           0       -4.420771    3.514682    1.941013
     66          1           0       -9.958392    3.998395   -0.332251
     67          1           0      -10.491080   -2.387044   -1.090097
     68          1           0       -2.833107   -1.473328    2.189240
     69          1           0       -2.238571    1.656479    1.478027
     70          1           0       -2.306311    0.612408    3.713408
     71          1           0       -3.083300    1.987894    3.794967
     72          1           0       -4.075307    0.430360    4.050814
     73          1           0       -2.553688   -1.438812   -0.281605
     74          1           0       -2.106209    0.430433   -0.242306
     75          1           0       -0.278335   -0.035449    1.185009
     76          1           0       -0.460201   -1.606854    1.158178
     77          1           0       -4.289690    5.976534    1.294713
     78          1           0       -5.852416    6.881934    1.710129
     79          1           0       -5.438533    5.503046    2.804901
     80          1           0       -7.912423    7.135487    0.582272
     81          1           0       -9.106497    5.712836   -1.671545
     82          1           0       -9.601443    7.566844   -0.899813
     83          1           0      -12.830868    3.275483   -0.227758
     84          1           0      -11.783269    3.632355   -1.760836
     85          1           0      -13.077059    2.254702   -1.607175
     86          1           0      -12.671575   -1.288877   -1.209134
     87          1           0      -13.587746    0.166655   -1.403249
     88          1           0      -12.415058    0.286473   -3.818568
     89          1           0      -11.784066   -1.030445   -3.489385
     90          1           0      -13.404934   -0.865623   -3.480757
     91          1           0       -9.669829   -4.693161   -0.381770
     92          1           0       -9.242784   -4.506104   -1.982885
     93          1           0       -8.264452   -5.378057   -0.765840
     94          1           0       -3.516131   -3.170418   -0.281804
     95          1           0       -1.180441   -6.071213    2.242660
     96          1           0       -1.780144   -4.687374    3.413599
     97          1           0       -3.000730   -6.329881    2.856608
     98          1           0        2.570359   -2.071826   -1.302036
     99          1           0        2.316315   -0.340421   -2.218673
    100          1           0        3.802344   -1.022150    0.520454
    101          1           0        5.588008    1.407714   -2.505993
    102          1           0        5.432338   -0.091288   -3.289271
    103          1           0        3.775801    0.996929   -2.652930
    104          1           0        6.367412    1.308978   -0.015149
    105          1           0        6.125415   -0.424141    0.762135
    106          1           0        7.297018   -1.267344   -1.031722
    107          1           0        7.578690    0.317368   -1.911672
    108          1           0        8.790870    0.724531    0.417611
    109          1           0        8.746497   -0.895312    0.948482
    110          1           0       10.142810   -0.047743   -1.544766
    111          1           0        8.863503   -2.350539   -1.432738
    112          1           0       10.834179   -2.610135   -1.574635
    113          1           0        9.980371   -2.788768   -0.066129
    114          1           0       11.386025    0.840064    0.401791
    115          1           0       11.334449   -0.666975    1.074869
    116          1           0       12.794729   -1.496436   -0.788186
    117          1           0       12.640188   -0.022944   -1.617111
    118          1           0       13.732550    1.179304    0.400414
    119          1           0       13.903797   -0.351334    1.346547
    120          1           0       15.010851    0.244249   -1.373866
    121          1           0       14.993629   -1.992376   -1.178874
    122          1           0       16.545457   -1.652062   -0.982938
    123          1           0       15.799238   -2.229983    0.268440
    124          1           0       16.139045    1.602204    0.569505
    125          1           0       16.502618    0.166879    1.197491
    126          1           0       18.272417   -0.319199   -0.176179
    127          1           0       17.740704    0.764189   -1.400892
    128          1           0       18.254182    2.713727    0.359223
    129          1           0       18.709100    1.370196    1.634913
    130          1           0       20.414749    0.626027    0.242228
    131          1           0       20.034344    3.177619   -1.719070
    132          1           0       21.395264    1.822782   -1.474692
    133          1           0       19.619082    1.446466   -2.067985
    134          1           0       20.846179    2.027928    2.334492
    135          1           0       22.039673    2.206314    0.696903
    136          1           0       20.842636    3.424531    0.685661
    137          1           0       -7.137996    1.799526    0.281006
    138          1           0       -7.489918   -0.240259   -0.182147
 ---------------------------------------------------------------------

 SCF Done:  E(RB3LYP) =  -2732.88426802     A.U. after   17 cycles

 Excitation energies and oscillator strengths:

 Excited State   1:      Singlet-A      2.0331 eV  609.81 nm  f=0.1737  <S**2>=0.000
     235 -> 237       -0.16233
     235 -> 238        0.26363
     236 -> 237        0.62170
     236 -> 238        0.11695
 This state for optimization and/or second-order correction.
 Total Energy, E(TD-HF/TD-DFT) =  -2732.80955123
 Copying the excited state density for this state as the 1-particle RhoCI density.

 The electronic state is 1-A.
 Alpha  occ. eigenvalues --  -19.20129 -19.20125 -19.12744 -19.12236 -19.10189
 Alpha  occ. eigenvalues --  -14.36499 -14.36153 -14.32021 -14.30144 -10.32424
 Alpha  occ. eigenvalues --  -10.31151 -10.29158 -10.28224 -10.27366 -10.23316
 Alpha  occ. eigenvalues --  -10.22977 -10.22709 -10.22395 -10.22279 -10.22098
 Alpha  occ. eigenvalues --  -10.21965 -10.21959 -10.21922 -10.21780 -10.21538
 Alpha  occ. eigenvalues --  -10.21299 -10.21008 -10.20706 -10.20491 -10.20439
 Alpha  occ. eigenvalues --  -10.20387 -10.20385 -10.20075 -10.20065 -10.20054
 Alpha  occ. eigenvalues --  -10.20039 -10.19826 -10.19728 -10.19602 -10.19502
 Alpha  occ. eigenvalues --  -10.19466 -10.19248 -10.19235 -10.19156 -10.19077
 Alpha  occ. eigenvalues --  -10.18933 -10.18915 -10.18915 -10.18797 -10.18672
 Alpha  occ. eigenvalues --  -10.18652 -10.18592 -10.18536 -10.18495 -10.18411
 Alpha  occ. eigenvalues --  -10.17986 -10.17898 -10.17860 -10.17639 -10.17636
 Alpha  occ. eigenvalues --  -10.17160 -10.15630 -10.14640 -10.14550  -1.12501
 Alpha  occ. eigenvalues --   -1.08603  -1.00652  -1.00579  -0.99694  -0.98573
 Alpha  occ. eigenvalues --   -0.95383  -0.94159  -0.93947  -0.84812  -0.83862
 Alpha  occ. eigenvalues --   -0.82763  -0.81766  -0.81491  -0.81342  -0.80868
 Alpha  occ. eigenvalues --   -0.80759  -0.80389  -0.79796  -0.79206  -0.78521
 Alpha  occ. eigenvalues --   -0.77466  -0.76440  -0.76082  -0.75348  -0.74829
 Alpha  occ. eigenvalues --   -0.74252  -0.73423  -0.72885  -0.72599  -0.71279
 Alpha  occ. eigenvalues --   -0.70146  -0.69527  -0.69312  -0.68704  -0.67454
 Alpha  occ. eigenvalues --   -0.67294  -0.67200  -0.66634  -0.66390  -0.66128
 Alpha  occ. eigenvalues --   -0.64636  -0.63337  -0.62989  -0.62153  -0.61876
 Alpha  occ. eigenvalues --   -0.61211  -0.60006  -0.59067  -0.58336  -0.57946
 Alpha  occ. eigenvalues --   -0.57120  -0.56395  -0.56204  -0.56180  -0.55305
 Alpha  occ. eigenvalues --   -0.55225  -0.54824  -0.54547  -0.54077  -0.53643
 Alpha  occ. eigenvalues --   -0.52919  -0.52025  -0.51883  -0.50955  -0.50403
 Alpha  occ. eigenvalues --   -0.49885  -0.49314  -0.49067  -0.48771  -0.48217
 Alpha  occ. eigenvalues --   -0.48051  -0.47910  -0.47598  -0.47507  -0.47262
 Alpha  occ. eigenvalues --   -0.47142  -0.46883  -0.46665  -0.46550  -0.46182
 Alpha  occ. eigenvalues --   -0.45922  -0.45732  -0.45225  -0.45022  -0.44837
 Alpha  occ. eigenvalues --   -0.44347  -0.44301  -0.44012  -0.43806  -0.43570
 Alpha  occ. eigenvalues --   -0.43385  -0.43335  -0.43116  -0.42966  -0.42748
 Alpha  occ. eigenvalues --   -0.42589  -0.42113  -0.41986  -0.41783  -0.41559
 Alpha  occ. eigenvalues --   -0.41255  -0.41020  -0.40880  -0.40699  -0.40505
 Alpha  occ. eigenvalues --   -0.40405  -0.40112  -0.40023  -0.39931  -0.39709
 Alpha  occ. eigenvalues --   -0.39575  -0.39169  -0.39032  -0.38865  -0.38637
 Alpha  occ. eigenvalues --   -0.38418  -0.38355  -0.38036  -0.37977  -0.37709
 Alpha  occ. eigenvalues --   -0.37471  -0.37369  -0.37237  -0.36917  -0.36772
 Alpha  occ. eigenvalues --   -0.36659  -0.36362  -0.36284  -0.36254  -0.36102
 Alpha  occ. eigenvalues --   -0.36029  -0.35799  -0.35439  -0.35306  -0.35253
 Alpha  occ. eigenvalues --   -0.34914  -0.34864  -0.34294  -0.33958  -0.33685
 Alpha  occ. eigenvalues --   -0.33668  -0.33342  -0.32929  -0.32583  -0.32454
 Alpha  occ. eigenvalues --   -0.31700  -0.31685  -0.31360  -0.30999  -0.30808
 Alpha  occ. eigenvalues --   -0.30625  -0.30458  -0.30100  -0.30046  -0.29778
 Alpha  occ. eigenvalues --   -0.29372  -0.29363  -0.29102  -0.27801  -0.27502
 Alpha  occ. eigenvalues --   -0.27346  -0.27161  -0.26753  -0.26161  -0.26003
 Alpha  occ. eigenvalues --   -0.25059  -0.24959  -0.23517  -0.22539  -0.19522
 Alpha  occ. eigenvalues --   -0.18487
 Alpha virt. eigenvalues --   -0.10151  -0.07151  -0.04548  -0.02643  -0.01515
 Alpha virt. eigenvalues --   -0.01200  -0.00182   0.00347   0.02053   0.02773
 Alpha virt. eigenvalues --    0.03264   0.03436   0.04198   0.04476   0.04674

 Mulliken charges:
               1
     1  C    0.048939
     2  C    0.000625
     3  C    0.009496
     4  C   -0.046542
     5  N   -0.182994
     6  C   -0.064086
     7  C   -0.167263
     8  C   -0.087796
     9  C    0.007798
    10  C    0.187298
    11  C    0.140292
    12  C    0.131366
    13  C    0.142895
    14  O   -0.344275
    15  O   -0.234008
    16  N    0.045458
    17  C   -0.011553
    18  C   -0.065615
    19  C    0.007229
    20  C   -0.064072
    21  C   -0.001866
    22  C   -0.031833
    23  C   -0.078067
    24  N   -0.219201
    25  C    0.202993
    26  C   -0.139451
    27  C   -0.067038
    28  C    0.111491
    29  C    0.076966
    30  C    0.014613
    31  C    0.216813
    32  N   -0.036588
    33  C    0.018538
    34  C   -0.257279
    35  C    0.047713
    36  C    0.068228
    37  C    0.273535
    38  C    0.124695
    39  O   -0.203887
    40  C   -0.087569
    41  C    0.225700
    42  O   -0.259292
    43  O   -0.285091
    44  C    0.041698
    45  C    0.176004
    46  C   -0.073143
    47  C   -0.072985
    48  C   -0.014052
    49  C   -0.009222
    50  C    0.131714
    51  C   -0.032073
    52  C   -0.029291
    53  C    0.010006
    54  C    0.085888
    55  C    0.039795
    56  C   -0.006783
    57  C   -0.072575
    58  C    0.176347
    59  C    0.204229
    60  C   -0.034929
    61  C    0.044474
    62  C   -0.129208
    63  C   -0.022738
    64  C   -0.013300
    65  H   -0.062713
    66  H   -0.160509
    67  H   -0.044089
    68  H    0.058156
    69  H    0.027943
    70  H   -0.042504
    71  H   -0.022482
    72  H    0.061792
    73  H   -0.017693
    74  H    0.016700
    75  H   -0.021508
    76  H   -0.019684
    77  H    0.053735
    78  H    0.029362
    79  H    0.046657
    80  H   -0.018502
    81  H    0.056465
    82  H    0.045545
    83  H    0.024294
    84  H    0.026629
    85  H    0.005896
    86  H   -0.001096
    87  H    0.006156
    88  H   -0.026016
    89  H   -0.042312
    90  H   -0.079505
    91  H   -0.016822
    92  H   -0.001371
    93  H    0.006963
    94  H    0.094279
    95  H    0.070090
    96  H    0.083326
    97  H    0.079398
    98  H    0.046830
    99  H    0.082421
   100  H   -0.002782
   101  H    0.003556
   102  H    0.063670
   103  H    0.030346
   104  H    0.016994
   105  H    0.006000
   106  H   -0.050697
   107  H    0.014375
   108  H   -0.028186
   109  H   -0.014527
   110  H   -0.019785
   111  H    0.027969
   112  H    0.027940
   113  H    0.001330
   114  H   -0.027431
   115  H   -0.033700
   116  H   -0.023087
   117  H   -0.006333
   118  H   -0.006601
   119  H   -0.009042
   120  H   -0.024369
   121  H   -0.050445
   122  H   -0.051777
   123  H   -0.026736
   124  H   -0.029715
   125  H   -0.095917
   126  H   -0.018172
   127  H    0.007890
   128  H    0.001727
   129  H   -0.002329
   130  H   -0.022368
   131  H    0.035159
   132  H    0.033080
   133  H    0.025608
   134  H    0.055258
   135  H    0.002409
   136  H    0.009057
   137  H    0.136915
   138  H    0.131713
 Sum of Mulliken charges =  -0.00000

 Dipole moment (field-independent basis, Debye):
    X=              4.5275    Y=              3.5155    Z=              1.1881  Tot=              5.8539
 Quadrupole moment (field-independent basis, Debye-Ang):
   XX=           -353.2390   YY=           -382.3535   ZZ=           -397.1664
   XY=            -23.6683   XZ=             10.4987   YZ=             -5.8617

 Normal termination of Gaussian 16 at Tue Aug 27 06:12:52 2019.
