 Gaussian 16, Revision A.03,
 Gaussian 16:  ES64L-G16RevA.03 25-Dec-2016

 --------------------------
 # td=(NStates=1) B3LYP/SVP
 --------------------------

 --
 TD
 --
 Symbolic Z-matrix:
 Charge =  0 Multiplicity = 1

                         Standard orientation:
 ---------------------------------------------------------------------
 Center     Atomic      Atomic             Coordinates (Angstroms)
 Number     Number       Type             X           Y           Z
 ---------------------------------------------------------------------
      1          6           0       -5.120587   -1.960102    0.518354
      2          6           0       -4.653663    2.814483    1.284925
      3          6           0       -9.274298    3.423943   -0.186522
      4          6           0       -9.786564   -1.414611   -0.955982
      5          7           0       -5.161651    0.462054    0.712896
      6          6           0       -4.554907   -0.770968    0.757141
      7          6           0       -3.077105   -0.625994    1.188096
      8          6           0       -3.060789    0.848211    1.839316
      9          6           0       -4.373616    1.433473    1.251087
     10          6           0       -3.186833    0.949930    3.380313
     11          6           0       -2.011183   -0.778109    0.121283
     12          6           0       -0.646062   -0.776122    0.618550
     13          6           0        0.354608   -1.126524   -0.421870
     14          8           0        0.093879   -1.664009   -1.479544
     15          8           0        1.582431   -0.942641   -0.057448
     16          7           0       -7.091691    2.824893    0.359958
     17          6           0       -5.915313    3.435490    0.988693
     18          6           0       -6.151384    4.774422    1.137811
     19          6           0       -7.380096    5.051079    0.440778
     20          6           0       -7.927537    3.768877    0.089490
     21          6           0       -5.120369    5.745200    1.736985
     22          6           0       -8.110591    6.386426    0.379623
     23          6           0       -8.896814    6.698878   -0.609833
     24          7           0       -9.185819    0.918611   -0.569519
     25          6           0       -9.728732    2.113769   -0.607524
     26          6           0      -11.181514    1.910650   -1.007283
     27          6           0      -11.413736    0.605016   -1.213935
     28          6           0      -10.104548   -0.025809   -0.926380
     29          6           0      -12.192667    3.050733   -1.100149
     30          6           0      -12.662664   -0.135978   -1.720702
     31          6           0      -12.665082   -0.428480   -3.163856
     32          7           0       -7.503242   -1.247843   -0.311467
     33          6           0       -8.559223   -1.993942   -0.621095
     34          6           0       -8.189769   -3.410537   -0.615448
     35          6           0       -6.932379   -3.365664   -0.201524
     36          6           0       -6.452220   -2.059498    0.029553
     37          6           0       -9.066746   -4.533418   -1.006967
     38          6           0       -5.801075   -4.278467    0.052909
     39          8           0       -5.671933   -5.507680   -0.022367
     40          6           0       -4.622594   -3.378083    0.483908
     41          6           0       -3.991063   -3.870646    1.855771
     42          8           0       -4.282145   -3.266645    2.945434
     43          8           0       -3.215846   -4.933210    1.648023
     44          6           0       -2.664367   -5.578238    2.707633
     45          6           0        2.675143   -1.167218   -1.055805
     46          6           0        4.020713   -0.783632   -0.482659
     47          6           0        4.937464   -0.055075   -1.051592
     48          6           0        4.835567    0.644988   -2.338118
     49          6           0        6.175632    0.272693   -0.378402
     50          6           0        7.504550   -0.458395   -1.082404
     51          6           0        8.764834   -0.318399   -0.194323
     52          6           0       10.077490   -0.846015   -0.805406
     53          6           0       10.105500   -2.349208   -1.086702
     54          6           0       11.300489   -0.395848    0.055353
     55          6           0       12.691118   -0.540267   -0.676134
     56          6           0       13.880488   -0.165786    0.236561
     57          6           0       15.249457   -0.218965   -0.514144
     58          6           0       15.862623   -1.594352   -0.915403
     59          6           0       16.278058    0.585196    0.412810
     60          6           0       17.682386    0.570721   -0.108088
     61          6           0       18.599003    1.624717    0.694171
     62          6           0       20.093725    1.826493    0.242341
     63          6           0       20.144492    2.329260   -1.208425
     64          6           0       20.767852    2.799213    1.205600
     65          1           0       -3.811965    3.513806    1.581895
     66          1           0      -10.127246    4.179408   -0.152568
     67          1           0      -10.328823   -2.357798   -1.319461
     68          1           0       -2.925531   -1.390629    1.947284
     69          1           0       -2.243631    1.555680    1.617878
     70          1           0       -2.174299    0.536273    3.889815
     71          1           0       -3.543925    1.987470    3.752450
     72          1           0       -3.916580    0.135595    3.735093
     73          1           0       -2.045046   -1.748926   -0.159536
     74          1           0       -2.296819   -0.155851   -0.800155
     75          1           0       -0.358354    0.148470    1.111340
     76          1           0       -0.446779   -1.437486    1.438757
     77          1           0       -4.256275    5.792064    0.963842
     78          1           0       -5.410701    6.982922    1.732192
     79          1           0       -4.911506    5.527738    2.739189
     80          1           0       -7.757294    6.953054    1.269229
     81          1           0       -9.125053    5.756349   -1.404310
     82          1           0       -9.297085    7.772403   -0.821055
     83          1           0      -12.069875    3.644808   -0.218264
     84          1           0      -11.832696    3.813095   -1.904632
     85          1           0      -13.178261    2.692525   -1.385954
     86          1           0      -12.935741   -1.155140   -1.165581
     87          1           0      -13.478063    0.546676   -1.455201
     88          1           0      -12.897242    0.659117   -3.684978
     89          1           0      -11.803631   -0.883502   -3.644506
     90          1           0      -13.606494   -1.133994   -3.478730
     91          1           0      -10.051197   -4.468093   -0.605071
     92          1           0       -9.253544   -4.514508   -2.100216
     93          1           0       -8.398117   -5.534910   -0.710745
     94          1           0       -3.809896   -3.289544   -0.354045
     95          1           0       -1.938884   -6.261007    2.282872
     96          1           0       -2.220684   -4.805351    3.415132
     97          1           0       -3.349134   -6.137427    3.175411
     98          1           0        2.669739   -2.097426   -1.218447
     99          1           0        2.311146   -0.466568   -2.039700
    100          1           0        4.178622   -1.465249    0.462997
    101          1           0        4.987786    1.957307   -2.259777
    102          1           0        5.376411    0.317852   -3.090241
    103          1           0        3.652165    0.785541   -2.680488
    104          1           0        6.306732    1.260877   -0.449912
    105          1           0        6.139797   -0.053600    0.723610
    106          1           0        7.341897   -1.480829   -1.455367
    107          1           0        7.778201   -0.143385   -2.068441
    108          1           0        8.896756    0.639857    0.163190
    109          1           0        8.693823   -0.941741    0.867254
    110          1           0       10.356847   -0.452704   -1.894227
    111          1           0        9.213635   -2.531735   -1.645983
    112          1           0       10.950424   -3.004507   -1.638842
    113          1           0       10.260173   -3.116211   -0.367452
    114          1           0       11.301803    0.773414    0.125078
    115          1           0       11.285055   -1.088265    1.059207
    116          1           0       12.860164   -1.467397   -1.077637
    117          1           0       12.536454    0.020743   -1.573584
    118          1           0       13.661958    0.773616    0.611660
    119          1           0       13.907863   -0.809852    1.080266
    120          1           0       14.886787    0.417140   -1.592286
    121          1           0       15.063358   -2.145239   -1.399842
    122          1           0       16.711014   -1.585715   -1.539198
    123          1           0       16.089734   -1.951786    0.035026
    124          1           0       15.856966    1.629301    0.645071
    125          1           0       16.182545   -0.033960    1.328455
    126          1           0       18.267503   -0.440094    0.025102
    127          1           0       17.702582    0.708021   -1.118326
    128          1           0       18.034394    2.577569    0.791874
    129          1           0       18.342377    1.420317    1.790326
    130          1           0       20.419727    0.735106    0.423265
    131          1           0       19.260952    3.306069   -1.206676
    132          1           0       21.321659    2.993723   -1.389269
    133          1           0       19.826105    1.642008   -2.028007
    134          1           0       20.947065    2.216174    2.056430
    135          1           0       21.912825    3.027771    0.949705
    136          1           0       20.176785    3.625515    1.387217
    137          1           0       -7.067552    1.803310    0.276487
    138          1           0       -7.406764   -0.025840   -0.686041
 ---------------------------------------------------------------------

 SCF Done:  E(RB3LYP) =  -2732.97085854     A.U. after   17 cycles

 Excitation energies and oscillator strengths:

 Excited State   1:      Singlet-A      1.9708 eV  629.10 nm  f=0.1853  <S**2>=0.000
     235 -> 238       -0.27726
     236 -> 237        0.63910
 This state for optimization and/or second-order correction.
 Total Energy, E(TD-HF/TD-DFT) =  -2732.89843258
 Copying the excited state density for this state as the 1-particle RhoCI density.

 The electronic state is 1-A.
 Alpha  occ. eigenvalues --  -19.19606 -19.17100 -19.13117 -19.12262 -19.10530
 Alpha  occ. eigenvalues --  -14.36738 -14.36631 -14.32131 -14.30391 -10.33233
 Alpha  occ. eigenvalues --  -10.30228 -10.27935 -10.25182 -10.24081 -10.23559
 Alpha  occ. eigenvalues --  -10.23405 -10.22763 -10.22648 -10.22330 -10.22289
 Alpha  occ. eigenvalues --  -10.22201 -10.22052 -10.21964 -10.21915 -10.21836
 Alpha  occ. eigenvalues --  -10.21273 -10.20906 -10.20721 -10.20673 -10.20659
 Alpha  occ. eigenvalues --  -10.20612 -10.20597 -10.20538 -10.20514 -10.20453
 Alpha  occ. eigenvalues --  -10.20415 -10.20214 -10.20213 -10.20184 -10.20062
 Alpha  occ. eigenvalues --  -10.20045 -10.19998 -10.19987 -10.19971 -10.19873
 Alpha  occ. eigenvalues --  -10.19869 -10.19736 -10.19692 -10.19646 -10.19460
 Alpha  occ. eigenvalues --  -10.19233 -10.19125 -10.18844 -10.18696 -10.18468
 Alpha  occ. eigenvalues --  -10.18308 -10.18289 -10.18161 -10.18141 -10.18137
 Alpha  occ. eigenvalues --  -10.17601 -10.17378 -10.17298 -10.16960  -1.11486
 Alpha  occ. eigenvalues --   -1.09854  -1.01453  -0.99179  -0.98959  -0.98609
 Alpha  occ. eigenvalues --   -0.98418  -0.94156  -0.92942  -0.85148  -0.84152
 Alpha  occ. eigenvalues --   -0.82113  -0.81768  -0.81448  -0.80651  -0.80517
 Alpha  occ. eigenvalues --   -0.79913  -0.79312  -0.79244  -0.78468  -0.77374
 Alpha  occ. eigenvalues --   -0.77057  -0.76135  -0.75983  -0.75195  -0.74459
 Alpha  occ. eigenvalues --   -0.73991  -0.73262  -0.72918  -0.71889  -0.70520
 Alpha  occ. eigenvalues --   -0.69991  -0.69438  -0.68740  -0.68504  -0.67966
 Alpha  occ. eigenvalues --   -0.67362  -0.66877  -0.66247  -0.65601  -0.65201
 Alpha  occ. eigenvalues --   -0.63610  -0.63056  -0.61869  -0.61367  -0.61248
 Alpha  occ. eigenvalues --   -0.60282  -0.59850  -0.58669  -0.58070  -0.57963
 Alpha  occ. eigenvalues --   -0.56880  -0.56235  -0.55898  -0.55691  -0.55095
 Alpha  occ. eigenvalues --   -0.54993  -0.54412  -0.53616  -0.53520  -0.53098
 Alpha  occ. eigenvalues --   -0.52065  -0.51948  -0.51610  -0.51262  -0.50795
 Alpha  occ. eigenvalues --   -0.50382  -0.49651  -0.48954  -0.48712  -0.48489
 Alpha  occ. eigenvalues --   -0.48239  -0.48137  -0.47961  -0.47305  -0.46886
 Alpha  occ. eigenvalues --   -0.46473  -0.46385  -0.46175  -0.45681  -0.45439
 Alpha  occ. eigenvalues --   -0.45286  -0.45006  -0.44911  -0.44611  -0.44375
 Alpha  occ. eigenvalues --   -0.44313  -0.44023  -0.44002  -0.43594  -0.43489
 Alpha  occ. eigenvalues --   -0.43406  -0.43108  -0.42951  -0.42820  -0.42631
 Alpha  occ. eigenvalues --   -0.42530  -0.42461  -0.42131  -0.41761  -0.41638
 Alpha  occ. eigenvalues --   -0.41340  -0.41083  -0.40663  -0.40494  -0.40309
 Alpha  occ. eigenvalues --   -0.40178  -0.39894  -0.39721  -0.39470  -0.39290
 Alpha  occ. eigenvalues --   -0.39215  -0.39109  -0.38716  -0.38614  -0.38482
 Alpha  occ. eigenvalues --   -0.38412  -0.38278  -0.38115  -0.37751  -0.37548
 Alpha  occ. eigenvalues --   -0.37474  -0.37077  -0.36784  -0.36739  -0.36547
 Alpha  occ. eigenvalues --   -0.36261  -0.36013  -0.35758  -0.35669  -0.35582
 Alpha  occ. eigenvalues --   -0.35357  -0.35325  -0.35069  -0.34623  -0.34461
 Alpha  occ. eigenvalues --   -0.34057  -0.33849  -0.33799  -0.33416  -0.33168
 Alpha  occ. eigenvalues --   -0.32584  -0.32485  -0.32418  -0.32362  -0.32254
 Alpha  occ. eigenvalues --   -0.31745  -0.31654  -0.31576  -0.31230  -0.31192
 Alpha  occ. eigenvalues --   -0.30702  -0.30629  -0.30574  -0.30301  -0.30007
 Alpha  occ. eigenvalues --   -0.29557  -0.29385  -0.28349  -0.28222  -0.27869
 Alpha  occ. eigenvalues --   -0.27050  -0.26748  -0.26480  -0.25943  -0.25648
 Alpha  occ. eigenvalues --   -0.25420  -0.24990  -0.24043  -0.23292  -0.19469
 Alpha  occ. eigenvalues --   -0.18649
 Alpha virt. eigenvalues --   -0.10424  -0.07423  -0.04403  -0.01633  -0.00982
 Alpha virt. eigenvalues --   -0.00730   0.00461   0.01365   0.02401   0.03411
 Alpha virt. eigenvalues --    0.03709   0.03961   0.04046   0.04184   0.04392

 Mulliken charges:
               1
     1  C    0.024676
     2  C   -0.094902
     3  C   -0.130485
     4  C   -0.054474
     5  N   -0.182365
     6  C   -0.089719
     7  C   -0.031485
     8  C   -0.056040
     9  C    0.008882
    10  C   -0.012967
    11  C    0.169415
    12  C    0.075062
    13  C    0.129660
    14  O   -0.262123
    15  O   -0.305505
    16  N   -0.065646
    17  C    0.111943
    18  C   -0.129129
    19  C   -0.068354
    20  C    0.116614
    21  C    0.031979
    22  C    0.028357
    23  C   -0.097469
    24  N   -0.203167
    25  C    0.046041
    26  C   -0.183857
    27  C   -0.064568
    28  C    0.079295
    29  C    0.111670
    30  C    0.072228
    31  C   -0.044935
    32  N   -0.109876
    33  C   -0.062808
    34  C   -0.139431
    35  C    0.019604
    36  C    0.049823
    37  C    0.068609
    38  C    0.090779
    39  O   -0.191482
    40  C   -0.031965
    41  C    0.235318
    42  O   -0.281279
    43  O   -0.238535
    44  C    0.223388
    45  C    0.314130
    46  C   -0.120798
    47  C   -0.081201
    48  C    0.007444
    49  C    0.153099
    50  C    0.009388
    51  C    0.080806
    52  C   -0.092694
    53  C    0.004316
    54  C   -0.032868
    55  C    0.058187
    56  C    0.132720
    57  C   -0.199767
    58  C    0.125787
    59  C   -0.005984
    60  C    0.086949
    61  C   -0.050420
    62  C   -0.055185
    63  C   -0.078198
    64  C    0.084408
    65  H    0.002355
    66  H    0.010022
    67  H   -0.020079
    68  H   -0.015277
    69  H   -0.002775
    70  H    0.021652
    71  H    0.036870
    72  H    0.037214
    73  H   -0.042768
    74  H    0.021608
    75  H   -0.002818
    76  H    0.007771
    77  H    0.058529
    78  H    0.032888
    79  H    0.031096
    80  H    0.007327
    81  H    0.069471
    82  H    0.050348
    83  H    0.021236
    84  H    0.018250
    85  H    0.012885
    86  H    0.016169
    87  H   -0.002004
    88  H    0.018450
    89  H    0.026595
    90  H    0.022374
    91  H    0.023333
    92  H    0.030896
    93  H    0.076855
    94  H    0.089415
    95  H    0.025222
    96  H    0.032575
    97  H   -0.002879
    98  H   -0.043685
    99  H    0.057478
   100  H    0.021068
   101  H    0.031952
   102  H    0.009281
   103  H    0.028591
   104  H   -0.026692
   105  H    0.012492
   106  H   -0.003243
   107  H   -0.019862
   108  H   -0.028037
   109  H    0.005737
   110  H    0.005153
   111  H   -0.006292
   112  H    0.006290
   113  H   -0.013587
   114  H    0.013968
   115  H    0.020265
   116  H   -0.047164
   117  H   -0.025666
   118  H   -0.035822
   119  H   -0.029303
   120  H   -0.007945
   121  H    0.002451
   122  H    0.011590
   123  H   -0.016654
   124  H    0.014957
   125  H   -0.002134
   126  H    0.003272
   127  H   -0.026997
   128  H   -0.027094
   129  H   -0.015232
   130  H    0.010587
   131  H    0.021392
   132  H    0.036236
   133  H    0.043933
   134  H   -0.013122
   135  H    0.015009
   136  H    0.002217
   137  H    0.143139
   138  H    0.257769
 Sum of Mulliken charges =  -0.00000

 Dipole moment (field-independent basis, Debye):
    X=              3.5566    Y=              2.9724    Z=              0.3505  Tot=              4.6484
 Quadrupole moment (field-independent basis, Debye-Ang):
   XX=           -376.2168   YY=           -378.7124   ZZ=           -398.1528
   XY=            -29.0704   XZ=             15.8837   YZ=              0.0298

 Normal termination of Gaussian 16 at Fri Aug 23 05:22:31 2019.
