 Gaussian 16, Revision A.03,
 Gaussian 16:  ES64L-G16RevA.03 25-Dec-2016

 --------------------------
 # td=(NStates=1) B3LYP/SVP
 --------------------------

 --
 TD
 --
 Symbolic Z-matrix:
 Charge =  0 Multiplicity = 1

                         Standard orientation:
 ---------------------------------------------------------------------
 Center     Atomic      Atomic             Coordinates (Angstroms)
 Number     Number       Type             X           Y           Z
 ---------------------------------------------------------------------
      1          6           0       -5.144683   -1.983357    0.353417
      2          6           0       -4.779287    2.805284    1.257304
      3          6           0       -9.277226    3.406314   -0.229678
      4          6           0       -9.934102   -1.412068   -0.829953
      5          7           0       -5.163099    0.493970    0.779616
      6          6           0       -4.563942   -0.727945    0.788475
      7          6           0       -3.032486   -0.557540    1.301856
      8          6           0       -3.084446    0.869418    1.848950
      9          6           0       -4.387699    1.442498    1.342602
     10          6           0       -2.960237    0.910761    3.416711
     11          6           0       -1.999466   -0.772003    0.137546
     12          6           0       -0.649491   -0.785665    0.629716
     13          6           0        0.298240   -1.119422   -0.469883
     14          8           0        0.110516   -1.570281   -1.571895
     15          8           0        1.632805   -0.874428   -0.176846
     16          7           0       -7.065423    2.823887    0.658136
     17          6           0       -5.946703    3.473492    1.037706
     18          6           0       -6.191805    4.825307    0.837445
     19          6           0       -7.415698    5.097357    0.410005
     20          6           0       -8.028010    3.752123    0.150066
     21          6           0       -5.139136    5.901787    1.296007
     22          6           0       -8.123080    6.310217    0.151437
     23          6           0       -9.195444    6.704955   -0.569803
     24          7           0       -9.235924    0.927706   -0.443125
     25          6           0       -9.875653    2.071486   -0.472329
     26          6           0      -11.227555    1.871999   -0.926555
     27          6           0      -11.520973    0.580199   -1.060715
     28          6           0      -10.197670   -0.020088   -0.717972
     29          6           0      -12.329874    2.978108   -0.901351
     30          6           0      -12.674699   -0.275489   -1.518460
     31          6           0      -12.752843   -0.512800   -3.038260
     32          7           0       -7.521858   -1.206283   -0.457912
     33          6           0       -8.629900   -2.034142   -0.690233
     34          6           0       -8.200906   -3.407286   -0.641673
     35          6           0       -6.870134   -3.425309   -0.330812
     36          6           0       -6.518172   -2.078376   -0.128229
     37          6           0       -9.180657   -4.492865   -0.974586
     38          6           0       -5.699811   -4.243876   -0.047822
     39          8           0       -5.729822   -5.549977   -0.119015
     40          6           0       -4.530117   -3.328293    0.385381
     41          6           0       -3.959810   -3.755167    1.679236
     42          8           0       -3.992562   -3.268412    2.753707
     43          8           0       -3.217722   -4.881995    1.376911
     44          6           0       -2.815155   -5.573503    2.644282
     45          6           0        2.668436   -1.135512   -1.033779
     46          6           0        4.055979   -0.696655   -0.521126
     47          6           0        5.029401   -0.031775   -1.083409
     48          6           0        4.906275    0.565218   -2.517078
     49          6           0        6.314085    0.215217   -0.376572
     50          6           0        7.568128   -0.548499   -0.903182
     51          6           0        8.753319   -0.276785   -0.128605
     52          6           0       10.166545   -0.914821   -0.730808
     53          6           0       10.145938   -2.454935   -0.761532
     54          6           0       11.354902   -0.308916    0.010778
     55          6           0       12.704170   -0.806932   -0.567543
     56          6           0       13.809479    0.131879    0.158431
     57          6           0       15.228895   -0.144592   -0.395975
     58          6           0       15.616567   -1.543198   -0.454725
     59          6           0       16.320925    0.684398    0.388006
     60          6           0       17.738592    0.818149   -0.318200
     61          6           0       18.640273    1.650319    0.655712
     62          6           0       20.236071    1.642972    0.117741
     63          6           0       20.237112    2.315778   -1.311574
     64          6           0       21.171755    2.481483    1.119017
     65          1           0       -3.994570    3.405622    1.433418
     66          1           0      -10.118875    4.346770   -0.355320
     67          1           0      -10.604101   -2.119362   -1.077075
     68          1           0       -2.649823   -1.338901    1.926638
     69          1           0       -2.361378    1.414459    1.361626
     70          1           0       -1.864122    0.594820    3.682536
     71          1           0       -3.168788    2.045895    3.866042
     72          1           0       -3.575095    0.085147    3.917238
     73          1           0       -2.106206   -1.898102   -0.332194
     74          1           0       -2.035749    0.146734   -0.448847
     75          1           0       -0.434101    0.321384    1.083229
     76          1           0       -0.219022   -1.439455    1.462393
     77          1           0       -4.561064    6.289063    0.403070
     78          1           0       -5.689026    6.787863    1.948066
     79          1           0       -4.363051    5.348419    2.155247
     80          1           0       -7.602020    7.047871    0.813377
     81          1           0       -9.624234    5.879336   -1.259446
     82          1           0       -9.627739    7.705381   -0.750347
     83          1           0      -12.617852    3.472417    0.153775
     84          1           0      -12.087983    3.859393   -1.693836
     85          1           0      -13.331699    2.599310   -1.277225
     86          1           0      -12.589656   -1.255374   -0.863413
     87          1           0      -13.612518    0.261652   -1.113709
     88          1           0      -12.930560    0.381775   -3.596481
     89          1           0      -11.667101   -0.919360   -3.382003
     90          1           0      -13.578391   -1.214787   -3.317774
     91          1           0       -9.972161   -4.572488   -0.347518
     92          1           0       -9.471587   -4.593193   -2.117433
     93          1           0       -8.640555   -5.617516   -0.830533
     94          1           0       -3.742739   -3.258526   -0.325095
     95          1           0       -2.397358   -6.690551    2.196894
     96          1           0       -2.084737   -4.917746    3.141131
     97          1           0       -3.881955   -5.782547    3.334640
     98          1           0        2.592940   -2.361527   -1.214028
     99          1           0        2.414949   -0.751619   -2.098450
    100          1           0        4.092687   -0.897511    0.671237
    101          1           0        4.922857    1.724942   -2.481120
    102          1           0        5.875858    0.285969   -3.302858
    103          1           0        3.852776    0.535388   -2.982668
    104          1           0        6.483084    1.378808   -0.383377
    105          1           0        5.888038   -0.227228    0.670098
    106          1           0        7.369281   -1.608198   -0.795391
    107          1           0        7.672397   -0.206846   -1.967534
    108          1           0        9.026062    0.835212   -0.067216
    109          1           0        8.661522   -0.707159    0.886682
    110          1           0       10.038633   -0.480672   -1.865295
    111          1           0        9.215242   -2.862564   -1.208729
    112          1           0       10.992938   -2.786781   -1.184979
    113          1           0        9.963533   -2.761643    0.246509
    114          1           0       11.199075    0.740641    0.002713
    115          1           0       11.383386   -0.543342    1.146265
    116          1           0       12.871583   -1.883126   -0.201074
    117          1           0       12.602675   -0.724169   -1.707308
    118          1           0       13.744123    1.183897    0.146848
    119          1           0       13.956032   -0.231112    1.256119
    120          1           0       15.360817    0.249488   -1.510476
    121          1           0       14.930537   -2.261805   -0.852597
    122          1           0       16.644660   -1.681316   -0.657070
    123          1           0       15.400096   -1.765952    0.550513
    124          1           0       15.872838    1.664652    0.671100
    125          1           0       16.402018   -0.157825    1.290983
    126          1           0       18.130827   -0.121261   -0.504683
    127          1           0       17.674760    1.384586   -1.153453
    128          1           0       18.278306    2.648643    0.625528
    129          1           0       18.782871    1.359496    1.692360
    130          1           0       20.613086    0.582234   -0.034470
    131          1           0       19.978520    3.472716   -1.107941
    132          1           0       21.194512    2.256498   -1.777679
    133          1           0       19.501907    1.718945   -2.143335
    134          1           0       21.074154    2.180634    2.194143
    135          1           0       22.253194    2.409784    0.958942
    136          1           0       20.760044    3.577296    1.148130
    137          1           0       -7.022350    1.808902    0.516070
    138          1           0       -7.735517   -0.300118    0.084082
 ---------------------------------------------------------------------

 SCF Done:  E(RB3LYP) =  -2733.03456602     A.U. after   18 cycles

 Excitation energies and oscillator strengths:

 Excited State   1:      Singlet-A      2.0579 eV  602.47 nm  f=0.1313  <S**2>=0.000
     235 -> 237       -0.20927
     235 -> 238        0.32183
     236 -> 237        0.57230
     236 -> 238        0.14385
 This state for optimization and/or second-order correction.
 Total Energy, E(TD-HF/TD-DFT) =  -2732.95893903
 Copying the excited state density for this state as the 1-particle RhoCI density.

 The electronic state is 1-A.
 Alpha  occ. eigenvalues --  -19.17187 -19.16335 -19.13987 -19.12831 -19.11891
 Alpha  occ. eigenvalues --  -14.36837 -14.36507 -14.32813 -14.30501 -10.32080
 Alpha  occ. eigenvalues --  -10.31946 -10.28551 -10.27317 -10.25875 -10.24198
 Alpha  occ. eigenvalues --  -10.24146 -10.23908 -10.23665 -10.23655 -10.23462
 Alpha  occ. eigenvalues --  -10.23147 -10.22605 -10.22063 -10.21960 -10.21923
 Alpha  occ. eigenvalues --  -10.21760 -10.21553 -10.21439 -10.21420 -10.21378
 Alpha  occ. eigenvalues --  -10.21279 -10.21279 -10.21260 -10.21248 -10.21143
 Alpha  occ. eigenvalues --  -10.20990 -10.20866 -10.20848 -10.20697 -10.20448
 Alpha  occ. eigenvalues --  -10.20357 -10.20261 -10.20239 -10.20036 -10.20021
 Alpha  occ. eigenvalues --  -10.19920 -10.19765 -10.19651 -10.19626 -10.19331
 Alpha  occ. eigenvalues --  -10.19233 -10.19038 -10.18923 -10.18755 -10.18659
 Alpha  occ. eigenvalues --  -10.18641 -10.18576 -10.18325 -10.18310 -10.18166
 Alpha  occ. eigenvalues --  -10.18153 -10.17410 -10.16800 -10.15754  -1.09733
 Alpha  occ. eigenvalues --   -1.09663  -1.01065  -1.00626  -0.98538  -0.98418
 Alpha  occ. eigenvalues --   -0.97174  -0.94979  -0.94372  -0.85893  -0.83547
 Alpha  occ. eigenvalues --   -0.83047  -0.82342  -0.81601  -0.81226  -0.80397
 Alpha  occ. eigenvalues --   -0.80056  -0.79668  -0.78608  -0.78391  -0.78025
 Alpha  occ. eigenvalues --   -0.76874  -0.76437  -0.75607  -0.74504  -0.73743
 Alpha  occ. eigenvalues --   -0.73309  -0.73004  -0.72342  -0.71728  -0.69747
 Alpha  occ. eigenvalues --   -0.69130  -0.68305  -0.67824  -0.67718  -0.66983
 Alpha  occ. eigenvalues --   -0.66425  -0.66041  -0.65993  -0.65689  -0.64971
 Alpha  occ. eigenvalues --   -0.64428  -0.63941  -0.62292  -0.62106  -0.61505
 Alpha  occ. eigenvalues --   -0.61090  -0.59110  -0.58697  -0.58465  -0.57864
 Alpha  occ. eigenvalues --   -0.56661  -0.55360  -0.55089  -0.54733  -0.54563
 Alpha  occ. eigenvalues --   -0.54440  -0.54298  -0.54147  -0.53295  -0.53107
 Alpha  occ. eigenvalues --   -0.52859  -0.52222  -0.52121  -0.51224  -0.50788
 Alpha  occ. eigenvalues --   -0.50088  -0.49832  -0.48970  -0.48618  -0.48547
 Alpha  occ. eigenvalues --   -0.48261  -0.47875  -0.47663  -0.47490  -0.47382
 Alpha  occ. eigenvalues --   -0.47322  -0.46522  -0.46017  -0.45893  -0.45630
 Alpha  occ. eigenvalues --   -0.45447  -0.45288  -0.44973  -0.44880  -0.44516
 Alpha  occ. eigenvalues --   -0.44379  -0.44082  -0.44038  -0.43727  -0.43511
 Alpha  occ. eigenvalues --   -0.43330  -0.43143  -0.43117  -0.42624  -0.42551
 Alpha  occ. eigenvalues --   -0.41947  -0.41902  -0.41703  -0.41232  -0.41176
 Alpha  occ. eigenvalues --   -0.41136  -0.40983  -0.40677  -0.40337  -0.40074
 Alpha  occ. eigenvalues --   -0.39777  -0.39600  -0.39475  -0.39248  -0.38888
 Alpha  occ. eigenvalues --   -0.38874  -0.38803  -0.38296  -0.38177  -0.37958
 Alpha  occ. eigenvalues --   -0.37755  -0.37692  -0.37425  -0.37335  -0.37233
 Alpha  occ. eigenvalues --   -0.37191  -0.36947  -0.36732  -0.36616  -0.36298
 Alpha  occ. eigenvalues --   -0.36155  -0.35965  -0.35762  -0.35654  -0.35538
 Alpha  occ. eigenvalues --   -0.35375  -0.35145  -0.35045  -0.34980  -0.34645
 Alpha  occ. eigenvalues --   -0.34617  -0.34201  -0.33949  -0.33880  -0.33772
 Alpha  occ. eigenvalues --   -0.33477  -0.33249  -0.33079  -0.32934  -0.32607
 Alpha  occ. eigenvalues --   -0.32323  -0.32258  -0.32172  -0.31940  -0.31856
 Alpha  occ. eigenvalues --   -0.31368  -0.31253  -0.30915  -0.30693  -0.29413
 Alpha  occ. eigenvalues --   -0.29136  -0.28825  -0.28303  -0.28262  -0.28127
 Alpha  occ. eigenvalues --   -0.27292  -0.27091  -0.27005  -0.26838  -0.26157
 Alpha  occ. eigenvalues --   -0.25151  -0.24826  -0.24785  -0.23835  -0.20245
 Alpha  occ. eigenvalues --   -0.19190
 Alpha virt. eigenvalues --   -0.10417  -0.08722  -0.05618  -0.02780  -0.01034
 Alpha virt. eigenvalues --   -0.00457   0.00263   0.00324   0.01564   0.02850
 Alpha virt. eigenvalues --    0.03370   0.03843   0.03933   0.04319   0.04726

 Mulliken charges:
               1
     1  C   -0.081645
     2  C    0.015751
     3  C   -0.142152
     4  C    0.000373
     5  N   -0.167158
     6  C   -0.003579
     7  C   -0.061531
     8  C    0.093747
     9  C   -0.045316
    10  C   -0.011174
    11  C    0.030686
    12  C   -0.052080
    13  C    0.179032
    14  O   -0.215731
    15  O   -0.313607
    16  N   -0.093308
    17  C    0.092266
    18  C   -0.082650
    19  C    0.068088
    20  C    0.099353
    21  C   -0.053393
    22  C   -0.025171
    23  C   -0.056255
    24  N   -0.192009
    25  C    0.028942
    26  C   -0.135620
    27  C   -0.050710
    28  C    0.069478
    29  C   -0.024886
    30  C    0.021976
    31  C    0.011480
    32  N   -0.057769
    33  C   -0.021154
    34  C   -0.130796
    35  C    0.083492
    36  C    0.039412
    37  C    0.029672
    38  C    0.057947
    39  O   -0.250431
    40  C    0.093768
    41  C    0.184752
    42  O   -0.179563
    43  O   -0.339361
    44  C    0.088825
    45  C    0.181295
    46  C   -0.098372
    47  C   -0.094229
    48  C   -0.030799
    49  C    0.008536
    50  C    0.090687
    51  C   -0.006215
    52  C   -0.153476
    53  C    0.112803
    54  C    0.053813
    55  C    0.001027
    56  C    0.032716
    57  C   -0.109675
    58  C    0.122800
    59  C   -0.060265
    60  C    0.130486
    61  C    0.029854
    62  C   -0.125526
    63  C   -0.041608
    64  C    0.000189
    65  H   -0.092850
    66  H    0.047786
    67  H   -0.076249
    68  H   -0.017305
    69  H   -0.036196
    70  H    0.024110
    71  H    0.044279
    72  H    0.054657
    73  H    0.063466
    74  H    0.011104
    75  H    0.053462
    76  H    0.051852
    77  H    0.057658
    78  H    0.062206
    79  H    0.053488
    80  H   -0.011595
    81  H    0.043037
    82  H    0.042962
    83  H    0.050447
    84  H    0.027529
    85  H    0.013041
    86  H    0.028404
    87  H    0.012883
    88  H    0.011516
    89  H    0.034648
    90  H    0.026021
    91  H    0.008747
    92  H    0.054904
    93  H    0.046123
    94  H    0.051738
    95  H    0.075879
    96  H    0.051936
    97  H    0.072892
    98  H    0.021854
    99  H    0.020055
   100  H    0.019974
   101  H    0.021924
   102  H    0.054314
   103  H    0.022653
   104  H    0.018294
   105  H    0.008050
   106  H   -0.004375
   107  H   -0.001791
   108  H   -0.004439
   109  H   -0.007211
   110  H    0.000430
   111  H    0.000182
   112  H   -0.006391
   113  H   -0.014305
   114  H   -0.020879
   115  H   -0.004524
   116  H    0.031736
   117  H    0.025876
   118  H   -0.009061
   119  H    0.004419
   120  H   -0.022411
   121  H   -0.004646
   122  H   -0.000771
   123  H   -0.049637
   124  H    0.002146
   125  H    0.002721
   126  H   -0.018679
   127  H   -0.017575
   128  H   -0.015597
   129  H    0.000102
   130  H    0.011107
   131  H    0.025387
   132  H    0.003710
   133  H    0.034206
   134  H    0.006609
   135  H    0.019072
   136  H    0.016962
   137  H    0.140766
   138  H    0.201132
 Sum of Mulliken charges =  -0.00000

 Dipole moment (field-independent basis, Debye):
    X=              0.6563    Y=              4.8919    Z=              1.8211  Tot=              5.2610
 Quadrupole moment (field-independent basis, Debye-Ang):
   XX=           -348.8472   YY=           -387.4263   ZZ=           -398.7352
   XY=            -26.5503   XZ=              6.2589   YZ=             -6.1669

 Normal termination of Gaussian 16 at Thu Aug 22 23:12:06 2019.
