 Gaussian 16, Revision A.03,
 Gaussian 16:  ES64L-G16RevA.03 25-Dec-2016

 --------------------------
 # td=(NStates=1) B3LYP/SVP
 --------------------------

 --
 TD
 --
 Symbolic Z-matrix:
 Charge =  0 Multiplicity = 1

                         Standard orientation:
 ---------------------------------------------------------------------
 Center     Atomic      Atomic             Coordinates (Angstroms)
 Number     Number       Type             X           Y           Z
 ---------------------------------------------------------------------
      1          6           0       -5.031301   -1.886668    0.494261
      2          6           0       -4.879618    2.745063    1.500511
      3          6           0       -9.392577    3.254608   -0.317501
      4          6           0       -9.868577   -1.510632   -0.931074
      5          7           0       -5.136651    0.466034    0.739394
      6          6           0       -4.397277   -0.717231    0.816450
      7          6           0       -3.076037   -0.460485    1.434586
      8          6           0       -3.109515    0.967987    1.930753
      9          6           0       -4.438132    1.341389    1.348154
     10          6           0       -2.973479    1.062411    3.461027
     11          6           0       -2.006446   -0.730654    0.219578
     12          6           0       -0.578669   -0.509288    0.571858
     13          6           0        0.337208   -0.845160   -0.612110
     14          8           0       -0.019910   -1.249350   -1.668641
     15          8           0        1.640674   -0.809235   -0.158890
     16          7           0       -7.120915    2.681554    0.522786
     17          6           0       -6.028004    3.376895    1.013518
     18          6           0       -6.320183    4.748268    0.938941
     19          6           0       -7.599894    4.961034    0.472926
     20          6           0       -8.113092    3.626092    0.188030
     21          6           0       -5.311511    5.666347    1.473446
     22          6           0       -8.281231    6.226180    0.325836
     23          6           0       -9.320365    6.569250   -0.407803
     24          7           0       -9.195725    0.842074   -0.409030
     25          6           0       -9.945357    2.044988   -0.484408
     26          6           0      -11.362553    1.762693   -0.979606
     27          6           0      -11.493082    0.473715   -1.279798
     28          6           0      -10.020937   -0.155061   -0.874736
     29          6           0      -12.358971    2.924366   -1.130327
     30          6           0      -12.553900   -0.361610   -1.874256
     31          6           0      -12.430977   -0.606390   -3.347169
     32          7           0       -7.473228   -1.321164   -0.184801
     33          6           0       -8.562187   -2.107214   -0.599892
     34          6           0       -8.051417   -3.503723   -0.584945
     35          6           0       -6.675060   -3.371030   -0.189050
     36          6           0       -6.414045   -2.083299    0.119536
     37          6           0       -8.805907   -4.720670   -1.018997
     38          6           0       -5.501555   -4.224341    0.139996
     39          8           0       -5.398333   -5.437513   -0.100174
     40          6           0       -4.352017   -3.224120    0.527403
     41          6           0       -3.855209   -3.796678    1.782839
     42          8           0       -4.271961   -3.456327    2.950642
     43          8           0       -2.945368   -4.734741    1.575094
     44          6           0       -2.441736   -5.371140    2.791499
     45          6           0        2.580062   -1.081362   -1.278227
     46          6           0        3.907109   -0.676115   -0.672602
     47          6           0        4.935773    0.103510   -1.218749
     48          6           0        4.740039    0.957579   -2.482027
     49          6           0        6.215766    0.250221   -0.447254
     50          6           0        7.401507   -0.337859   -1.208336
     51          6           0        8.719275   -0.201607   -0.271820
     52          6           0       10.119880   -0.784677   -0.809180
     53          6           0       10.031025   -2.231116   -0.986745
     54          6           0       11.271933   -0.257260   -0.059938
     55          6           0       12.651283   -0.601691   -0.619551
     56          6           0       13.803717   -0.040106    0.220520
     57          6           0       15.233407   -0.233920   -0.364415
     58          6           0       15.675177   -1.746033   -0.409495
     59          6           0       16.212335    0.572916    0.460811
     60          6           0       17.682127    0.634534   -0.110414
     61          6           0       18.620698    1.651470    0.644782
     62          6           0       20.093555    1.661982    0.150385
     63          6           0       20.253947    2.336026   -1.270043
     64          6           0       20.979784    2.425335    1.153696
     65          1           0       -4.230490    3.573312    1.977114
     66          1           0      -10.064111    4.066656   -0.549548
     67          1           0      -10.587824   -2.235708   -1.061732
     68          1           0       -2.971819   -1.287221    2.388483
     69          1           0       -2.205212    1.448581    1.450019
     70          1           0       -2.101099    0.396200    3.827172
     71          1           0       -2.707819    2.151657    3.732908
     72          1           0       -4.003504    0.721308    3.891627
     73          1           0       -2.079119   -1.731792   -0.063181
     74          1           0       -2.304095    0.074072   -0.493781
     75          1           0       -0.096369    0.425898    0.912846
     76          1           0       -0.285411   -1.194551    1.446519
     77          1           0       -4.413779    5.833131    0.963867
     78          1           0       -5.536969    6.733784    1.325460
     79          1           0       -5.226614    5.610714    2.629138
     80          1           0       -7.802012    7.008822    0.984547
     81          1           0       -9.765689    5.841219   -1.091531
     82          1           0       -9.811968    7.599518   -0.398384
     83          1           0      -12.408434    3.638018   -0.306211
     84          1           0      -12.072148    3.599248   -2.066116
     85          1           0      -13.279973    2.576378   -1.399544
     86          1           0      -12.506240   -1.353647   -1.398591
     87          1           0      -13.591028    0.143667   -1.563605
     88          1           0      -12.308975    0.330055   -3.880363
     89          1           0      -11.606935   -1.355327   -3.355054
     90          1           0      -13.319064   -1.099831   -3.824131
     91          1           0       -9.736762   -5.031587   -0.446798
     92          1           0       -9.163391   -4.645325   -2.046002
     93          1           0       -8.051490   -5.700867   -1.016378
     94          1           0       -3.769996   -3.425080   -0.321643
     95          1           0       -1.703360   -6.160617    2.374492
     96          1           0       -2.137771   -4.739149    3.361258
     97          1           0       -3.379447   -5.909600    3.419818
     98          1           0        2.199097   -2.083570   -1.491309
     99          1           0        2.224600   -0.627506   -2.292259
    100          1           0        4.081789   -1.037436    0.331599
    101          1           0        5.035512    1.937244   -2.199804
    102          1           0        5.463168    0.602547   -3.189868
    103          1           0        3.841519    0.724055   -2.754664
    104          1           0        6.429453    1.440865   -0.499428
    105          1           0        6.070414   -0.281493    0.491601
    106          1           0        7.331583   -1.422090   -1.430704
    107          1           0        7.656712    0.166529   -2.086514
    108          1           0        8.972610    0.893297   -0.162628
    109          1           0        8.453673   -0.738773    0.702195
    110          1           0       10.162900   -0.491163   -1.860636
    111          1           0        9.199684   -2.521048   -1.805256
    112          1           0       10.979339   -2.570306   -1.354569
    113          1           0        9.573686   -2.881996    0.009095
    114          1           0       11.197960    0.911237    0.187033
    115          1           0       11.173100   -0.767786    0.917995
    116          1           0       12.890262   -1.722325   -0.679667
    117          1           0       12.698342   -0.334344   -1.631485
    118          1           0       13.663775    1.076932    0.766570
    119          1           0       13.711474   -0.581260    1.141825
    120          1           0       15.133399   -0.051878   -1.241885
    121          1           0       14.928831   -2.376774   -0.862931
    122          1           0       16.620880   -1.961260   -1.071767
    123          1           0       15.838727   -2.286290    0.402176
    124          1           0       15.969210    1.670460    0.199738
    125          1           0       16.487539    0.457091    1.634246
    126          1           0       18.159633   -0.433500   -0.149369
    127          1           0       17.557976    0.686509   -1.072923
    128          1           0       18.169779    2.796395    0.521213
    129          1           0       18.534015    1.374623    1.494163
    130          1           0       20.360444    0.784052    0.175706
    131          1           0       20.060611    3.569154   -1.223706
    132          1           0       21.296352    1.980758   -1.739339
    133          1           0       19.454103    1.955636   -2.227204
    134          1           0       20.804225    1.823017    2.176717
    135          1           0       22.146110    2.585967    0.948113
    136          1           0       20.675715    3.448758    1.600734
    137          1           0       -7.454407    1.662194    0.458523
    138          1           0       -7.568793   -0.266935   -0.041924
 ---------------------------------------------------------------------

 SCF Done:  E(RB3LYP) =  -2732.96726896     A.U. after   17 cycles

 Excitation energies and oscillator strengths:

 Excited State   1:      Singlet-A      1.9848 eV  624.68 nm  f=0.2535  <S**2>=0.000
     235 -> 237        0.15023
     235 -> 238       -0.20757
     236 -> 237        0.65275
     236 -> 238        0.10915
 This state for optimization and/or second-order correction.
 Total Energy, E(TD-HF/TD-DFT) =  -2732.89433012
 Copying the excited state density for this state as the 1-particle RhoCI density.

 The electronic state is 1-A.
 Alpha  occ. eigenvalues --  -19.18715 -19.16898 -19.13306 -19.11984 -19.11295
 Alpha  occ. eigenvalues --  -14.36760 -14.36615 -14.32411 -14.31545 -10.31704
 Alpha  occ. eigenvalues --  -10.31160 -10.27871 -10.25152 -10.24773 -10.24200
 Alpha  occ. eigenvalues --  -10.23553 -10.23352 -10.23292 -10.22558 -10.22387
 Alpha  occ. eigenvalues --  -10.22247 -10.22024 -10.21731 -10.21115 -10.21027
 Alpha  occ. eigenvalues --  -10.20896 -10.20854 -10.20755 -10.20699 -10.20684
 Alpha  occ. eigenvalues --  -10.20510 -10.20458 -10.20424 -10.20317 -10.20311
 Alpha  occ. eigenvalues --  -10.20190 -10.20092 -10.20032 -10.19975 -10.19959
 Alpha  occ. eigenvalues --  -10.19955 -10.19885 -10.19851 -10.19623 -10.19590
 Alpha  occ. eigenvalues --  -10.19562 -10.19471 -10.19405 -10.19403 -10.19313
 Alpha  occ. eigenvalues --  -10.19038 -10.19025 -10.19008 -10.18924 -10.18598
 Alpha  occ. eigenvalues --  -10.18581 -10.18570 -10.18514 -10.18251 -10.18009
 Alpha  occ. eigenvalues --  -10.17958 -10.17763 -10.17271 -10.17235  -1.09325
 Alpha  occ. eigenvalues --   -1.09000  -1.01139  -1.01024  -0.97669  -0.97101
 Alpha  occ. eigenvalues --   -0.96898  -0.96232  -0.91541  -0.85329  -0.82797
 Alpha  occ. eigenvalues --   -0.82414  -0.82101  -0.81393  -0.81206  -0.80958
 Alpha  occ. eigenvalues --   -0.80061  -0.80036  -0.78974  -0.78590  -0.77958
 Alpha  occ. eigenvalues --   -0.76805  -0.76329  -0.76182  -0.75115  -0.74803
 Alpha  occ. eigenvalues --   -0.73792  -0.73474  -0.72807  -0.72420  -0.71154
 Alpha  occ. eigenvalues --   -0.70243  -0.69432  -0.68611  -0.68236  -0.67625
 Alpha  occ. eigenvalues --   -0.67203  -0.66589  -0.65538  -0.64902  -0.64755
 Alpha  occ. eigenvalues --   -0.63858  -0.63105  -0.62208  -0.61830  -0.61695
 Alpha  occ. eigenvalues --   -0.61231  -0.59237  -0.58131  -0.57956  -0.57842
 Alpha  occ. eigenvalues --   -0.57367  -0.57180  -0.57088  -0.56920  -0.56076
 Alpha  occ. eigenvalues --   -0.55500  -0.54539  -0.54455  -0.53343  -0.52710
 Alpha  occ. eigenvalues --   -0.52429  -0.51770  -0.51369  -0.50990  -0.50358
 Alpha  occ. eigenvalues --   -0.50092  -0.49871  -0.49275  -0.48398  -0.48246
 Alpha  occ. eigenvalues --   -0.48028  -0.47812  -0.47591  -0.47309  -0.47166
 Alpha  occ. eigenvalues --   -0.46714  -0.46623  -0.46382  -0.45892  -0.45711
 Alpha  occ. eigenvalues --   -0.45442  -0.45295  -0.44957  -0.44725  -0.44671
 Alpha  occ. eigenvalues --   -0.44546  -0.44121  -0.44032  -0.43655  -0.43205
 Alpha  occ. eigenvalues --   -0.43177  -0.43054  -0.42890  -0.42687  -0.42552
 Alpha  occ. eigenvalues --   -0.42280  -0.42245  -0.42097  -0.41664  -0.41288
 Alpha  occ. eigenvalues --   -0.41219  -0.41011  -0.40847  -0.40676  -0.40560
 Alpha  occ. eigenvalues --   -0.40026  -0.39881  -0.39719  -0.39566  -0.39490
 Alpha  occ. eigenvalues --   -0.39244  -0.39057  -0.38962  -0.38688  -0.38595
 Alpha  occ. eigenvalues --   -0.38507  -0.38158  -0.37957  -0.37762  -0.37331
 Alpha  occ. eigenvalues --   -0.37222  -0.37039  -0.37009  -0.36732  -0.36518
 Alpha  occ. eigenvalues --   -0.36326  -0.36257  -0.35872  -0.35658  -0.35333
 Alpha  occ. eigenvalues --   -0.35242  -0.35094  -0.35060  -0.34888  -0.34705
 Alpha  occ. eigenvalues --   -0.34628  -0.34559  -0.34386  -0.34158  -0.34042
 Alpha  occ. eigenvalues --   -0.33890  -0.33358  -0.33059  -0.32988  -0.32898
 Alpha  occ. eigenvalues --   -0.32667  -0.32339  -0.32090  -0.32044  -0.31499
 Alpha  occ. eigenvalues --   -0.31340  -0.30932  -0.30144  -0.29933  -0.29879
 Alpha  occ. eigenvalues --   -0.29814  -0.29766  -0.29116  -0.28687  -0.27969
 Alpha  occ. eigenvalues --   -0.27719  -0.27122  -0.26838  -0.26167  -0.24954
 Alpha  occ. eigenvalues --   -0.24565  -0.24455  -0.24030  -0.23902  -0.20095
 Alpha  occ. eigenvalues --   -0.18451
 Alpha virt. eigenvalues --   -0.10740  -0.06581  -0.04228  -0.01872  -0.01107
 Alpha virt. eigenvalues --   -0.00281   0.00372   0.00766   0.01852   0.03856
 Alpha virt. eigenvalues --    0.03967   0.04140   0.04281   0.04814   0.05018

 Mulliken charges:
               1
     1  C   -0.006872
     2  C   -0.056579
     3  C   -0.056964
     4  C   -0.048341
     5  N   -0.110477
     6  C   -0.078272
     7  C   -0.128305
     8  C    0.012840
     9  C   -0.037195
    10  C    0.007289
    11  C    0.117490
    12  C   -0.007062
    13  C    0.161058
    14  O   -0.208384
    15  O   -0.355713
    16  N   -0.121451
    17  C    0.076762
    18  C   -0.089734
    19  C    0.066447
    20  C    0.063949
    21  C    0.087356
    22  C   -0.042575
    23  C   -0.049728
    24  N   -0.312298
    25  C    0.093092
    26  C   -0.121085
    27  C   -0.104641
    28  C    0.142333
    29  C    0.126659
    30  C    0.029005
    31  C    0.029655
    32  N   -0.066272
    33  C    0.016097
    34  C   -0.106089
    35  C   -0.021905
    36  C    0.120305
    37  C    0.004698
    38  C    0.021896
    39  O   -0.198434
    40  C    0.044643
    41  C    0.216951
    42  O   -0.312112
    43  O   -0.283765
    44  C    0.253947
    45  C    0.212578
    46  C   -0.029116
    47  C   -0.224626
    48  C    0.249968
    49  C    0.094982
    50  C    0.017204
    51  C   -0.026069
    52  C   -0.023904
    53  C   -0.039295
    54  C    0.039827
    55  C    0.032554
    56  C   -0.019280
    57  C    0.143573
    58  C    0.028004
    59  C   -0.023100
    60  C    0.032415
    61  C    0.132848
    62  C    0.096014
    63  C   -0.106905
    64  C   -0.064746
    65  H   -0.004906
    66  H   -0.063903
    67  H   -0.049190
    68  H    0.056268
    69  H    0.006750
    70  H    0.036116
    71  H    0.027875
    72  H    0.050236
    73  H    0.006238
    74  H    0.022855
    75  H    0.026531
    76  H    0.034320
    77  H    0.011820
    78  H   -0.018428
    79  H    0.051605
    80  H    0.002701
    81  H    0.029402
    82  H    0.039721
    83  H    0.027157
    84  H    0.022575
    85  H   -0.024490
    86  H    0.005253
    87  H    0.016353
    88  H    0.016832
    89  H    0.016769
    90  H    0.015377
    91  H    0.033562
    92  H    0.022032
    93  H    0.062473
    94  H    0.043211
    95  H    0.058256
    96  H   -0.053587
    97  H    0.055956
    98  H    0.012887
    99  H    0.037744
   100  H   -0.011521
   101  H    0.009590
   102  H    0.002120
   103  H   -0.054632
   104  H    0.016270
   105  H   -0.002867
   106  H    0.005407
   107  H   -0.013664
   108  H   -0.000191
   109  H    0.007033
   110  H   -0.026885
   111  H    0.022065
   112  H    0.005912
   113  H    0.014710
   114  H    0.016235
   115  H   -0.012469
   116  H    0.013572
   117  H   -0.028086
   118  H    0.005878
   119  H   -0.022934
   120  H   -0.111686
   121  H   -0.019691
   122  H    0.012798
   123  H   -0.032632
   124  H    0.005684
   125  H    0.030631
   126  H   -0.016971
   127  H   -0.070234
   128  H    0.009512
   129  H   -0.106231
   130  H   -0.084653
   131  H    0.045101
   132  H    0.035747
   133  H    0.025516
   134  H    0.005398
   135  H    0.035056
   136  H    0.016451
   137  H    0.177737
   138  H    0.171411
 Sum of Mulliken charges =  -0.00000

 Dipole moment (field-independent basis, Debye):
    X=              2.6421    Y=              4.9443    Z=             -0.0323  Tot=              5.6061
 Quadrupole moment (field-independent basis, Debye-Ang):
   XX=           -349.6219   YY=           -382.8784   ZZ=           -396.1231
   XY=            -36.8107   XZ=             10.1367   YZ=              1.0132

 Normal termination of Gaussian 16 at Wed Aug 14 11:46:01 2019.
