 Gaussian 16, Revision A.03,
 Gaussian 16:  ES64L-G16RevA.03 25-Dec-2016

 --------------------------
 # td=(NStates=1) B3LYP/SVP
 --------------------------

 --
 TD
 --
 Symbolic Z-matrix:
 Charge =  0 Multiplicity = 1

                         Standard orientation:
 ---------------------------------------------------------------------
 Center     Atomic      Atomic             Coordinates (Angstroms)
 Number     Number       Type             X           Y           Z
 ---------------------------------------------------------------------
      1          6           0       -5.117386   -1.991836    0.407312
      2          6           0       -4.697406    2.680183    1.595275
      3          6           0       -9.209110    3.371720   -0.389312
      4          6           0       -9.784636   -1.392895   -0.871256
      5          7           0       -5.193498    0.393670    0.782653
      6          6           0       -4.460576   -0.752161    0.850621
      7          6           0       -3.071442   -0.643622    1.394946
      8          6           0       -3.079320    0.729894    2.012988
      9          6           0       -4.385802    1.327925    1.436372
     10          6           0       -3.130182    0.582896    3.594758
     11          6           0       -2.092721   -0.776463    0.106758
     12          6           0       -0.559252   -0.857647    0.593441
     13          6           0        0.361538   -1.000613   -0.540728
     14          8           0       -0.048559   -1.366621   -1.658708
     15          8           0        1.652376   -0.787982   -0.233684
     16          7           0       -6.945651    2.831734    0.489420
     17          6           0       -5.818052    3.361172    1.064490
     18          6           0       -6.154164    4.751667    1.150021
     19          6           0       -7.351247    4.999310    0.556126
     20          6           0       -7.890344    3.716296   -0.013079
     21          6           0       -5.150849    5.818310    1.639177
     22          6           0       -8.050403    6.246210    0.400499
     23          6           0       -8.905168    6.624748   -0.600590
     24          7           0       -9.203500    0.977489   -0.491251
     25          6           0       -9.796703    2.207419   -0.617064
     26          6           0      -11.261143    1.981696   -1.045376
     27          6           0      -11.429484    0.667871   -1.219131
     28          6           0      -10.114075    0.055658   -0.769170
     29          6           0      -12.233389    3.202423   -1.334009
     30          6           0      -12.631015   -0.088317   -1.637270
     31          6           0      -12.544996   -0.509659   -3.218827
     32          7           0       -7.501449   -1.260765    0.077975
     33          6           0       -8.597266   -1.963432   -0.432541
     34          6           0       -8.240925   -3.331192   -0.496190
     35          6           0       -6.897256   -3.422755   -0.068573
     36          6           0       -6.493106   -2.094456    0.103619
     37          6           0       -9.136538   -4.500063   -0.999357
     38          6           0       -5.810791   -4.283981   -0.014497
     39          8           0       -5.625087   -5.497852   -0.226824
     40          6           0       -4.510297   -3.331920    0.328725
     41          6           0       -4.029540   -3.898915    1.703627
     42          8           0       -4.357711   -3.495360    2.810267
     43          8           0       -3.139649   -4.929826    1.474615
     44          6           0       -2.481090   -5.517225    2.562281
     45          6           0        2.610489   -1.117476   -1.220916
     46          6           0        3.925182   -0.763567   -0.612746
     47          6           0        4.903798    0.037160   -1.161905
     48          6           0        4.715948    0.761111   -2.432609
     49          6           0        6.275644    0.178575   -0.452153
     50          6           0        7.409605   -0.331396   -1.249181
     51          6           0        8.717745   -0.226670   -0.380850
     52          6           0       10.111810   -0.717643   -1.010710
     53          6           0       10.154541   -2.204950   -1.274273
     54          6           0       11.359893   -0.424994   -0.039341
     55          6           0       12.636944   -0.544596   -0.689937
     56          6           0       13.821615   -0.093672    0.172093
     57          6           0       15.160558   -0.129372   -0.374574
     58          6           0       15.643258   -1.644504   -0.676729
     59          6           0       16.208337    0.722308    0.483188
     60          6           0       17.571021    0.716546   -0.105543
     61          6           0       18.595861    1.605469    0.709603
     62          6           0       20.023849    1.677577    0.367326
     63          6           0       20.390027    2.272235   -1.083571
     64          6           0       20.863797    2.373397    1.422087
     65          1           0       -3.787324    3.106727    2.014665
     66          1           0       -9.812726    4.242611   -0.491860
     67          1           0      -10.547141   -2.257691   -1.176503
     68          1           0       -2.740832   -1.614006    2.092170
     69          1           0       -2.247164    1.337881    1.680347
     70          1           0       -2.311810   -0.057655    4.094928
     71          1           0       -3.083534    1.691161    4.093843
     72          1           0       -4.154935   -0.089349    3.946327
     73          1           0       -2.302656   -1.756872   -0.165521
     74          1           0       -2.301332   -0.051873   -0.704361
     75          1           0       -0.261637    0.119392    1.199283
     76          1           0       -0.396521   -1.784319    1.208350
     77          1           0       -4.156260    5.813461    1.110344
     78          1           0       -5.770426    6.792001    1.738192
     79          1           0       -4.835735    5.538405    2.723890
     80          1           0       -7.738335    7.126753    1.082464
     81          1           0       -8.977817    5.881914   -1.431589
     82          1           0       -9.180680    7.741806   -0.624787
     83          1           0      -12.422581    3.698519   -0.374405
     84          1           0      -11.843548    3.931102   -2.145902
     85          1           0      -13.320481    2.792846   -1.745070
     86          1           0      -12.817947   -0.998257   -1.039968
     87          1           0      -13.502210    0.582436   -1.446063
     88          1           0      -12.278603    0.332726   -3.751503
     89          1           0      -11.745887   -1.202319   -3.220330
     90          1           0      -13.469665   -1.069298   -3.438669
     91          1           0       -9.916454   -4.555551   -0.263819
     92          1           0       -9.682010   -4.260069   -2.041777
     93          1           0       -8.549379   -5.288222   -1.075299
     94          1           0       -3.772674   -3.570328   -0.485645
     95          1           0       -1.860452   -6.455001    2.299003
     96          1           0       -1.602863   -4.739825    2.870413
     97          1           0       -3.255734   -5.925041    3.229477
     98          1           0        2.603421   -2.090116   -1.446894
     99          1           0        2.342505   -0.274297   -2.108739
    100          1           0        4.156413   -1.226796    0.345222
    101          1           0        5.062446    1.909067   -2.281149
    102          1           0        5.212923    0.273615   -3.202254
    103          1           0        3.613703    0.903229   -2.740645
    104          1           0        6.349971    1.220242   -0.228031
    105          1           0        6.222820   -0.273031    0.546689
    106          1           0        7.292679   -1.271580   -1.318562
    107          1           0        7.598532    0.161332   -2.082166
    108          1           0        8.992028    0.772434   -0.162584
    109          1           0        8.497832   -0.677634    0.682659
    110          1           0       10.152702   -0.018405   -1.949308
    111          1           0        9.440101   -2.510751   -1.986021
    112          1           0       11.197481   -2.412732   -1.449298
    113          1           0        9.602334   -2.591290   -0.462084
    114          1           0       11.042297    0.622809    0.268356
    115          1           0       11.196804   -1.230828    0.883906
    116          1           0       12.901209   -1.554527   -0.971525
    117          1           0       12.623947   -0.069849   -1.802473
    118          1           0       13.729928    0.781775    0.518771
    119          1           0       13.721279   -0.742285    1.056234
    120          1           0       15.275377    0.317608   -1.236433
    121          1           0       15.138716   -2.093059   -1.449131
    122          1           0       16.704484   -1.633487   -0.968130
    123          1           0       15.619939   -2.267293    0.054971
    124          1           0       15.888500    1.693675    0.314224
    125          1           0       16.118682    0.553812    1.706104
    126          1           0       18.004568   -0.320621   -0.260737
    127          1           0       17.482690    1.182641   -1.116250
    128          1           0       18.343599    2.715975    0.585221
    129          1           0       18.411780    1.376125    1.812537
    130          1           0       20.596233    0.549293    0.151562
    131          1           0       19.878754    3.386665   -1.236684
    132          1           0       21.466065    2.240442   -1.375758
    133          1           0       19.612131    1.929063   -1.940487
    134          1           0       20.593691    1.934496    2.520539
    135          1           0       22.050742    1.982389    1.335564
    136          1           0       20.455994    3.476227    1.343951
    137          1           0       -7.092953    1.748092    0.503303
    138          1           0       -7.471982   -0.182948    0.308058
 ---------------------------------------------------------------------

 SCF Done:  E(RB3LYP) =  -2733.04587274     A.U. after   17 cycles

 Excitation energies and oscillator strengths:

 Excited State   1:      Singlet-A      1.9625 eV  631.76 nm  f=0.1904  <S**2>=0.000
     235 -> 238       -0.27362
     236 -> 237        0.64386
 This state for optimization and/or second-order correction.
 Total Energy, E(TD-HF/TD-DFT) =  -2732.97375179
 Copying the excited state density for this state as the 1-particle RhoCI density.

 The electronic state is 1-A.
 Alpha  occ. eigenvalues --  -19.18063 -19.17244 -19.12757 -19.12003 -19.11822
 Alpha  occ. eigenvalues --  -14.37640 -14.37577 -14.33274 -14.30720 -10.32050
 Alpha  occ. eigenvalues --  -10.31379 -10.27670 -10.25752 -10.25054 -10.23959
 Alpha  occ. eigenvalues --  -10.23948 -10.23872 -10.23684 -10.23400 -10.23208
 Alpha  occ. eigenvalues --  -10.22798 -10.22432 -10.22205 -10.21888 -10.21853
 Alpha  occ. eigenvalues --  -10.21735 -10.21300 -10.21256 -10.21208 -10.21179
 Alpha  occ. eigenvalues --  -10.20966 -10.20929 -10.20912 -10.20713 -10.20526
 Alpha  occ. eigenvalues --  -10.20320 -10.20254 -10.20175 -10.20125 -10.20109
 Alpha  occ. eigenvalues --  -10.19960 -10.19910 -10.19854 -10.19770 -10.19689
 Alpha  occ. eigenvalues --  -10.19668 -10.19620 -10.19586 -10.19484 -10.19281
 Alpha  occ. eigenvalues --  -10.19198 -10.19048 -10.18801 -10.18770 -10.18666
 Alpha  occ. eigenvalues --  -10.18624 -10.18607 -10.18592 -10.17972 -10.17838
 Alpha  occ. eigenvalues --  -10.16675 -10.16435 -10.16035 -10.15538  -1.09675
 Alpha  occ. eigenvalues --   -1.08330  -1.00899  -1.00358  -0.99661  -0.99433
 Alpha  occ. eigenvalues --   -0.97571  -0.94313  -0.93861  -0.85118  -0.83135
 Alpha  occ. eigenvalues --   -0.82715  -0.81527  -0.81158  -0.80974  -0.80660
 Alpha  occ. eigenvalues --   -0.80430  -0.79875  -0.79144  -0.78813  -0.78481
 Alpha  occ. eigenvalues --   -0.76901  -0.76079  -0.75569  -0.75359  -0.73884
 Alpha  occ. eigenvalues --   -0.73404  -0.72831  -0.72562  -0.72318  -0.70826
 Alpha  occ. eigenvalues --   -0.69222  -0.68853  -0.68351  -0.68169  -0.67798
 Alpha  occ. eigenvalues --   -0.67221  -0.66669  -0.66650  -0.65662  -0.65442
 Alpha  occ. eigenvalues --   -0.63841  -0.63329  -0.62563  -0.62370  -0.61751
 Alpha  occ. eigenvalues --   -0.61072  -0.60120  -0.58362  -0.57999  -0.57823
 Alpha  occ. eigenvalues --   -0.57115  -0.56618  -0.56318  -0.55419  -0.54903
 Alpha  occ. eigenvalues --   -0.54323  -0.54262  -0.53080  -0.52770  -0.52495
 Alpha  occ. eigenvalues --   -0.52149  -0.51742  -0.51585  -0.51120  -0.50545
 Alpha  occ. eigenvalues --   -0.49961  -0.49870  -0.49545  -0.48821  -0.48576
 Alpha  occ. eigenvalues --   -0.48410  -0.47853  -0.47719  -0.47349  -0.47133
 Alpha  occ. eigenvalues --   -0.46844  -0.46660  -0.46464  -0.46264  -0.46176
 Alpha  occ. eigenvalues --   -0.45795  -0.45357  -0.44814  -0.44651  -0.44551
 Alpha  occ. eigenvalues --   -0.44230  -0.44142  -0.44021  -0.43714  -0.43350
 Alpha  occ. eigenvalues --   -0.43316  -0.43246  -0.43017  -0.42908  -0.42571
 Alpha  occ. eigenvalues --   -0.42406  -0.42306  -0.42162  -0.41690  -0.41552
 Alpha  occ. eigenvalues --   -0.41356  -0.41080  -0.40856  -0.40364  -0.40099
 Alpha  occ. eigenvalues --   -0.39910  -0.39759  -0.39713  -0.39597  -0.39364
 Alpha  occ. eigenvalues --   -0.39264  -0.39027  -0.38936  -0.38901  -0.38513
 Alpha  occ. eigenvalues --   -0.38216  -0.37935  -0.37888  -0.37775  -0.37495
 Alpha  occ. eigenvalues --   -0.37318  -0.36990  -0.36791  -0.36680  -0.36569
 Alpha  occ. eigenvalues --   -0.36406  -0.36365  -0.36182  -0.36100  -0.36006
 Alpha  occ. eigenvalues --   -0.35914  -0.35594  -0.35468  -0.35310  -0.35127
 Alpha  occ. eigenvalues --   -0.34927  -0.34411  -0.34177  -0.34111  -0.33809
 Alpha  occ. eigenvalues --   -0.33697  -0.33204  -0.33177  -0.33019  -0.32831
 Alpha  occ. eigenvalues --   -0.32702  -0.32049  -0.31669  -0.31645  -0.31380
 Alpha  occ. eigenvalues --   -0.31155  -0.30809  -0.30458  -0.30208  -0.29985
 Alpha  occ. eigenvalues --   -0.29864  -0.29125  -0.28793  -0.28417  -0.28242
 Alpha  occ. eigenvalues --   -0.27903  -0.27332  -0.27173  -0.26480  -0.26393
 Alpha  occ. eigenvalues --   -0.24702  -0.24496  -0.23808  -0.23256  -0.19887
 Alpha  occ. eigenvalues --   -0.18987
 Alpha virt. eigenvalues --   -0.10832  -0.07626  -0.04825  -0.02207  -0.00828
 Alpha virt. eigenvalues --   -0.00261   0.00084   0.00390   0.01456   0.02850
 Alpha virt. eigenvalues --    0.03412   0.03536   0.04287   0.04437   0.04778

 Mulliken charges:
               1
     1  C    0.026809
     2  C   -0.041129
     3  C   -0.053963
     4  C   -0.100096
     5  N   -0.212313
     6  C   -0.006271
     7  C   -0.144879
     8  C    0.069946
     9  C   -0.058609
    10  C   -0.053003
    11  C    0.088735
    12  C    0.006098
    13  C    0.176010
    14  O   -0.275786
    15  O   -0.301928
    16  N   -0.131047
    17  C    0.157074
    18  C   -0.135677
    19  C    0.041824
    20  C    0.080293
    21  C    0.055660
    22  C   -0.106733
    23  C   -0.054278
    24  N   -0.204075
    25  C    0.065478
    26  C   -0.100314
    27  C   -0.096223
    28  C    0.033772
    29  C    0.017324
    30  C    0.020119
    31  C    0.062010
    32  N   -0.042587
    33  C    0.092109
    34  C   -0.171618
    35  C    0.066833
    36  C    0.034504
    37  C    0.158501
    38  C   -0.003532
    39  O   -0.200261
    40  C   -0.104295
    41  C    0.232320
    42  O   -0.230067
    43  O   -0.306174
    44  C    0.135533
    45  C    0.312125
    46  C   -0.105667
    47  C   -0.174820
    48  C    0.055569
    49  C    0.085240
    50  C    0.245477
    51  C   -0.057549
    52  C   -0.153284
    53  C    0.149354
    54  C   -0.012910
    55  C    0.020322
    56  C    0.202424
    57  C   -0.015104
    58  C    0.106618
    59  C    0.010045
    60  C    0.020953
    61  C    0.009410
    62  C   -0.111780
    63  C   -0.056108
    64  C   -0.037419
    65  H   -0.028721
    66  H   -0.040469
    67  H    0.021574
    68  H    0.053207
    69  H   -0.005256
    70  H    0.038248
    71  H    0.035504
    72  H    0.060534
    73  H   -0.006715
    74  H    0.033108
    75  H    0.046654
    76  H    0.043741
    77  H    0.043352
    78  H    0.029565
    79  H    0.021075
    80  H    0.012809
    81  H    0.041029
    82  H    0.045485
    83  H    0.036922
    84  H    0.050293
    85  H    0.031254
    86  H    0.004018
    87  H    0.002127
    88  H    0.008832
    89  H   -0.006398
    90  H    0.019987
    91  H    0.030516
    92  H    0.045120
    93  H   -0.000778
    94  H    0.071640
    95  H    0.036742
    96  H    0.037794
    97  H    0.044035
    98  H   -0.005042
    99  H    0.047572
   100  H   -0.017945
   101  H    0.027640
   102  H    0.024096
   103  H    0.019037
   104  H   -0.015741
   105  H   -0.018068
   106  H   -0.068433
   107  H   -0.038239
   108  H   -0.026759
   109  H   -0.004048
   110  H   -0.000392
   111  H   -0.025203
   112  H    0.012045
   113  H   -0.022040
   114  H    0.001998
   115  H    0.019355
   116  H   -0.009808
   117  H   -0.003718
   118  H   -0.094445
   119  H   -0.023019
   120  H   -0.069958
   121  H   -0.015489
   122  H   -0.017384
   123  H   -0.048635
   124  H   -0.026015
   125  H    0.013252
   126  H    0.020889
   127  H   -0.003416
   128  H   -0.007389
   129  H    0.008497
   130  H   -0.000146
   131  H   -0.004529
   132  H    0.042842
   133  H    0.021389
   134  H    0.023673
   135  H    0.044480
   136  H    0.033604
   137  H    0.176060
   138  H    0.193610
 Sum of Mulliken charges =  -0.00000

 Dipole moment (field-independent basis, Debye):
    X=              2.4127    Y=              3.2228    Z=              0.5622  Tot=              4.0649
 Quadrupole moment (field-independent basis, Debye-Ang):
   XX=           -363.0042   YY=           -391.0830   ZZ=           -399.4209
   XY=            -15.9970   XZ=              5.2276   YZ=             -3.7955

 Normal termination of Gaussian 16 at Fri Aug 16 04:46:50 2019.
