 Gaussian 16, Revision A.03,
 Gaussian 16:  ES64L-G16RevA.03 25-Dec-2016

 --------------------------
 # td=(NStates=1) B3LYP/SVP
 --------------------------

 --
 TD
 --
 Symbolic Z-matrix:
 Charge =  0 Multiplicity = 1

                         Standard orientation:
 ---------------------------------------------------------------------
 Center     Atomic      Atomic             Coordinates (Angstroms)
 Number     Number       Type             X           Y           Z
 ---------------------------------------------------------------------
      1          6           0       -5.190803   -2.067043    0.522579
      2          6           0       -4.600861    2.700493    1.487598
      3          6           0       -9.237976    3.426062   -0.289096
      4          6           0       -9.875228   -1.268626   -0.961922
      5          7           0       -5.221965    0.384180    0.826802
      6          6           0       -4.582213   -0.878665    0.768097
      7          6           0       -3.154064   -0.748993    1.164775
      8          6           0       -3.126258    0.663465    1.897036
      9          6           0       -4.404754    1.366942    1.318483
     10          6           0       -3.025295    0.680470    3.401938
     11          6           0       -2.043989   -0.797899    0.071228
     12          6           0       -0.655309   -0.850800    0.597541
     13          6           0        0.325829   -1.022473   -0.518042
     14          8           0        0.017246   -1.359644   -1.623415
     15          8           0        1.627254   -0.724471   -0.189043
     16          7           0       -6.983674    2.848318    0.611332
     17          6           0       -5.846358    3.402775    1.237450
     18          6           0       -6.163215    4.715012    1.242370
     19          6           0       -7.351681    4.973997    0.622686
     20          6           0       -7.920387    3.716948    0.171035
     21          6           0       -5.265391    5.684959    1.877324
     22          6           0       -7.967052    6.249465    0.419966
     23          6           0       -8.727092    6.682860   -0.608696
     24          7           0       -9.144872    1.004335   -0.617621
     25          6           0       -9.762390    2.228726   -0.579563
     26          6           0      -11.209646    2.093488   -1.012221
     27          6           0      -11.406022    0.813642   -1.311910
     28          6           0      -10.104275    0.088876   -1.017033
     29          6           0      -12.195864    3.198981   -1.020757
     30          6           0      -12.453344    0.057747   -1.894318
     31          6           0      -12.298764   -0.239001   -3.385369
     32          7           0       -7.425219   -1.259708   -0.322474
     33          6           0       -8.640029   -1.929830   -0.662176
     34          6           0       -8.190350   -3.422060   -0.782525
     35          6           0       -6.918985   -3.454552   -0.373894
     36          6           0       -6.542304   -2.118923   -0.038768
     37          6           0       -9.144819   -4.513854   -1.142991
     38          6           0       -5.859634   -4.348648   -0.158011
     39          8           0       -5.953805   -5.550119   -0.254146
     40          6           0       -4.646981   -3.423748    0.323675
     41          6           0       -4.191854   -3.956931    1.619210
     42          8           0       -4.248244   -3.421926    2.759154
     43          8           0       -3.502817   -5.161754    1.553146
     44          6           0       -3.063715   -5.836483    2.739050
     45          6           0        2.717303   -0.943219   -1.102045
     46          6           0        3.954838   -0.629837   -0.347938
     47          6           0        4.997593    0.191526   -0.702439
     48          6           0        4.968846    1.009471   -1.988365
     49          6           0        6.264062    0.253724    0.103019
     50          6           0        7.508164   -0.304668   -0.772299
     51          6           0        8.752113   -0.339841    0.115306
     52          6           0       10.091187   -0.686042   -0.707591
     53          6           0       10.043914   -2.136558   -1.312733
     54          6           0       11.287482   -0.468507    0.144932
     55          6           0       12.715198   -0.669610   -0.655400
     56          6           0       13.897672   -0.100520    0.165204
     57          6           0       15.255313   -0.198453   -0.445078
     58          6           0       15.676442   -1.726882   -0.297273
     59          6           0       16.317311    0.716731    0.188602
     60          6           0       17.667283    0.591378   -0.330339
     61          6           0       18.570937    1.597284    0.428188
     62          6           0       20.120893    1.558675    0.102106
     63          6           0       20.418382    2.099231   -1.410134
     64          6           0       20.933655    2.502767    1.027440
     65          1           0       -3.966310    3.402556    1.928764
     66          1           0       -9.791421    4.283848   -0.594225
     67          1           0      -10.708619   -2.091582   -1.221106
     68          1           0       -3.002180   -1.629944    1.827339
     69          1           0       -2.363295    1.214341    1.488959
     70          1           0       -2.056746    0.395156    3.714917
     71          1           0       -3.268833    1.670032    4.004197
     72          1           0       -3.779668   -0.012351    3.789467
     73          1           0       -2.197428   -1.950872   -0.393901
     74          1           0       -2.315799   -0.425262   -0.898083
     75          1           0       -0.520988    0.019073    1.239188
     76          1           0       -0.450995   -1.594669    1.479280
     77          1           0       -4.448731    6.067406    1.281249
     78          1           0       -5.620416    6.718416    2.037492
     79          1           0       -5.018632    5.433205    2.661881
     80          1           0       -7.781468    7.132853    1.129434
     81          1           0       -8.928431    5.874588   -1.360142
     82          1           0       -9.228558    7.765353   -0.669342
     83          1           0      -12.506115    3.484997   -0.014398
     84          1           0      -11.795461    4.115899   -1.591078
     85          1           0      -13.189596    2.932441   -1.645472
     86          1           0      -12.478629   -0.832306   -1.375017
     87          1           0      -13.577656    0.388434   -1.572132
     88          1           0      -12.215942    0.636392   -4.004456
     89          1           0      -11.211042   -0.714045   -3.747631
     90          1           0      -13.117741   -1.060438   -3.774153
     91          1           0      -10.255364   -4.249215   -0.783253
     92          1           0       -9.287934   -4.367970   -2.192846
     93          1           0       -8.911231   -5.514401   -0.943385
     94          1           0       -3.900680   -3.690612   -0.281034
     95          1           0       -2.699658   -6.783423    2.363901
     96          1           0       -2.332036   -5.229369    3.242658
     97          1           0       -3.997346   -5.902433    3.443987
     98          1           0        2.708841   -1.926953   -1.472556
     99          1           0        2.505753   -0.351999   -1.996271
    100          1           0        4.161256   -1.227816    0.563740
    101          1           0        5.532275    1.943372   -1.809668
    102          1           0        5.609443    0.432949   -2.726979
    103          1           0        4.014231    1.291362   -2.517615
    104          1           0        6.554450    1.173708    0.464923
    105          1           0        6.215240   -0.274628    1.005515
    106          1           0        7.161281   -1.208617   -1.379506
    107          1           0        7.520397    0.411778   -1.601687
    108          1           0        8.841677    0.738999    0.673347
    109          1           0        8.809663   -1.151032    0.971701
    110          1           0       10.122146   -0.231287   -1.761001
    111          1           0        8.901062   -2.344482   -1.860222
    112          1           0       10.787625   -2.336779   -2.011145
    113          1           0       10.075945   -2.771334   -0.440152
    114          1           0       11.563616    0.671366    0.476206
    115          1           0       11.573041   -1.237499    1.103029
    116          1           0       12.739550   -1.701431   -1.019053
    117          1           0       12.574194   -0.061266   -1.638418
    118          1           0       13.594142    1.025339    0.181089
    119          1           0       13.899413   -0.500824    1.105117
    120          1           0       15.315056    0.277275   -1.471710
    121          1           0       15.229822   -2.537820   -1.066318
    122          1           0       16.925043   -1.867227   -0.451246
    123          1           0       15.405243   -2.141700    0.870844
    124          1           0       15.928825    1.730237    0.244383
    125          1           0       16.416846    0.330169    1.120926
    126          1           0       18.252738   -0.230466   -0.232639
    127          1           0       17.399392    0.910657   -1.364910
    128          1           0       18.438513    2.650423    0.256620
    129          1           0       18.525437    1.373574    1.578167
    130          1           0       20.738198    0.483676   -0.147251
    131          1           0       20.148634    3.227118   -1.612418
    132          1           0       21.531763    2.247654   -1.434177
    133          1           0       19.729854    1.864635   -2.382113
    134          1           0       20.974858    2.317443    2.087692
    135          1           0       21.993219    2.314603    0.967382
    136          1           0       20.450370    3.524085    0.761064
    137          1           0       -7.000272    1.861868    0.180442
    138          1           0       -7.335882   -0.379960    0.194504
 ---------------------------------------------------------------------

 SCF Done:  E(RB3LYP) =  -2732.97040118     A.U. after   19 cycles

 Excitation energies and oscillator strengths:

 Excited State   1:      Singlet-A      1.9505 eV  635.67 nm  f=0.2315  <S**2>=0.000
     235 -> 237       -0.10057
     235 -> 238       -0.23140
     236 -> 237        0.65619
 This state for optimization and/or second-order correction.
 Total Energy, E(TD-HF/TD-DFT) =  -2732.89872346
 Copying the excited state density for this state as the 1-particle RhoCI density.

 The electronic state is 1-A.
 Alpha  occ. eigenvalues --  -19.16368 -19.16284 -19.13032 -19.12250 -19.11882
 Alpha  occ. eigenvalues --  -14.38066 -14.36058 -14.32086 -14.30509 -10.31687
 Alpha  occ. eigenvalues --  -10.31373 -10.28272 -10.25211 -10.24318 -10.24065
 Alpha  occ. eigenvalues --  -10.23573 -10.23132 -10.23093 -10.22978 -10.22937
 Alpha  occ. eigenvalues --  -10.22692 -10.22091 -10.21919 -10.21837 -10.21612
 Alpha  occ. eigenvalues --  -10.21500 -10.21213 -10.21192 -10.21046 -10.20940
 Alpha  occ. eigenvalues --  -10.20580 -10.20492 -10.20475 -10.20363 -10.20242
 Alpha  occ. eigenvalues --  -10.20231 -10.20122 -10.20059 -10.19981 -10.19731
 Alpha  occ. eigenvalues --  -10.19722 -10.19666 -10.19619 -10.19456 -10.19455
 Alpha  occ. eigenvalues --  -10.19441 -10.19338 -10.19313 -10.19173 -10.19039
 Alpha  occ. eigenvalues --  -10.18951 -10.18789 -10.18625 -10.18588 -10.18537
 Alpha  occ. eigenvalues --  -10.18513 -10.18457 -10.18301 -10.18290 -10.18210
 Alpha  occ. eigenvalues --  -10.18182 -10.17472 -10.16630 -10.16590  -1.08405
 Alpha  occ. eigenvalues --   -1.06995  -1.03845  -1.00804  -1.00440  -0.97769
 Alpha  occ. eigenvalues --   -0.97587  -0.92779  -0.92218  -0.86235  -0.82852
 Alpha  occ. eigenvalues --   -0.82329  -0.81960  -0.81858  -0.81053  -0.80811
 Alpha  occ. eigenvalues --   -0.80413  -0.80253  -0.79375  -0.78905  -0.77636
 Alpha  occ. eigenvalues --   -0.76949  -0.76307  -0.76156  -0.75214  -0.74712
 Alpha  occ. eigenvalues --   -0.73800  -0.73632  -0.72803  -0.71503  -0.71135
 Alpha  occ. eigenvalues --   -0.70825  -0.69304  -0.68829  -0.67837  -0.67582
 Alpha  occ. eigenvalues --   -0.67295  -0.66837  -0.65935  -0.65356  -0.64648
 Alpha  occ. eigenvalues --   -0.64019  -0.63435  -0.62371  -0.62085  -0.61562
 Alpha  occ. eigenvalues --   -0.61124  -0.59712  -0.59329  -0.58055  -0.57596
 Alpha  occ. eigenvalues --   -0.57303  -0.56356  -0.56183  -0.55843  -0.55735
 Alpha  occ. eigenvalues --   -0.54778  -0.54289  -0.53924  -0.53781  -0.53487
 Alpha  occ. eigenvalues --   -0.52527  -0.52241  -0.51924  -0.51585  -0.51095
 Alpha  occ. eigenvalues --   -0.50471  -0.49847  -0.49351  -0.48761  -0.48516
 Alpha  occ. eigenvalues --   -0.48239  -0.47785  -0.47488  -0.47125  -0.46827
 Alpha  occ. eigenvalues --   -0.46587  -0.46422  -0.46273  -0.46030  -0.45931
 Alpha  occ. eigenvalues --   -0.45890  -0.45371  -0.45127  -0.44791  -0.44550
 Alpha  occ. eigenvalues --   -0.44384  -0.44121  -0.44001  -0.43903  -0.43586
 Alpha  occ. eigenvalues --   -0.43311  -0.43127  -0.43074  -0.42716  -0.42555
 Alpha  occ. eigenvalues --   -0.42338  -0.42133  -0.42094  -0.41833  -0.41579
 Alpha  occ. eigenvalues --   -0.41302  -0.41148  -0.41023  -0.40777  -0.40715
 Alpha  occ. eigenvalues --   -0.40439  -0.40200  -0.39943  -0.39831  -0.39759
 Alpha  occ. eigenvalues --   -0.39553  -0.39513  -0.39078  -0.38746  -0.38500
 Alpha  occ. eigenvalues --   -0.38230  -0.38025  -0.37896  -0.37728  -0.37480
 Alpha  occ. eigenvalues --   -0.37236  -0.37082  -0.36846  -0.36620  -0.36411
 Alpha  occ. eigenvalues --   -0.36247  -0.36172  -0.35973  -0.35852  -0.35789
 Alpha  occ. eigenvalues --   -0.35477  -0.35276  -0.34735  -0.34626  -0.34531
 Alpha  occ. eigenvalues --   -0.34400  -0.34261  -0.33952  -0.33782  -0.33510
 Alpha  occ. eigenvalues --   -0.33480  -0.33096  -0.32775  -0.32406  -0.32233
 Alpha  occ. eigenvalues --   -0.31976  -0.31495  -0.31485  -0.31231  -0.30345
 Alpha  occ. eigenvalues --   -0.30062  -0.29743  -0.29644  -0.29541  -0.29253
 Alpha  occ. eigenvalues --   -0.29237  -0.28709  -0.28416  -0.28089  -0.27916
 Alpha  occ. eigenvalues --   -0.27668  -0.27267  -0.26961  -0.26188  -0.25736
 Alpha  occ. eigenvalues --   -0.25317  -0.24046  -0.23628  -0.23251  -0.20210
 Alpha  occ. eigenvalues --   -0.18901
 Alpha virt. eigenvalues --   -0.11007  -0.07300  -0.04504  -0.01537  -0.00748
 Alpha virt. eigenvalues --    0.00052   0.00188   0.00824   0.01507   0.03477
 Alpha virt. eigenvalues --    0.03783   0.04015   0.04410   0.04568   0.04909

 Mulliken charges:
               1
     1  C    0.063880
     2  C   -0.002368
     3  C   -0.057519
     4  C   -0.080733
     5  N   -0.242021
     6  C   -0.006314
     7  C   -0.061092
     8  C    0.017541
     9  C    0.056352
    10  C    0.080406
    11  C    0.012351
    12  C    0.053322
    13  C    0.195343
    14  O   -0.218692
    15  O   -0.342850
    16  N   -0.120973
    17  C    0.023245
    18  C   -0.121953
    19  C    0.100899
    20  C    0.025842
    21  C    0.276936
    22  C   -0.109295
    23  C   -0.083154
    24  N   -0.230952
    25  C    0.108522
    26  C   -0.139503
    27  C   -0.047223
    28  C    0.054654
    29  C    0.045400
    30  C    0.106227
    31  C   -0.051277
    32  N    0.066264
    33  C    0.003816
    34  C   -0.144819
    35  C    0.051160
    36  C   -0.049044
    37  C    0.124407
    38  C    0.013575
    39  O   -0.150219
    40  C    0.065841
    41  C    0.197901
    42  O   -0.275387
    43  O   -0.338511
    44  C    0.194191
    45  C    0.338600
    46  C   -0.087075
    47  C   -0.151039
    48  C    0.034985
    49  C    0.150342
    50  C   -0.040632
    51  C    0.014027
    52  C   -0.069330
    53  C   -0.016314
    54  C   -0.051641
    55  C   -0.044520
    56  C    0.085801
    57  C   -0.029087
    58  C   -0.118786
    59  C    0.077216
    60  C    0.114805
    61  C    0.007842
    62  C   -0.158650
    63  C   -0.060860
    64  C    0.038663
    65  H   -0.048407
    66  H   -0.049142
    67  H    0.022893
    68  H    0.012368
    69  H   -0.040240
    70  H   -0.002121
    71  H    0.018333
    72  H    0.023286
    73  H    0.005338
    74  H    0.010535
    75  H    0.011312
    76  H    0.044592
    77  H    0.003913
    78  H   -0.023403
    79  H   -0.094600
    80  H    0.007966
    81  H    0.028267
    82  H    0.052575
    83  H    0.034304
    84  H    0.032234
    85  H    0.027339
    86  H   -0.032051
    87  H    0.006808
    88  H    0.012915
    89  H    0.023640
    90  H    0.035930
    91  H    0.033636
    92  H    0.017213
    93  H    0.029827
    94  H   -0.002480
    95  H    0.039819
    96  H    0.021149
    97  H    0.042369
    98  H    0.000715
    99  H   -0.003227
   100  H   -0.011025
   101  H    0.014309
   102  H    0.030711
   103  H    0.035072
   104  H   -0.024893
   105  H   -0.031475
   106  H    0.022231
   107  H   -0.002625
   108  H    0.024384
   109  H    0.022082
   110  H    0.008367
   111  H    0.024589
   112  H    0.021202
   113  H    0.000332
   114  H    0.021120
   115  H    0.030043
   116  H    0.001388
   117  H   -0.004422
   118  H   -0.001592
   119  H   -0.030407
   120  H   -0.012795
   121  H    0.046864
   122  H    0.031944
   123  H    0.035423
   124  H   -0.006307
   125  H   -0.060751
   126  H   -0.010807
   127  H   -0.014161
   128  H   -0.010613
   129  H    0.014001
   130  H    0.025311
   131  H   -0.019584
   132  H    0.018605
   133  H    0.041904
   134  H   -0.004316
   135  H    0.000188
   136  H    0.035071
   137  H    0.173222
   138  H    0.165280
 Sum of Mulliken charges =  -0.00000

 Dipole moment (field-independent basis, Debye):
    X=              1.8859    Y=              2.7541    Z=              0.3729  Tot=              3.3587
 Quadrupole moment (field-independent basis, Debye-Ang):
   XX=           -342.8489   YY=           -382.8579   ZZ=           -395.0988
   XY=             -8.0870   XZ=             16.7551   YZ=              0.5194

 Normal termination of Gaussian 16 at Tue Aug 27 14:28:01 2019.
