 Gaussian 16, Revision A.03,
 Gaussian 16:  ES64L-G16RevA.03 25-Dec-2016

 --------------------------
 # td=(NStates=1) B3LYP/SVP
 --------------------------

 --
 TD
 --
 Symbolic Z-matrix:
 Charge =  0 Multiplicity = 1

                         Standard orientation:
 ---------------------------------------------------------------------
 Center     Atomic      Atomic             Coordinates (Angstroms)
 Number     Number       Type             X           Y           Z
 ---------------------------------------------------------------------
      1          6           0       -5.083959   -1.941928    0.551805
      2          6           0       -4.765035    2.884944    1.420898
      3          6           0       -9.381026    3.254206   -0.172247
      4          6           0       -9.822744   -1.531124   -0.969987
      5          7           0       -5.170816    0.400248    0.972255
      6          6           0       -4.485417   -0.792580    0.872504
      7          6           0       -3.037588   -0.496918    1.425865
      8          6           0       -3.040460    0.911666    1.927398
      9          6           0       -4.455736    1.395087    1.393354
     10          6           0       -2.934304    0.996250    3.357728
     11          6           0       -2.094507   -0.772995    0.292400
     12          6           0       -0.501868   -0.690865    0.687564
     13          6           0        0.417845   -0.860117   -0.468420
     14          8           0        0.077606   -1.293087   -1.567574
     15          8           0        1.687209   -0.626820   -0.092525
     16          7           0       -7.039734    2.737623    0.593795
     17          6           0       -5.964447    3.409952    1.147847
     18          6           0       -6.283299    4.865794    1.147123
     19          6           0       -7.602077    4.962690    0.489039
     20          6           0       -8.043589    3.508847    0.217782
     21          6           0       -5.384618    5.850966    1.576565
     22          6           0       -8.242809    6.110979    0.229462
     23          6           0       -9.104485    6.520653   -0.738055
     24          7           0       -9.285346    0.758489   -0.535249
     25          6           0       -9.924656    1.885563   -0.565920
     26          6           0      -11.304875    1.724435   -1.019799
     27          6           0      -11.459226    0.425122   -1.313768
     28          6           0      -10.234433   -0.134557   -1.006200
     29          6           0      -12.209759    2.903545   -1.303035
     30          6           0      -12.662207   -0.323605   -1.735601
     31          6           0      -12.568791   -0.521895   -3.243596
     32          7           0       -7.456158   -1.213135   -0.329202
     33          6           0       -8.576542   -2.050973   -0.696651
     34          6           0       -8.146396   -3.369536   -0.637105
     35          6           0       -6.776311   -3.365386   -0.303890
     36          6           0       -6.466395   -1.906369    0.000120
     37          6           0       -8.866706   -4.575935   -1.114070
     38          6           0       -5.639684   -4.292634    0.030322
     39          8           0       -5.554068   -5.532000   -0.054549
     40          6           0       -4.453891   -3.252419    0.486827
     41          6           0       -3.924999   -3.886355    1.817565
     42          8           0       -4.219673   -3.504397    2.916372
     43          8           0       -3.119626   -4.871463    1.502143
     44          6           0       -2.591838   -5.666225    2.641659
     45          6           0        2.770619   -0.865341   -1.092696
     46          6           0        4.066620   -0.682463   -0.454505
     47          6           0        4.938943    0.359543   -0.881110
     48          6           0        4.949212    1.098517   -2.239532
     49          6           0        6.297359    0.369948   -0.202015
     50          6           0        7.472694   -0.397711   -0.927175
     51          6           0        8.802159   -0.208605   -0.158714
     52          6           0       10.108639   -0.681909   -0.893301
     53          6           0        9.997512   -2.125594   -1.307828
     54          6           0       11.344280   -0.412688   -0.013768
     55          6           0       12.711766   -0.543637   -0.654883
     56          6           0       13.816510   -0.063831    0.236570
     57          6           0       15.183006   -0.148268   -0.469039
     58          6           0       15.622649   -1.572739   -0.911929
     59          6           0       16.284658    0.453027    0.382564
     60          6           0       17.739908    0.575218   -0.206966
     61          6           0       18.516496    1.453339    0.634248
     62          6           0       19.968567    1.605086    0.144512
     63          6           0       20.146307    2.197130   -1.250203
     64          6           0       20.881428    2.263480    1.298095
     65          1           0       -3.825522    3.495339    1.785375
     66          1           0       -9.946339    4.213339   -0.158655
     67          1           0      -10.624990   -2.074883   -1.022238
     68          1           0       -2.655624   -1.182009    2.260105
     69          1           0       -2.101208    1.279650    1.323543
     70          1           0       -1.865864    0.744506    3.740868
     71          1           0       -3.030089    1.910090    3.902694
     72          1           0       -3.617800    0.318364    3.650386
     73          1           0       -2.281745   -1.762072   -0.279197
     74          1           0       -2.144485   -0.039886   -0.564071
     75          1           0       -0.317687    0.187740    1.240777
     76          1           0       -0.277014   -1.694622    1.366081
     77          1           0       -4.366731    5.770959    1.079402
     78          1           0       -5.765998    6.908670    1.606049
     79          1           0       -4.976829    5.705334    2.587353
     80          1           0       -8.132919    7.001829    1.004030
     81          1           0       -9.347270    6.128729   -1.429919
     82          1           0       -9.612541    7.543738   -0.659538
     83          1           0      -12.310239    3.533473   -0.365978
     84          1           0      -11.603098    3.551174   -2.026362
     85          1           0      -13.267021    2.691111   -1.767441
     86          1           0      -12.741537   -1.286115   -1.404249
     87          1           0      -13.605968    0.360293   -1.728733
     88          1           0      -12.668986    0.473201   -3.678967
     89          1           0      -11.658922   -1.139848   -3.525402
     90          1           0      -13.426160   -1.056286   -3.784732
     91          1           0       -9.787378   -5.015204   -0.270276
     92          1           0       -9.379615   -4.668430   -2.271886
     93          1           0       -7.984480   -5.318326   -0.860779
     94          1           0       -3.730028   -3.348266   -0.255613
     95          1           0       -1.860741   -6.188128    2.225263
     96          1           0       -2.026579   -4.963791    3.116498
     97          1           0       -3.557992   -6.044615    3.180336
     98          1           0        2.620310   -1.914000   -1.354102
     99          1           0        2.602641   -0.367166   -2.047832
    100          1           0        4.113696   -1.082504    0.746150
    101          1           0        4.955644    2.246547   -1.844415
    102          1           0        5.685182    0.650280   -3.094689
    103          1           0        3.943419    1.196880   -2.488241
    104          1           0        6.609885    1.324342   -0.230535
    105          1           0        6.196211    0.012675    0.785540
    106          1           0        7.251219   -1.406795   -1.279674
    107          1           0        7.384425    0.110221   -1.957976
    108          1           0        9.013369    0.873531    0.015865
    109          1           0        8.575840   -0.805240    0.849528
    110          1           0       10.330860    0.022849   -1.867969
    111          1           0        9.222610   -2.349588   -2.230393
    112          1           0       10.903087   -2.388916   -1.566584
    113          1           0        9.664896   -2.786723   -0.458942
    114          1           0       11.225070    0.681433    0.596099
    115          1           0       11.188372   -0.855521    0.982066
    116          1           0       12.814373   -1.578735   -1.283443
    117          1           0       12.749275   -0.059721   -1.610207
    118          1           0       13.809549    1.043513    0.576358
    119          1           0       13.889187   -0.756134    1.293767
    120          1           0       15.052143    0.354014   -1.573430
    121          1           0       14.955777   -1.911639   -1.751801
    122          1           0       16.719445   -1.322382   -1.534631
    123          1           0       15.653383   -2.386417   -0.124107
    124          1           0       15.865608    1.441406    0.672103
    125          1           0       16.207515   -0.033152    1.409787
    126          1           0       18.043198   -0.360589   -0.191894
    127          1           0       17.534135    0.804364   -1.362804
    128          1           0       17.912455    2.506850    0.735935
    129          1           0       18.445957    1.058236    1.719550
    130          1           0       20.558720    0.739085   -0.044640
    131          1           0       19.512152    3.162945   -1.141949
    132          1           0       21.381958    2.325264   -1.278252
    133          1           0       19.630008    1.693194   -2.169952
    134          1           0       20.717376    1.489261    2.173069
    135          1           0       21.747785    2.475162    0.797751
    136          1           0       20.347938    3.353477    1.571946
    137          1           0       -7.074589    1.687495    0.638413
    138          1           0       -7.782884   -0.188013   -0.379155
 ---------------------------------------------------------------------

 SCF Done:  E(RB3LYP) =  -2732.86910601     A.U. after   17 cycles

 Excitation energies and oscillator strengths:

 Excited State   1:      Singlet-A      2.0704 eV  598.84 nm  f=0.1688  <S**2>=0.000
     235 -> 237       -0.10658
     235 -> 238       -0.23253
     236 -> 237        0.64244
     236 -> 238       -0.11673
 This state for optimization and/or second-order correction.
 Total Energy, E(TD-HF/TD-DFT) =  -2732.79301943
 Copying the excited state density for this state as the 1-particle RhoCI density.

 The electronic state is 1-A.
 Alpha  occ. eigenvalues --  -19.17408 -19.17383 -19.12349 -19.11750 -19.11627
 Alpha  occ. eigenvalues --  -14.37706 -14.37669 -14.32458 -14.30244 -10.31158
 Alpha  occ. eigenvalues --  -10.30906 -10.28380 -10.24757 -10.24686 -10.24533
 Alpha  occ. eigenvalues --  -10.24415 -10.24373 -10.24008 -10.22750 -10.22409
 Alpha  occ. eigenvalues --  -10.22189 -10.21859 -10.21688 -10.21622 -10.21575
 Alpha  occ. eigenvalues --  -10.21404 -10.21211 -10.21067 -10.20823 -10.20772
 Alpha  occ. eigenvalues --  -10.20748 -10.20695 -10.20557 -10.20555 -10.20529
 Alpha  occ. eigenvalues --  -10.20459 -10.20444 -10.20422 -10.20229 -10.20225
 Alpha  occ. eigenvalues --  -10.20142 -10.20089 -10.19935 -10.19911 -10.19898
 Alpha  occ. eigenvalues --  -10.19822 -10.19753 -10.19610 -10.19592 -10.19575
 Alpha  occ. eigenvalues --  -10.19563 -10.19220 -10.19126 -10.19054 -10.18660
 Alpha  occ. eigenvalues --  -10.18336 -10.18230 -10.18069 -10.18055 -10.18040
 Alpha  occ. eigenvalues --  -10.17873 -10.17832 -10.17553 -10.17514  -1.09486
 Alpha  occ. eigenvalues --   -1.08031  -1.00702  -1.00463  -0.99512  -0.99154
 Alpha  occ. eigenvalues --   -0.98755  -0.95590  -0.95038  -0.84079  -0.82787
 Alpha  occ. eigenvalues --   -0.82446  -0.82084  -0.81819  -0.81556  -0.81106
 Alpha  occ. eigenvalues --   -0.80845  -0.80731  -0.79647  -0.78723  -0.77910
 Alpha  occ. eigenvalues --   -0.77053  -0.76295  -0.75736  -0.75394  -0.74842
 Alpha  occ. eigenvalues --   -0.73816  -0.73472  -0.72681  -0.72029  -0.71339
 Alpha  occ. eigenvalues --   -0.70195  -0.70068  -0.68530  -0.68172  -0.66954
 Alpha  occ. eigenvalues --   -0.66632  -0.66352  -0.66060  -0.65807  -0.64503
 Alpha  occ. eigenvalues --   -0.64072  -0.63670  -0.62721  -0.62244  -0.61248
 Alpha  occ. eigenvalues --   -0.61065  -0.59251  -0.59038  -0.57799  -0.57669
 Alpha  occ. eigenvalues --   -0.56943  -0.56180  -0.55895  -0.55486  -0.55133
 Alpha  occ. eigenvalues --   -0.55064  -0.54671  -0.53488  -0.53268  -0.53085
 Alpha  occ. eigenvalues --   -0.52924  -0.52214  -0.51672  -0.51097  -0.50842
 Alpha  occ. eigenvalues --   -0.50259  -0.50110  -0.49332  -0.48811  -0.48446
 Alpha  occ. eigenvalues --   -0.48384  -0.47737  -0.47290  -0.47215  -0.47144
 Alpha  occ. eigenvalues --   -0.46985  -0.46901  -0.46315  -0.45925  -0.45907
 Alpha  occ. eigenvalues --   -0.45537  -0.45470  -0.45295  -0.44887  -0.44845
 Alpha  occ. eigenvalues --   -0.44443  -0.44357  -0.44207  -0.44019  -0.43680
 Alpha  occ. eigenvalues --   -0.43415  -0.43273  -0.43060  -0.42996  -0.42787
 Alpha  occ. eigenvalues --   -0.42696  -0.42477  -0.42228  -0.42058  -0.41542
 Alpha  occ. eigenvalues --   -0.41129  -0.40947  -0.40431  -0.40345  -0.40207
 Alpha  occ. eigenvalues --   -0.40029  -0.40000  -0.39764  -0.39596  -0.39371
 Alpha  occ. eigenvalues --   -0.39275  -0.38950  -0.38595  -0.38490  -0.38056
 Alpha  occ. eigenvalues --   -0.38025  -0.37847  -0.37437  -0.37288  -0.36967
 Alpha  occ. eigenvalues --   -0.36857  -0.36680  -0.36652  -0.36634  -0.36494
 Alpha  occ. eigenvalues --   -0.36403  -0.36359  -0.36221  -0.35794  -0.35573
 Alpha  occ. eigenvalues --   -0.35308  -0.35141  -0.35062  -0.34975  -0.34925
 Alpha  occ. eigenvalues --   -0.34842  -0.34404  -0.34077  -0.33682  -0.33586
 Alpha  occ. eigenvalues --   -0.32978  -0.32697  -0.32473  -0.32111  -0.32025
 Alpha  occ. eigenvalues --   -0.31954  -0.31786  -0.31658  -0.31593  -0.31529
 Alpha  occ. eigenvalues --   -0.31103  -0.30833  -0.30494  -0.30345  -0.30162
 Alpha  occ. eigenvalues --   -0.29630  -0.28678  -0.28431  -0.28287  -0.28204
 Alpha  occ. eigenvalues --   -0.27693  -0.27444  -0.26322  -0.26002  -0.25733
 Alpha  occ. eigenvalues --   -0.24470  -0.24423  -0.23456  -0.23038  -0.20218
 Alpha  occ. eigenvalues --   -0.18566
 Alpha virt. eigenvalues --   -0.09826  -0.08253  -0.04928  -0.03153  -0.02370
 Alpha virt. eigenvalues --   -0.00210   0.00112   0.01632   0.02692   0.03361
 Alpha virt. eigenvalues --    0.03488   0.03712   0.03782   0.03935   0.04298

 Mulliken charges:
               1
     1  C   -0.006281
     2  C   -0.113048
     3  C   -0.108302
     4  C    0.024953
     5  N   -0.143396
     6  C   -0.028373
     7  C   -0.029483
     8  C   -0.033827
     9  C   -0.067990
    10  C    0.114065
    11  C   -0.031798
    12  C    0.008484
    13  C    0.186660
    14  O   -0.261360
    15  O   -0.332136
    16  N   -0.046736
    17  C    0.159526
    18  C   -0.087142
    19  C    0.090166
    20  C    0.086790
    21  C    0.082916
    22  C   -0.173214
    23  C    0.124274
    24  N   -0.214919
    25  C    0.049891
    26  C   -0.162744
    27  C   -0.056853
    28  C   -0.011056
    29  C    0.049624
    30  C    0.161162
    31  C   -0.056836
    32  N    0.029796
    33  C    0.098413
    34  C   -0.051781
    35  C   -0.105836
    36  C    0.086845
    37  C   -0.093807
    38  C    0.110294
    39  O   -0.202377
    40  C   -0.040394
    41  C    0.169855
    42  O   -0.219324
    43  O   -0.309162
    44  C    0.286942
    45  C    0.292502
    46  C   -0.106216
    47  C   -0.207875
    48  C    0.048363
    49  C    0.171580
    50  C   -0.007821
    51  C    0.018213
    52  C   -0.099777
    53  C    0.097893
    54  C   -0.012304
    55  C    0.069366
    56  C    0.007049
    57  C   -0.144654
    58  C   -0.037045
    59  C    0.009710
    60  C    0.110375
    61  C    0.008252
    62  C   -0.090171
    63  C   -0.063204
    64  C    0.020320
    65  H    0.018486
    66  H   -0.002481
    67  H   -0.106653
    68  H    0.017395
    69  H    0.006193
    70  H    0.009819
    71  H   -0.004678
    72  H    0.005540
    73  H    0.035121
    74  H    0.011921
    75  H    0.016044
    76  H    0.055954
    77  H    0.028989
    78  H    0.027503
    79  H    0.008826
    80  H    0.029831
    81  H   -0.167624
    82  H    0.028528
    83  H    0.030482
    84  H    0.034930
    85  H    0.031308
    86  H   -0.020082
    87  H    0.009463
    88  H    0.005877
    89  H    0.022690
    90  H    0.007387
    91  H    0.041816
    92  H    0.076176
    93  H    0.068690
    94  H    0.041084
    95  H   -0.013487
    96  H   -0.011721
    97  H    0.082735
    98  H    0.006299
    99  H    0.017671
   100  H    0.048983
   101  H    0.031480
   102  H    0.097260
   103  H   -0.015164
   104  H   -0.049272
   105  H   -0.024429
   106  H   -0.004163
   107  H   -0.023697
   108  H    0.006371
   109  H    0.020176
   110  H    0.008122
   111  H    0.028897
   112  H   -0.054743
   113  H    0.007268
   114  H   -0.013708
   115  H   -0.021499
   116  H    0.013640
   117  H   -0.033010
   118  H    0.022292
   119  H    0.016780
   120  H    0.003008
   121  H    0.011715
   122  H    0.021505
   123  H    0.026965
   124  H   -0.027933
   125  H   -0.011191
   126  H   -0.037149
   127  H    0.017086
   128  H    0.012903
   129  H    0.001961
   130  H   -0.016281
   131  H    0.008709
   132  H    0.035899
   133  H    0.042314
   134  H    0.046973
   135  H   -0.011637
   136  H    0.015779
   137  H    0.165595
   138  H    0.165129
 Sum of Mulliken charges =  -0.00000

 Dipole moment (field-independent basis, Debye):
    X=              3.7257    Y=              4.5712    Z=              1.0079  Tot=              5.9827
 Quadrupole moment (field-independent basis, Debye-Ang):
   XX=           -365.4394   YY=           -387.6791   ZZ=           -395.7478
   XY=            -36.4405   XZ=              5.2172   YZ=             -1.6481

 Normal termination of Gaussian 16 at Fri Aug  9 05:08:51 2019.
