 Gaussian 16, Revision A.03,
 Gaussian 16:  ES64L-G16RevA.03 25-Dec-2016

 --------------------------
 # td=(NStates=1) B3LYP/SVP
 --------------------------

 --
 TD
 --
 Symbolic Z-matrix:
 Charge =  0 Multiplicity = 1

                         Standard orientation:
 ---------------------------------------------------------------------
 Center     Atomic      Atomic             Coordinates (Angstroms)
 Number     Number       Type             X           Y           Z
 ---------------------------------------------------------------------
      1          6           0       -5.125416   -1.954626    0.483690
      2          6           0       -4.718563    2.722074    1.465944
      3          6           0       -9.250236    3.324568   -0.359496
      4          6           0       -9.790073   -1.349623   -1.033161
      5          7           0       -5.172690    0.415208    0.869060
      6          6           0       -4.503134   -0.747351    0.856011
      7          6           0       -3.036455   -0.624363    1.430938
      8          6           0       -3.094573    0.810231    1.981809
      9          6           0       -4.362157    1.396669    1.409992
     10          6           0       -2.994468    0.888858    3.455739
     11          6           0       -2.074311   -0.643870    0.254160
     12          6           0       -0.614388   -0.784833    0.581691
     13          6           0        0.378041   -1.090688   -0.525242
     14          8           0        0.094559   -1.621390   -1.652220
     15          8           0        1.610717   -0.814907   -0.208007
     16          7           0       -7.030748    2.717431    0.497621
     17          6           0       -5.944465    3.318223    1.141052
     18          6           0       -6.261686    4.734755    1.167933
     19          6           0       -7.546709    4.938896    0.626690
     20          6           0       -8.014262    3.578789    0.188667
     21          6           0       -5.309592    5.749512    1.834213
     22          6           0       -8.236515    6.215206    0.478260
     23          6           0       -9.129027    6.549261   -0.465521
     24          7           0       -9.105775    0.928940   -0.683997
     25          6           0       -9.748965    2.035360   -0.685175
     26          6           0      -11.135565    1.900032   -1.115305
     27          6           0      -11.283991    0.642352   -1.387391
     28          6           0       -9.983441   -0.021205   -0.961445
     29          6           0      -12.084289    3.061722   -1.300638
     30          6           0      -12.492736   -0.147256   -1.940832
     31          6           0      -12.378444   -0.407859   -3.433991
     32          7           0       -7.439388   -1.209493   -0.188237
     33          6           0       -8.512946   -1.996862   -0.669202
     34          6           0       -8.189549   -3.427664   -0.615320
     35          6           0       -6.864999   -3.352971   -0.144910
     36          6           0       -6.466688   -2.014700    0.074589
     37          6           0       -8.977935   -4.621697   -1.056509
     38          6           0       -5.769939   -4.319536    0.035859
     39          8           0       -5.797670   -5.564497   -0.032882
     40          6           0       -4.475128   -3.333388    0.461135
     41          6           0       -4.056878   -3.782756    1.806833
     42          8           0       -4.443362   -3.403634    2.969244
     43          8           0       -3.239664   -4.845779    1.697567
     44          6           0       -2.647690   -5.346128    2.894598
     45          6           0        2.626655   -1.010446   -1.202122
     46          6           0        3.982350   -0.774953   -0.498282
     47          6           0        4.898699    0.012230   -1.054255
     48          6           0        4.794393    0.788619   -2.352964
     49          6           0        6.206310    0.194297   -0.313681
     50          6           0        7.473974   -0.423297   -1.045672
     51          6           0        8.723313   -0.062590   -0.314763
     52          6           0        9.988784   -0.692950   -1.007211
     53          6           0       10.148111   -2.235778   -0.951776
     54          6           0       11.186516   -0.162986   -0.115054
     55          6           0       12.658696   -0.459687   -0.724880
     56          6           0       13.749702    0.047052    0.041329
     57          6           0       15.238660   -0.150525   -0.568290
     58          6           0       15.495926   -1.578995   -0.829987
     59          6           0       16.275998    0.607043    0.518792
     60          6           0       17.657147    0.679558   -0.100024
     61          6           0       18.701367    1.339857    0.841695
     62          6           0       20.105037    1.500053    0.248327
     63          6           0       20.148531    2.350866   -1.163232
     64          6           0       21.018684    2.340079    1.120270
     65          1           0       -4.076308    3.395838    1.823510
     66          1           0      -10.009607    4.176905   -0.394569
     67          1           0      -10.545969   -2.067134   -1.619818
     68          1           0       -2.935964   -1.350769    2.131780
     69          1           0       -2.089447    1.493959    1.663490
     70          1           0       -2.143198    0.309182    3.736471
     71          1           0       -2.963654    1.884780    3.624194
     72          1           0       -3.981918    0.400904    3.737238
     73          1           0       -2.215766   -1.291849   -0.460276
     74          1           0       -2.229505    0.207921   -0.480111
     75          1           0       -0.172803    0.049329    1.135507
     76          1           0       -0.511234   -1.592010    1.293247
     77          1           0       -4.115923    5.784903    1.281679
     78          1           0       -5.563924    6.878896    1.530835
     79          1           0       -5.143608    5.538881    2.961857
     80          1           0       -8.214759    6.686085    1.374785
     81          1           0       -9.413784    6.077726   -1.505109
     82          1           0       -9.614172    7.456449   -0.338877
     83          1           0      -12.316400    3.555675   -0.384339
     84          1           0      -11.717722    3.725721   -2.192534
     85          1           0      -12.917151    2.569556   -1.796403
     86          1           0      -12.652917   -1.100168   -1.302491
     87          1           0      -13.452969    0.431521   -1.635204
     88          1           0      -11.936786    0.517905   -3.934513
     89          1           0      -11.527213   -1.179455   -3.466575
     90          1           0      -13.488850   -0.743125   -3.743612
     91          1           0       -9.918954   -4.909384   -0.562088
     92          1           0       -9.155421   -4.605613   -2.193778
     93          1           0       -8.202936   -5.380627   -0.942091
     94          1           0       -3.766573   -3.419942   -0.335157
     95          1           0       -1.891740   -6.186487    2.638578
     96          1           0       -2.168448   -4.563844    3.543305
     97          1           0       -3.257777   -5.940428    3.878111
     98          1           0        2.457608   -2.158516   -1.482239
     99          1           0        2.463855   -0.395399   -2.071968
    100          1           0        4.053311   -1.229807    0.477458
    101          1           0        5.139716    1.966150   -2.152472
    102          1           0        5.437996    0.364466   -3.102942
    103          1           0        3.833853    1.002747   -2.895343
    104          1           0        6.445185    1.175828   -0.144202
    105          1           0        6.255930   -0.344564    0.577315
    106          1           0        7.424875   -1.395263   -1.133044
    107          1           0        7.492778   -0.133184   -2.142736
    108          1           0        8.879101    1.105007   -0.292084
    109          1           0        8.785258   -0.359361    0.679983
    110          1           0       10.119539   -0.490416   -2.101837
    111          1           0        9.416775   -2.769606   -1.685399
    112          1           0       11.096154   -2.701157   -1.388915
    113          1           0        9.993508   -2.725790    0.109297
    114          1           0       11.178412    0.876680    0.204108
    115          1           0       11.043437   -0.729915    0.773386
    116          1           0       12.700686   -1.572358   -0.976199
    117          1           0       12.608252    0.004866   -1.631443
    118          1           0       13.552088    0.971980    0.202514
    119          1           0       13.946659   -0.387856    0.904334
    120          1           0       15.207105    0.544383   -1.404339
    121          1           0       14.828095   -2.215091   -1.179803
    122          1           0       16.622401   -1.532991   -1.293823
    123          1           0       15.617387   -1.905548    0.176034
    124          1           0       15.819094    1.556484    0.907767
    125          1           0       16.401250   -0.007227    1.462448
    126          1           0       17.822738   -0.397411   -0.351383
    127          1           0       17.514345    0.988627   -1.025949
    128          1           0       18.207640    2.327755    1.047008
    129          1           0       18.833657    0.866551    1.680261
    130          1           0       20.617141    0.600599   -0.122494
    131          1           0       19.930595    3.525149   -1.141236
    132          1           0       21.089981    2.314569   -1.597835
    133          1           0       19.437546    2.000126   -1.674930
    134          1           0       21.196766    1.923980    2.131753
    135          1           0       22.013692    2.389062    0.664545
    136          1           0       20.618427    3.398982    1.262066
    137          1           0       -7.245513    1.667026    0.479685
    138          1           0       -7.390429   -0.133271   -0.248464
 ---------------------------------------------------------------------

 SCF Done:  E(RB3LYP) =  -2733.06142851     A.U. after   17 cycles

 Excitation energies and oscillator strengths:

 Excited State   1:      Singlet-A      2.0768 eV  596.99 nm  f=0.2608  <S**2>=0.000
     235 -> 237       -0.15504
     235 -> 238       -0.25057
     236 -> 237        0.63599
 This state for optimization and/or second-order correction.
 Total Energy, E(TD-HF/TD-DFT) =  -2732.98510679
 Copying the excited state density for this state as the 1-particle RhoCI density.

 The electronic state is 1-A.
 Alpha  occ. eigenvalues --  -19.18747 -19.18321 -19.13080 -19.11810 -19.10960
 Alpha  occ. eigenvalues --  -14.37825 -14.37531 -14.32500 -14.30202 -10.31979
 Alpha  occ. eigenvalues --  -10.31373 -10.28791 -10.26313 -10.25257 -10.24309
 Alpha  occ. eigenvalues --  -10.24006 -10.23864 -10.23527 -10.22893 -10.22874
 Alpha  occ. eigenvalues --  -10.22848 -10.21990 -10.21802 -10.21331 -10.21047
 Alpha  occ. eigenvalues --  -10.21043 -10.21035 -10.20959 -10.20865 -10.20676
 Alpha  occ. eigenvalues --  -10.20478 -10.20443 -10.20343 -10.20326 -10.20273
 Alpha  occ. eigenvalues --  -10.20210 -10.19982 -10.19961 -10.19873 -10.19726
 Alpha  occ. eigenvalues --  -10.19723 -10.19627 -10.19454 -10.19200 -10.18995
 Alpha  occ. eigenvalues --  -10.18943 -10.18942 -10.18835 -10.18782 -10.18780
 Alpha  occ. eigenvalues --  -10.18253 -10.18045 -10.17864 -10.17695 -10.17692
 Alpha  occ. eigenvalues --  -10.17650 -10.17599 -10.17555 -10.17495 -10.17455
 Alpha  occ. eigenvalues --  -10.16968 -10.16766 -10.16204 -10.14435  -1.10392
 Alpha  occ. eigenvalues --   -1.09056  -1.01209  -0.99491  -0.98154  -0.97119
 Alpha  occ. eigenvalues --   -0.96911  -0.96829  -0.94164  -0.84424  -0.82813
 Alpha  occ. eigenvalues --   -0.82065  -0.81826  -0.81572  -0.81488  -0.80668
 Alpha  occ. eigenvalues --   -0.80275  -0.80222  -0.79762  -0.79548  -0.78470
 Alpha  occ. eigenvalues --   -0.77041  -0.76392  -0.75739  -0.75447  -0.74773
 Alpha  occ. eigenvalues --   -0.74001  -0.73628  -0.72808  -0.72215  -0.70700
 Alpha  occ. eigenvalues --   -0.69877  -0.68882  -0.68463  -0.68253  -0.68039
 Alpha  occ. eigenvalues --   -0.67929  -0.67048  -0.66520  -0.66225  -0.65937
 Alpha  occ. eigenvalues --   -0.64020  -0.63266  -0.62822  -0.62031  -0.61915
 Alpha  occ. eigenvalues --   -0.60640  -0.59858  -0.58627  -0.58228  -0.57870
 Alpha  occ. eigenvalues --   -0.57420  -0.56651  -0.56414  -0.56188  -0.55927
 Alpha  occ. eigenvalues --   -0.55630  -0.55297  -0.54958  -0.53930  -0.53771
 Alpha  occ. eigenvalues --   -0.53331  -0.51892  -0.51759  -0.51412  -0.50661
 Alpha  occ. eigenvalues --   -0.50039  -0.49613  -0.49027  -0.48668  -0.48377
 Alpha  occ. eigenvalues --   -0.48124  -0.47931  -0.47740  -0.47498  -0.47217
 Alpha  occ. eigenvalues --   -0.46767  -0.46655  -0.46385  -0.45885  -0.45517
 Alpha  occ. eigenvalues --   -0.45498  -0.45277  -0.45097  -0.44814  -0.44663
 Alpha  occ. eigenvalues --   -0.44526  -0.44438  -0.44158  -0.43886  -0.43808
 Alpha  occ. eigenvalues --   -0.43660  -0.43488  -0.43231  -0.43082  -0.42645
 Alpha  occ. eigenvalues --   -0.42507  -0.42464  -0.42214  -0.42024  -0.41611
 Alpha  occ. eigenvalues --   -0.41446  -0.41293  -0.41128  -0.40911  -0.40615
 Alpha  occ. eigenvalues --   -0.40402  -0.40261  -0.39766  -0.39577  -0.39358
 Alpha  occ. eigenvalues --   -0.39289  -0.38903  -0.38820  -0.38784  -0.38611
 Alpha  occ. eigenvalues --   -0.38422  -0.38176  -0.38043  -0.37906  -0.37770
 Alpha  occ. eigenvalues --   -0.37637  -0.37341  -0.37070  -0.37007  -0.36723
 Alpha  occ. eigenvalues --   -0.36673  -0.36465  -0.36073  -0.35926  -0.35845
 Alpha  occ. eigenvalues --   -0.35681  -0.35592  -0.35474  -0.35301  -0.34870
 Alpha  occ. eigenvalues --   -0.34657  -0.34574  -0.34101  -0.34011  -0.33700
 Alpha  occ. eigenvalues --   -0.33379  -0.33050  -0.32864  -0.32737  -0.32576
 Alpha  occ. eigenvalues --   -0.32510  -0.32378  -0.32181  -0.31919  -0.31443
 Alpha  occ. eigenvalues --   -0.31401  -0.30569  -0.30031  -0.29742  -0.29616
 Alpha  occ. eigenvalues --   -0.29334  -0.29154  -0.28313  -0.27616  -0.27215
 Alpha  occ. eigenvalues --   -0.27180  -0.27097  -0.26745  -0.26644  -0.26416
 Alpha  occ. eigenvalues --   -0.25031  -0.24884  -0.24620  -0.24519  -0.20188
 Alpha  occ. eigenvalues --   -0.18821
 Alpha virt. eigenvalues --   -0.10491  -0.07042  -0.04669  -0.02643  -0.01124
 Alpha virt. eigenvalues --   -0.00117   0.00285   0.00580   0.02075   0.03333
 Alpha virt. eigenvalues --    0.03759   0.04278   0.04382   0.04865   0.05013

 Mulliken charges:
               1
     1  C   -0.059776
     2  C    0.002919
     3  C   -0.157291
     4  C   -0.155085
     5  N   -0.185714
     6  C   -0.115468
     7  C    0.093496
     8  C   -0.136969
     9  C    0.049573
    10  C    0.161461
    11  C    0.128471
    12  C    0.097049
    13  C    0.153671
    14  O   -0.313149
    15  O   -0.268477
    16  N   -0.076238
    17  C    0.093396
    18  C   -0.092664
    19  C   -0.008064
    20  C    0.106389
    21  C   -0.054038
    22  C   -0.002169
    23  C   -0.033768
    24  N   -0.134834
    25  C    0.026697
    26  C   -0.184423
    27  C   -0.100244
    28  C    0.096665
    29  C    0.143233
    30  C   -0.014330
    31  C   -0.001073
    32  N   -0.010755
    33  C    0.017627
    34  C   -0.112223
    35  C   -0.045555
    36  C    0.113512
    37  C    0.075051
    38  C    0.081455
    39  O   -0.193702
    40  C   -0.002775
    41  C    0.245914
    42  O   -0.294721
    43  O   -0.261625
    44  C    0.106135
    45  C    0.239327
    46  C   -0.079343
    47  C   -0.078671
    48  C    0.010950
    49  C    0.158537
    50  C    0.074685
    51  C    0.053151
    52  C   -0.081106
    53  C   -0.056795
    54  C    0.017118
    55  C    0.095664
    56  C    0.164726
    57  C   -0.128683
    58  C    0.120025
    59  C   -0.052515
    60  C    0.092175
    61  C    0.178678
    62  C   -0.126476
    63  C    0.080014
    64  C    0.046993
    65  H   -0.095890
    66  H    0.006660
    67  H    0.036702
    68  H   -0.036614
    69  H    0.009120
    70  H    0.011337
    71  H   -0.020405
    72  H    0.024621
    73  H   -0.060090
    74  H   -0.002567
    75  H    0.005212
    76  H    0.012220
    77  H    0.042930
    78  H    0.047848
    79  H    0.066657
    80  H   -0.008596
    81  H    0.058010
    82  H    0.003291
    83  H    0.033266
    84  H    0.028074
    85  H   -0.006867
    86  H    0.018561
    87  H    0.008176
    88  H    0.031540
    89  H    0.020466
    90  H    0.048595
    91  H    0.043209
    92  H    0.034319
    93  H    0.032583
    94  H    0.054062
    95  H    0.047342
    96  H    0.034732
    97  H    0.041768
    98  H    0.042260
    99  H    0.013365
   100  H   -0.010214
   101  H    0.030982
   102  H    0.032765
   103  H    0.026505
   104  H   -0.028162
   105  H   -0.029468
   106  H   -0.060794
   107  H   -0.011912
   108  H    0.007347
   109  H   -0.026219
   110  H   -0.000971
   111  H    0.009229
   112  H    0.025798
   113  H    0.022871
   114  H   -0.016359
   115  H   -0.025578
   116  H   -0.012793
   117  H   -0.046193
   118  H   -0.077558
   119  H   -0.064385
   120  H   -0.013838
   121  H   -0.017545
   122  H    0.028617
   123  H   -0.018003
   124  H   -0.000892
   125  H   -0.008520
   126  H   -0.027212
   127  H   -0.052663
   128  H   -0.003112
   129  H   -0.051838
   130  H    0.001592
   131  H   -0.000047
   132  H   -0.007354
   133  H   -0.064787
   134  H   -0.006891
   135  H   -0.002171
   136  H    0.012575
   137  H    0.172276
   138  H    0.182985
 Sum of Mulliken charges =  -0.00000

 Dipole moment (field-independent basis, Debye):
    X=              1.6660    Y=              5.5028    Z=              0.2287  Tot=              5.7541
 Quadrupole moment (field-independent basis, Debye-Ang):
   XX=           -346.5623   YY=           -390.2574   ZZ=           -394.7251
   XY=            -38.9906   XZ=             13.9110   YZ=              2.1963

 Normal termination of Gaussian 16 at Tue Aug 20 12:10:37 2019.
