 Gaussian 16, Revision A.03,
 Gaussian 16:  ES64L-G16RevA.03 25-Dec-2016

 --------------------------
 # td=(NStates=1) B3LYP/SVP
 --------------------------

 --
 TD
 --
 Symbolic Z-matrix:
 Charge =  0 Multiplicity = 1

                         Standard orientation:
 ---------------------------------------------------------------------
 Center     Atomic      Atomic             Coordinates (Angstroms)
 Number     Number       Type             X           Y           Z
 ---------------------------------------------------------------------
      1          6           0       -5.254065   -1.921533    0.340646
      2          6           0       -4.723319    2.747555    1.260997
      3          6           0       -9.367210    3.389669   -0.209039
      4          6           0       -9.982285   -1.406370   -0.953106
      5          7           0       -5.168351    0.560666    0.576636
      6          6           0       -4.590234   -0.670142    0.636985
      7          6           0       -3.160222   -0.516444    1.169416
      8          6           0       -3.113635    0.892333    1.680243
      9          6           0       -4.467347    1.491527    1.127174
     10          6           0       -2.998973    0.875577    3.304944
     11          6           0       -2.164899   -0.738897   -0.011863
     12          6           0       -0.678319   -0.884348    0.641264
     13          6           0        0.384015   -1.248589   -0.398878
     14          8           0        0.179007   -1.610129   -1.614332
     15          8           0        1.660672   -1.014537   -0.040888
     16          7           0       -7.011789    2.825577    0.465054
     17          6           0       -5.888786    3.403479    0.876339
     18          6           0       -6.174789    4.748862    1.032784
     19          6           0       -7.507815    5.013672    0.539376
     20          6           0       -8.002915    3.717841    0.147957
     21          6           0       -5.173504    5.824637    1.400221
     22          6           0       -8.123497    6.314645    0.435885
     23          6           0       -9.059977    6.725879   -0.482385
     24          7           0       -9.264970    0.911750   -0.565204
     25          6           0       -9.920524    2.161410   -0.514636
     26          6           0      -11.300083    1.909973   -0.836632
     27          6           0      -11.408264    0.596100   -1.093784
     28          6           0      -10.135132   -0.042343   -0.863246
     29          6           0      -12.185768    3.147109   -1.127175
     30          6           0      -12.721099   -0.138726   -1.501517
     31          6           0      -12.821569   -0.392772   -2.922626
     32          7           0       -7.603234   -1.271668   -0.208412
     33          6           0       -8.690480   -1.931340   -0.544758
     34          6           0       -8.390268   -3.406963   -0.524659
     35          6           0       -6.971673   -3.352505   -0.186562
     36          6           0       -6.504868   -2.004832   -0.007287
     37          6           0       -9.339042   -4.560011   -0.802221
     38          6           0       -5.886647   -4.314685   -0.013282
     39          8           0       -5.772260   -5.577087   -0.062903
     40          6           0       -4.565851   -3.364840    0.332530
     41          6           0       -3.970614   -3.816348    1.634106
     42          8           0       -4.226311   -3.384148    2.769695
     43          8           0       -3.216167   -4.894004    1.357974
     44          6           0       -2.503878   -5.460369    2.486723
     45          6           0        2.720900   -1.093819   -1.105644
     46          6           0        4.015955   -0.735419   -0.440344
     47          6           0        5.010733   -0.162533   -1.014944
     48          6           0        4.935306    0.427507   -2.439143
     49          6           0        6.372959    0.118917   -0.324835
     50          6           0        7.615980   -0.560179   -0.946487
     51          6           0        8.920847   -0.179819   -0.187338
     52          6           0       10.180408   -0.762158   -0.634948
     53          6           0       10.202761   -2.345498   -0.710451
     54          6           0       11.474995   -0.230478    0.063146
     55          6           0       12.789997   -0.475468   -0.554557
     56          6           0       13.985431    0.056026    0.180063
     57          6           0       15.358510   -0.201815   -0.457403
     58          6           0       15.649113   -1.635316   -0.414126
     59          6           0       16.404881    0.582529    0.373541
     60          6           0       17.812171    0.834802   -0.328003
     61          6           0       18.690527    1.682294    0.543866
     62          6           0       20.163108    1.659932    0.116991
     63          6           0       20.395902    2.418167   -1.215195
     64          6           0       21.007294    2.437030    1.179385
     65          1           0       -4.028554    3.351492    1.705463
     66          1           0      -10.052448    4.291145   -0.357534
     67          1           0      -10.695341   -2.305067   -1.128232
     68          1           0       -2.991188   -1.208447    2.054099
     69          1           0       -2.213240    1.447262    1.336913
     70          1           0       -2.247898    0.410044    3.439497
     71          1           0       -2.911235    1.936511    3.759757
     72          1           0       -3.921205    0.627862    3.617768
     73          1           0       -2.527657   -1.747894   -0.521226
     74          1           0       -2.178045    0.028478   -0.854395
     75          1           0       -0.513584    0.009812    1.288323
     76          1           0       -0.594778   -1.758688    1.361204
     77          1           0       -4.171763    5.829561    0.731265
     78          1           0       -5.610754    6.821884    1.643504
     79          1           0       -4.795945    5.567832    2.378529
     80          1           0       -7.749756    7.030132    1.236207
     81          1           0       -9.320179    6.337454   -1.406411
     82          1           0       -9.385235    7.751002   -0.345435
     83          1           0      -12.058182    4.100509   -0.379625
     84          1           0      -12.196935    3.277695   -2.536050
     85          1           0      -13.401060    2.558673   -0.829228
     86          1           0      -12.722408   -1.101651   -0.719158
     87          1           0      -13.485196    0.372100   -1.037799
     88          1           0      -12.736532    0.443097   -3.497160
     89          1           0      -12.005766   -1.175905   -3.329795
     90          1           0      -13.861996   -0.994354   -3.103314
     91          1           0      -10.340227   -4.455279   -0.089386
     92          1           0       -9.712891   -4.458093   -1.854495
     93          1           0       -8.929272   -5.587526   -0.789917
     94          1           0       -3.624331   -3.370613   -0.426498
     95          1           0       -1.873749   -6.226537    1.883719
     96          1           0       -1.887634   -4.781570    3.104847
     97          1           0       -3.281617   -6.003023    3.355525
     98          1           0        2.857987   -2.329015   -1.181876
     99          1           0        2.252190   -0.684959   -2.070962
    100          1           0        4.006735   -1.226924    0.547437
    101          1           0        5.302868    1.424732   -2.442130
    102          1           0        5.455937   -0.262356   -3.091420
    103          1           0        3.943777    0.451840   -2.796260
    104          1           0        6.540132    1.233380   -0.164695
    105          1           0        6.149985   -0.358814    0.661094
    106          1           0        7.537493   -1.728402   -0.959248
    107          1           0        7.339822   -0.110103   -2.075103
    108          1           0        8.896927    0.834260   -0.147809
    109          1           0        8.738166   -0.904014    0.815745
    110          1           0       10.360624   -0.337037   -1.851394
    111          1           0        9.386650   -2.522931   -1.490721
    112          1           0       11.233534   -2.690371   -1.132041
    113          1           0        9.949544   -2.821387    0.157540
    114          1           0       11.394701    0.932859    0.033614
    115          1           0       11.307969   -0.552478    1.132288
    116          1           0       12.825585   -1.538998   -0.742521
    117          1           0       12.818796   -0.220793   -1.550395
    118          1           0       13.715986    1.055548    0.454484
    119          1           0       13.990010   -0.494836    1.154705
    120          1           0       15.437735    0.199231   -1.308721
    121          1           0       14.812131   -2.173659   -0.972935
    122          1           0       16.662718   -2.064769   -0.640470
    123          1           0       15.440508   -2.010699    0.769244
    124          1           0       15.941069    1.264728    0.618650
    125          1           0       16.375963    0.199658    1.352739
    126          1           0       18.332502   -0.065706   -0.485772
    127          1           0       17.686766    1.366983   -1.262917
    128          1           0       18.322849    2.713673    0.744341
    129          1           0       18.809321    1.111356    1.532961
    130          1           0       20.467341    0.787998   -0.113898
    131          1           0       19.943287    3.389278   -1.347341
    132          1           0       21.482812    2.459279   -1.618270
    133          1           0       19.860915    1.859422   -2.027686
    134          1           0       20.650898    1.815775    2.036183
    135          1           0       22.115261    2.692778    0.960666
    136          1           0       20.744488    3.488399    1.251752
    137          1           0       -7.295796    1.834579    0.249693
    138          1           0       -7.496163   -0.117916   -0.267472
 ---------------------------------------------------------------------

 SCF Done:  E(RB3LYP) =  -2732.87646151     A.U. after   17 cycles

 Excitation energies and oscillator strengths:

 Excited State   1:      Singlet-A      2.0462 eV  605.92 nm  f=0.2540  <S**2>=0.000
     235 -> 238        0.26151
     236 -> 237        0.65167
 This state for optimization and/or second-order correction.
 Total Energy, E(TD-HF/TD-DFT) =  -2732.80126397
 Copying the excited state density for this state as the 1-particle RhoCI density.

 The electronic state is 1-A.
 Alpha  occ. eigenvalues --  -19.18663 -19.17559 -19.12799 -19.12531 -19.11377
 Alpha  occ. eigenvalues --  -14.38134 -14.37145 -14.32280 -14.30109 -10.32012
 Alpha  occ. eigenvalues --  -10.31802 -10.29038 -10.26731 -10.26689 -10.25016
 Alpha  occ. eigenvalues --  -10.24789 -10.24082 -10.23656 -10.23650 -10.23323
 Alpha  occ. eigenvalues --  -10.23058 -10.22887 -10.22520 -10.22436 -10.21817
 Alpha  occ. eigenvalues --  -10.21521 -10.21403 -10.21344 -10.21293 -10.21241
 Alpha  occ. eigenvalues --  -10.21170 -10.21166 -10.20898 -10.20705 -10.20635
 Alpha  occ. eigenvalues --  -10.20615 -10.20090 -10.20066 -10.19859 -10.19793
 Alpha  occ. eigenvalues --  -10.19766 -10.19677 -10.19669 -10.19440 -10.19392
 Alpha  occ. eigenvalues --  -10.19114 -10.18930 -10.18899 -10.18817 -10.18672
 Alpha  occ. eigenvalues --  -10.18521 -10.18358 -10.18273 -10.18060 -10.17996
 Alpha  occ. eigenvalues --  -10.17887 -10.17792 -10.17689 -10.17598 -10.17486
 Alpha  occ. eigenvalues --  -10.17041 -10.16836 -10.16657 -10.14867  -1.09207
 Alpha  occ. eigenvalues --   -1.07445  -1.00544  -0.99613  -0.99538  -0.99387
 Alpha  occ. eigenvalues --   -0.96231  -0.95760  -0.93948  -0.85420  -0.83415
 Alpha  occ. eigenvalues --   -0.82783  -0.81916  -0.81585  -0.81134  -0.80777
 Alpha  occ. eigenvalues --   -0.80664  -0.79906  -0.79452  -0.79291  -0.77726
 Alpha  occ. eigenvalues --   -0.76861  -0.76316  -0.75792  -0.74838  -0.74256
 Alpha  occ. eigenvalues --   -0.74006  -0.73555  -0.72961  -0.72032  -0.70967
 Alpha  occ. eigenvalues --   -0.70484  -0.69417  -0.68448  -0.68408  -0.68199
 Alpha  occ. eigenvalues --   -0.66946  -0.66794  -0.66688  -0.66292  -0.65836
 Alpha  occ. eigenvalues --   -0.64162  -0.63190  -0.62673  -0.62130  -0.61463
 Alpha  occ. eigenvalues --   -0.61194  -0.60157  -0.59258  -0.58378  -0.58246
 Alpha  occ. eigenvalues --   -0.57724  -0.57282  -0.56920  -0.56664  -0.55863
 Alpha  occ. eigenvalues --   -0.55534  -0.54734  -0.53685  -0.53435  -0.53239
 Alpha  occ. eigenvalues --   -0.52581  -0.52014  -0.51469  -0.50833  -0.50183
 Alpha  occ. eigenvalues --   -0.49432  -0.49209  -0.48733  -0.48567  -0.48380
 Alpha  occ. eigenvalues --   -0.48096  -0.47707  -0.47469  -0.47043  -0.46923
 Alpha  occ. eigenvalues --   -0.46692  -0.46297  -0.46103  -0.45885  -0.45752
 Alpha  occ. eigenvalues --   -0.45675  -0.45117  -0.45074  -0.44960  -0.44717
 Alpha  occ. eigenvalues --   -0.44282  -0.44157  -0.44036  -0.43940  -0.43870
 Alpha  occ. eigenvalues --   -0.43560  -0.43365  -0.43181  -0.43107  -0.42799
 Alpha  occ. eigenvalues --   -0.42395  -0.42370  -0.42300  -0.41861  -0.41719
 Alpha  occ. eigenvalues --   -0.41432  -0.41293  -0.41016  -0.40661  -0.40635
 Alpha  occ. eigenvalues --   -0.40567  -0.40293  -0.40127  -0.39740  -0.39621
 Alpha  occ. eigenvalues --   -0.39505  -0.39331  -0.39035  -0.38698  -0.38476
 Alpha  occ. eigenvalues --   -0.38224  -0.37984  -0.37853  -0.37622  -0.37481
 Alpha  occ. eigenvalues --   -0.37201  -0.37120  -0.37053  -0.36985  -0.36685
 Alpha  occ. eigenvalues --   -0.36488  -0.36340  -0.36235  -0.36057  -0.35922
 Alpha  occ. eigenvalues --   -0.35861  -0.35805  -0.35523  -0.35309  -0.35100
 Alpha  occ. eigenvalues --   -0.34815  -0.34530  -0.34455  -0.34034  -0.33582
 Alpha  occ. eigenvalues --   -0.33350  -0.33201  -0.32948  -0.32867  -0.32562
 Alpha  occ. eigenvalues --   -0.32273  -0.31896  -0.31650  -0.31268  -0.31105
 Alpha  occ. eigenvalues --   -0.30680  -0.30368  -0.30348  -0.29881  -0.29484
 Alpha  occ. eigenvalues --   -0.29395  -0.28865  -0.28764  -0.28154  -0.27812
 Alpha  occ. eigenvalues --   -0.27438  -0.26781  -0.26417  -0.26261  -0.25580
 Alpha  occ. eigenvalues --   -0.25528  -0.24957  -0.23201  -0.22935  -0.20365
 Alpha  occ. eigenvalues --   -0.19505
 Alpha virt. eigenvalues --   -0.11152  -0.07808  -0.05623  -0.02457  -0.01277
 Alpha virt. eigenvalues --   -0.01092  -0.00022   0.01201   0.01433   0.02355
 Alpha virt. eigenvalues --    0.03431   0.03647   0.03800   0.04159   0.04547

 Mulliken charges:
               1
     1  C   -0.032578
     2  C   -0.041960
     3  C   -0.080090
     4  C   -0.139610
     5  N   -0.122612
     6  C   -0.082433
     7  C   -0.042230
     8  C   -0.104269
     9  C    0.010910
    10  C    0.203679
    11  C    0.011316
    12  C    0.015649
    13  C    0.219502
    14  O   -0.314247
    15  O   -0.331125
    16  N   -0.034658
    17  C    0.126150
    18  C   -0.156969
    19  C    0.034605
    20  C    0.016106
    21  C    0.086134
    22  C   -0.069332
    23  C   -0.011832
    24  N   -0.272129
    25  C    0.087468
    26  C   -0.072378
    27  C   -0.144550
    28  C    0.161866
    29  C   -0.111567
    30  C    0.089785
    31  C    0.033316
    32  N   -0.032316
    33  C   -0.010804
    34  C   -0.096547
    35  C   -0.053832
    36  C    0.150389
    37  C    0.038683
    38  C    0.122188
    39  O   -0.210526
    40  C   -0.130954
    41  C    0.220971
    42  O   -0.257049
    43  O   -0.279980
    44  C    0.106926
    45  C    0.169671
    46  C   -0.064865
    47  C   -0.150466
    48  C    0.145045
    49  C    0.059149
    50  C   -0.083168
    51  C    0.112872
    52  C   -0.145233
    53  C    0.021594
    54  C    0.013933
    55  C    0.131145
    56  C    0.013420
    57  C    0.037232
    58  C   -0.009719
    59  C    0.260727
    60  C    0.130992
    61  C   -0.026476
    62  C    0.005408
    63  C   -0.023989
    64  C    0.041097
    65  H   -0.076904
    66  H    0.001786
    67  H    0.022582
    68  H    0.032671
    69  H   -0.000649
    70  H   -0.069296
    71  H    0.002232
    72  H   -0.002593
    73  H    0.029544
    74  H    0.040342
    75  H    0.040086
    76  H    0.040613
    77  H    0.050980
    78  H    0.012530
    79  H    0.003272
    80  H    0.019095
    81  H    0.016056
    82  H    0.017309
    83  H    0.085718
    84  H    0.072367
    85  H    0.032994
    86  H    0.004148
    87  H   -0.031557
    88  H    0.000305
    89  H    0.023966
    90  H    0.023332
    91  H    0.061464
    92  H    0.041648
    93  H    0.051394
    94  H    0.098951
    95  H    0.059507
    96  H    0.043699
    97  H    0.062042
    98  H    0.047996
    99  H    0.074071
   100  H   -0.000037
   101  H    0.011267
   102  H    0.030069
   103  H   -0.024147
   104  H    0.023125
   105  H   -0.015977
   106  H    0.022131
   107  H    0.012206
   108  H   -0.030976
   109  H    0.011386
   110  H   -0.015981
   111  H    0.028451
   112  H    0.034069
   113  H   -0.005491
   114  H   -0.010378
   115  H   -0.006292
   116  H   -0.044040
   117  H   -0.051963
   118  H   -0.019847
   119  H   -0.015681
   120  H   -0.088317
   121  H    0.011762
   122  H    0.023770
   123  H    0.002279
   124  H   -0.188105
   125  H   -0.066314
   126  H   -0.023893
   127  H   -0.003656
   128  H    0.006264
   129  H   -0.002758
   130  H   -0.064413
   131  H   -0.004932
   132  H    0.015277
   133  H   -0.013338
   134  H    0.009459
   135  H    0.011101
   136  H   -0.005629
   137  H    0.153509
   138  H    0.226902
 Sum of Mulliken charges =  -0.00000

 Dipole moment (field-independent basis, Debye):
    X=              1.6682    Y=              3.7816    Z=              0.4785  Tot=              4.1608
 Quadrupole moment (field-independent basis, Debye-Ang):
   XX=           -371.1695   YY=           -388.5647   ZZ=           -399.0294
   XY=            -13.6441   XZ=              4.5145   YZ=             -0.4590

 Normal termination of Gaussian 16 at Sun Aug 25 02:27:00 2019.
