 Gaussian 16, Revision A.03,
 Gaussian 16:  ES64L-G16RevA.03 25-Dec-2016

 --------------------------
 # td=(NStates=1) B3LYP/SVP
 --------------------------

 --
 TD
 --
 Symbolic Z-matrix:
 Charge =  0 Multiplicity = 1

                         Standard orientation:
 ---------------------------------------------------------------------
 Center     Atomic      Atomic             Coordinates (Angstroms)
 Number     Number       Type             X           Y           Z
 ---------------------------------------------------------------------
      1          6           0       -5.187305   -1.902443    0.588520
      2          6           0       -4.812181    2.817676    1.340821
      3          6           0       -9.400284    3.279424   -0.273255
      4          6           0       -9.810710   -1.545460   -1.028464
      5          7           0       -5.251779    0.521489    0.804401
      6          6           0       -4.568895   -0.698075    0.885495
      7          6           0       -3.105838   -0.445971    1.312150
      8          6           0       -3.109301    1.001074    1.909900
      9          6           0       -4.478669    1.468722    1.343951
     10          6           0       -3.031374    0.946769    3.472809
     11          6           0       -2.066842   -0.650310    0.134217
     12          6           0       -0.639703   -0.694075    0.608995
     13          6           0        0.323601   -0.884585   -0.554936
     14          8           0        0.012982   -1.415159   -1.615415
     15          8           0        1.550315   -0.414854   -0.224427
     16          7           0       -7.049409    2.802011    0.378801
     17          6           0       -5.977850    3.410134    0.943951
     18          6           0       -6.268845    4.803645    1.068232
     19          6           0       -7.559055    4.957169    0.613080
     20          6           0       -8.007442    3.714042    0.163303
     21          6           0       -5.342739    5.869268    1.544476
     22          6           0       -8.230284    6.298894    0.589231
     23          6           0       -9.074864    6.570671   -0.478500
     24          7           0       -9.169553    0.842037   -0.565765
     25          6           0       -9.834320    2.058064   -0.641515
     26          6           0      -11.291498    1.911234   -1.138898
     27          6           0      -11.327552    0.567863   -1.326744
     28          6           0      -10.116567   -0.161026   -0.996272
     29          6           0      -12.333278    2.892243   -1.287367
     30          6           0      -12.467773   -0.332311   -1.784403
     31          6           0      -12.424659   -0.914900   -3.215803
     32          7           0       -7.510959   -1.227965   -0.170839
     33          6           0       -8.535710   -2.124295   -0.669997
     34          6           0       -8.080458   -3.454416   -0.701433
     35          6           0       -6.771332   -3.459911   -0.282793
     36          6           0       -6.503751   -2.047202    0.068001
     37          6           0       -8.847948   -4.641886   -1.197809
     38          6           0       -5.646826   -4.321876    0.129663
     39          8           0       -5.523477   -5.515410    0.065333
     40          6           0       -4.553063   -3.393771    0.560834
     41          6           0       -3.848289   -3.835296    1.797852
     42          8           0       -4.077247   -3.336022    2.908049
     43          8           0       -3.058264   -4.877074    1.604902
     44          6           0       -2.580152   -5.648266    2.723561
     45          6           0        2.570922   -0.752480   -1.222748
     46          6           0        3.950063   -0.593913   -0.606830
     47          6           0        4.973448    0.085823   -1.000668
     48          6           0        4.891005    0.849041   -2.306075
     49          6           0        6.250878    0.196305   -0.168793
     50          6           0        7.476416   -0.436436   -0.920768
     51          6           0        8.805589   -0.207994   -0.198787
     52          6           0       10.098854   -0.762874   -0.727941
     53          6           0       10.059037   -2.298459   -0.710599
     54          6           0       11.224260   -0.210974    0.068924
     55          6           0       12.639499   -0.588198   -0.607589
     56          6           0       13.826743    0.082991    0.184739
     57          6           0       15.254141   -0.255215   -0.428155
     58          6           0       15.536294   -1.783468   -0.493448
     59          6           0       16.308084    0.603490    0.429600
     60          6           0       17.698792    0.604492   -0.269067
     61          6           0       18.624115    1.634943    0.481941
     62          6           0       20.053358    1.607748   -0.016594
     63          6           0       20.308435    2.174530   -1.406144
     64          6           0       20.871005    2.406444    1.094607
     65          1           0       -4.166191    3.612501    1.932007
     66          1           0       -9.978663    4.192913   -0.164055
     67          1           0      -10.396937   -2.277513   -1.293768
     68          1           0       -2.791824   -1.154975    2.087912
     69          1           0       -2.361197    1.772175    1.522646
     70          1           0       -1.944747    0.622729    3.695173
     71          1           0       -2.871119    1.988092    3.818366
     72          1           0       -3.827102    0.217883    4.008014
     73          1           0       -2.353790   -1.650434   -0.306912
     74          1           0       -2.212931   -0.115680   -0.679540
     75          1           0       -0.630976    0.102534    1.215457
     76          1           0       -0.534774   -1.635616    1.136103
     77          1           0       -4.285000    5.397346    0.970876
     78          1           0       -5.550041    7.010479    1.030584
     79          1           0       -5.260314    5.609498    2.637205
     80          1           0       -7.974430    6.923781    1.615295
     81          1           0       -9.163546    5.835142   -1.400032
     82          1           0       -9.735904    7.533353   -0.322795
     83          1           0      -12.506138    3.613849   -0.282849
     84          1           0      -11.990282    3.875885   -1.990226
     85          1           0      -13.236259    2.616871   -1.780042
     86          1           0      -12.499172   -1.215254   -1.215671
     87          1           0      -13.447599    0.234722   -1.697424
     88          1           0      -12.434345   -0.026838   -3.926735
     89          1           0      -11.671492   -1.656650   -3.478279
     90          1           0      -13.344633   -1.345588   -3.368061
     91          1           0       -9.855402   -4.705260   -0.626088
     92          1           0       -9.231680   -4.671392   -2.298521
     93          1           0       -8.183933   -5.587180   -1.073484
     94          1           0       -3.787859   -3.319416   -0.216009
     95          1           0       -1.789678   -6.483593    2.370546
     96          1           0       -1.903786   -4.967658    3.238798
     97          1           0       -3.475297   -6.034548    3.305993
     98          1           0        2.576893   -1.872610   -1.615448
     99          1           0        2.414909   -0.052824   -2.221838
    100          1           0        4.159082   -1.100075    0.349219
    101          1           0        5.376089    2.051043   -2.275497
    102          1           0        5.559943    0.477983   -2.984352
    103          1           0        3.845356    0.986573   -2.777394
    104          1           0        6.387255    1.272554   -0.126322
    105          1           0        6.064821   -0.521014    0.784766
    106          1           0        7.345982   -1.434663   -1.149511
    107          1           0        7.513871   -0.144304   -1.997654
    108          1           0        9.083636    0.955472   -0.100365
    109          1           0        8.736679   -0.505421    0.842143
    110          1           0       10.132693   -0.351561   -1.896321
    111          1           0        9.314778   -2.661639   -1.389607
    112          1           0       11.030940   -2.765436   -1.111405
    113          1           0        9.967565   -2.719125    0.355532
    114          1           0       11.225543    1.026610    0.141951
    115          1           0       11.213944   -0.563981    1.095359
    116          1           0       12.670933   -1.865667   -0.546873
    117          1           0       12.768906   -0.339723   -1.707086
    118          1           0       13.611234    1.099358    0.391014
    119          1           0       13.701953   -0.487254    1.201493
    120          1           0       15.198556    0.205282   -1.392327
    121          1           0       14.854628   -2.110616   -1.201054
    122          1           0       16.739033   -1.969018   -0.709185
    123          1           0       15.504805   -2.398390    0.473986
    124          1           0       15.913997    1.676235    0.515534
    125          1           0       16.464555    0.141556    1.410929
    126          1           0       17.967754   -0.522082   -0.020600
    127          1           0       17.418442    0.918735   -1.228814
    128          1           0       18.088562    2.513502    0.476956
    129          1           0       18.564708    1.373604    1.519536
    130          1           0       20.345152    0.565277    0.088021
    131          1           0       20.124499    3.203300   -1.830502
    132          1           0       21.404838    2.022861   -1.630258
    133          1           0       19.890192    1.392636   -2.143108
    134          1           0       20.956968    2.111754    2.105561
    135          1           0       21.999076    2.612262    0.705532
    136          1           0       20.464595    3.354559    1.223718
    137          1           0       -7.226260    1.746906    0.379762
    138          1           0       -7.797732   -0.329320    0.117553
 ---------------------------------------------------------------------

 SCF Done:  E(RB3LYP) =  -2733.08516459     A.U. after   17 cycles

 Excitation energies and oscillator strengths:

 Excited State   1:      Singlet-A      1.9878 eV  623.74 nm  f=0.2235  <S**2>=0.000
     235 -> 237       -0.14597
     235 -> 238        0.22953
     236 -> 237        0.64384
 This state for optimization and/or second-order correction.
 Total Energy, E(TD-HF/TD-DFT) =  -2733.01211555
 Copying the excited state density for this state as the 1-particle RhoCI density.

 The electronic state is 1-A.
 Alpha  occ. eigenvalues --  -19.18953 -19.18143 -19.12874 -19.12174 -19.11600
 Alpha  occ. eigenvalues --  -14.36826 -14.36629 -14.32450 -14.30659 -10.32067
 Alpha  occ. eigenvalues --  -10.31649 -10.27886 -10.26990 -10.26292 -10.23848
 Alpha  occ. eigenvalues --  -10.23457 -10.23296 -10.23214 -10.23118 -10.22570
 Alpha  occ. eigenvalues --  -10.22519 -10.22411 -10.22054 -10.21927 -10.21652
 Alpha  occ. eigenvalues --  -10.21407 -10.21397 -10.21265 -10.21023 -10.20951
 Alpha  occ. eigenvalues --  -10.20761 -10.20692 -10.20532 -10.20294 -10.20215
 Alpha  occ. eigenvalues --  -10.20212 -10.19901 -10.19892 -10.19875 -10.19702
 Alpha  occ. eigenvalues --  -10.19607 -10.19521 -10.19432 -10.19386 -10.19280
 Alpha  occ. eigenvalues --  -10.19263 -10.19245 -10.19229 -10.19178 -10.19084
 Alpha  occ. eigenvalues --  -10.18769 -10.18734 -10.18567 -10.18533 -10.18487
 Alpha  occ. eigenvalues --  -10.18427 -10.18420 -10.18224 -10.18178 -10.18099
 Alpha  occ. eigenvalues --  -10.17863 -10.17466 -10.17261 -10.16789  -1.09692
 Alpha  occ. eigenvalues --   -1.09190  -1.03550  -1.00497  -0.99243  -0.99210
 Alpha  occ. eigenvalues --   -0.98237  -0.93554  -0.91196  -0.84063  -0.82979
 Alpha  occ. eigenvalues --   -0.81807  -0.81744  -0.81533  -0.81257  -0.80795
 Alpha  occ. eigenvalues --   -0.80158  -0.79003  -0.78849  -0.78666  -0.77213
 Alpha  occ. eigenvalues --   -0.76406  -0.75883  -0.75324  -0.74233  -0.74154
 Alpha  occ. eigenvalues --   -0.73424  -0.72885  -0.72128  -0.70873  -0.70082
 Alpha  occ. eigenvalues --   -0.69829  -0.69332  -0.68468  -0.67881  -0.67459
 Alpha  occ. eigenvalues --   -0.67282  -0.66776  -0.66251  -0.65903  -0.65337
 Alpha  occ. eigenvalues --   -0.63826  -0.62867  -0.62576  -0.61372  -0.61267
 Alpha  occ. eigenvalues --   -0.60727  -0.59150  -0.58973  -0.57386  -0.56807
 Alpha  occ. eigenvalues --   -0.56541  -0.56485  -0.56076  -0.55701  -0.55245
 Alpha  occ. eigenvalues --   -0.55144  -0.54699  -0.54289  -0.53454  -0.53073
 Alpha  occ. eigenvalues --   -0.52712  -0.51747  -0.51218  -0.50976  -0.50814
 Alpha  occ. eigenvalues --   -0.49703  -0.49419  -0.48939  -0.48690  -0.48230
 Alpha  occ. eigenvalues --   -0.47833  -0.47665  -0.47211  -0.46999  -0.46886
 Alpha  occ. eigenvalues --   -0.46847  -0.46319  -0.45847  -0.45789  -0.45570
 Alpha  occ. eigenvalues --   -0.45488  -0.45284  -0.44853  -0.44630  -0.44292
 Alpha  occ. eigenvalues --   -0.44127  -0.44036  -0.43708  -0.43663  -0.43552
 Alpha  occ. eigenvalues --   -0.43395  -0.42903  -0.42520  -0.42472  -0.42279
 Alpha  occ. eigenvalues --   -0.42069  -0.41898  -0.41580  -0.41423  -0.41364
 Alpha  occ. eigenvalues --   -0.41063  -0.40699  -0.40369  -0.40283  -0.39974
 Alpha  occ. eigenvalues --   -0.39827  -0.39464  -0.39436  -0.39259  -0.39028
 Alpha  occ. eigenvalues --   -0.38821  -0.38652  -0.38387  -0.38262  -0.37981
 Alpha  occ. eigenvalues --   -0.37863  -0.37839  -0.37701  -0.37634  -0.37255
 Alpha  occ. eigenvalues --   -0.37231  -0.37055  -0.36546  -0.36453  -0.36373
 Alpha  occ. eigenvalues --   -0.36087  -0.35900  -0.35799  -0.35745  -0.35547
 Alpha  occ. eigenvalues --   -0.35377  -0.35282  -0.34735  -0.34613  -0.34503
 Alpha  occ. eigenvalues --   -0.34451  -0.34204  -0.34191  -0.33921  -0.33919
 Alpha  occ. eigenvalues --   -0.33522  -0.33448  -0.33270  -0.33008  -0.32157
 Alpha  occ. eigenvalues --   -0.32059  -0.32006  -0.31672  -0.31538  -0.31401
 Alpha  occ. eigenvalues --   -0.31015  -0.30928  -0.30819  -0.30383  -0.29862
 Alpha  occ. eigenvalues --   -0.29774  -0.29336  -0.28531  -0.27463  -0.27366
 Alpha  occ. eigenvalues --   -0.27320  -0.27277  -0.26911  -0.26482  -0.26258
 Alpha  occ. eigenvalues --   -0.25425  -0.25338  -0.23997  -0.22562  -0.19860
 Alpha  occ. eigenvalues --   -0.18421
 Alpha virt. eigenvalues --   -0.10552  -0.06979  -0.04407  -0.02417  -0.00492
 Alpha virt. eigenvalues --   -0.00203   0.00318   0.01203   0.01762   0.03304
 Alpha virt. eigenvalues --    0.03677   0.04060   0.04247   0.04509   0.04723

 Mulliken charges:
               1
     1  C    0.005573
     2  C   -0.108221
     3  C   -0.104838
     4  C    0.032459
     5  N   -0.186460
     6  C   -0.065525
     7  C   -0.001620
     8  C   -0.086867
     9  C    0.015738
    10  C    0.037811
    11  C    0.068006
    12  C    0.165600
    13  C    0.173427
    14  O   -0.243959
    15  O   -0.299001
    16  N   -0.031257
    17  C    0.071590
    18  C   -0.114794
    19  C   -0.007333
    20  C   -0.032681
    21  C   -0.037785
    22  C   -0.068250
    23  C   -0.091599
    24  N   -0.323071
    25  C    0.181656
    26  C   -0.083128
    27  C   -0.049518
    28  C    0.132411
    29  C    0.003720
    30  C    0.059781
    31  C    0.026490
    32  N    0.010604
    33  C    0.009975
    34  C   -0.102574
    35  C   -0.037749
    36  C    0.060737
    37  C    0.004634
    38  C    0.087215
    39  O   -0.152648
    40  C    0.017941
    41  C    0.175519
    42  O   -0.261121
    43  O   -0.281060
    44  C    0.155083
    45  C    0.198944
    46  C   -0.085842
    47  C   -0.142799
    48  C    0.024737
    49  C    0.113670
    50  C    0.057594
    51  C    0.030730
    52  C   -0.084322
    53  C    0.024236
    54  C   -0.000229
    55  C   -0.077255
    56  C    0.030985
    57  C   -0.033866
    58  C    0.003281
    59  C   -0.045316
    60  C    0.027616
    61  C    0.081318
    62  C   -0.013338
    63  C    0.002807
    64  C    0.026125
    65  H   -0.004436
    66  H   -0.027021
    67  H   -0.119707
    68  H   -0.004834
    69  H    0.016744
    70  H    0.008733
    71  H    0.001866
    72  H    0.077540
    73  H   -0.009189
    74  H   -0.044705
    75  H   -0.020044
    76  H    0.022327
    77  H    0.058233
    78  H    0.083800
    79  H    0.061653
    80  H    0.058710
    81  H    0.082762
    82  H    0.047005
    83  H    0.044583
    84  H    0.021232
    85  H    0.016497
    86  H   -0.014033
    87  H   -0.005150
    88  H    0.007083
    89  H    0.018902
    90  H   -0.015178
    91  H    0.036030
    92  H    0.044360
    93  H    0.060532
    94  H    0.064165
    95  H    0.054726
    96  H    0.027270
    97  H    0.065991
    98  H    0.060673
    99  H    0.050065
   100  H   -0.025216
   101  H    0.010566
   102  H    0.003610
   103  H    0.032421
   104  H    0.010988
   105  H    0.026929
   106  H   -0.040586
   107  H   -0.020649
   108  H   -0.006107
   109  H   -0.025994
   110  H    0.004314
   111  H    0.004874
   112  H    0.013163
   113  H    0.015691
   114  H    0.014401
   115  H   -0.003063
   116  H    0.026642
   117  H    0.008047
   118  H   -0.012142
   119  H   -0.005062
   120  H   -0.016346
   121  H    0.014257
   122  H    0.023700
   123  H    0.019677
   124  H   -0.001946
   125  H   -0.006586
   126  H    0.018343
   127  H   -0.012871
   128  H   -0.043580
   129  H   -0.030751
   130  H   -0.009165
   131  H    0.030397
   132  H    0.001749
   133  H    0.010645
   134  H   -0.006118
   135  H    0.002244
   136  H   -0.020694
   137  H    0.179028
   138  H    0.124022
 Sum of Mulliken charges =  -0.00000

 Dipole moment (field-independent basis, Debye):
    X=              2.2173    Y=              3.0344    Z=              1.1100  Tot=              3.9187
 Quadrupole moment (field-independent basis, Debye-Ang):
   XX=           -368.9147   YY=           -379.3398   ZZ=           -395.3737
   XY=            -23.7119   XZ=              5.0358   YZ=             -0.4528

 Normal termination of Gaussian 16 at Mon Aug 12 13:01:17 2019.
