 Gaussian 16, Revision A.03,
 Gaussian 16:  ES64L-G16RevA.03 25-Dec-2016

 --------------------------
 # td=(NStates=1) B3LYP/SVP
 --------------------------

 --
 TD
 --
 Symbolic Z-matrix:
 Charge =  0 Multiplicity = 1

                         Standard orientation:
 ---------------------------------------------------------------------
 Center     Atomic      Atomic             Coordinates (Angstroms)
 Number     Number       Type             X           Y           Z
 ---------------------------------------------------------------------
      1          6           0       -5.115257   -1.952105    0.415414
      2          6           0       -4.776853    2.744156    1.364769
      3          6           0       -9.346189    3.305330   -0.170145
      4          6           0       -9.838106   -1.505645   -0.823527
      5          7           0       -5.153802    0.478751    0.765825
      6          6           0       -4.500309   -0.766706    0.784372
      7          6           0       -3.117626   -0.619948    1.290673
      8          6           0       -3.048285    0.860736    1.922800
      9          6           0       -4.422015    1.465672    1.282234
     10          6           0       -3.154515    0.801869    3.465700
     11          6           0       -2.080340   -0.786749    0.083224
     12          6           0       -0.591081   -0.798020    0.558197
     13          6           0        0.261178   -0.927371   -0.678846
     14          8           0       -0.033918   -1.331415   -1.737222
     15          8           0        1.600472   -0.539161   -0.255945
     16          7           0       -6.990504    2.799163    0.325425
     17          6           0       -5.893489    3.415359    0.944515
     18          6           0       -6.197572    4.813401    1.113946
     19          6           0       -7.495734    4.935280    0.583980
     20          6           0       -8.056285    3.671626    0.184628
     21          6           0       -5.211628    5.901077    1.647614
     22          6           0       -8.192654    6.227820    0.404132
     23          6           0       -9.222864    6.587702   -0.373233
     24          7           0       -9.222865    0.790542   -0.364204
     25          6           0       -9.829142    2.016659   -0.499860
     26          6           0      -11.178397    1.826863   -1.033626
     27          6           0      -11.344759    0.466034   -1.085551
     28          6           0      -10.108006   -0.177074   -0.809875
     29          6           0      -12.195170    2.922412   -1.297341
     30          6           0      -12.501014   -0.249085   -1.759889
     31          6           0      -12.633985   -0.479272   -3.349926
     32          7           0       -7.465962   -1.299979   -0.138430
     33          6           0       -8.559690   -2.135735   -0.546746
     34          6           0       -8.155657   -3.409510   -0.539896
     35          6           0       -6.797284   -3.413176   -0.162616
     36          6           0       -6.414219   -2.105927   -0.022151
     37          6           0       -9.000350   -4.623356   -0.884975
     38          6           0       -5.661784   -4.320897   -0.018667
     39          8           0       -5.488911   -5.447812   -0.062846
     40          6           0       -4.426038   -3.322288    0.333253
     41          6           0       -3.802336   -3.785829    1.689065
     42          8           0       -4.065503   -3.384628    2.780418
     43          8           0       -2.801529   -4.805010    1.545842
     44          6           0       -2.609458   -5.493174    2.735960
     45          6           0        2.591799   -0.798790   -1.222424
     46          6           0        4.030657   -0.478214   -0.678167
     47          6           0        5.029717    0.162456   -1.252268
     48          6           0        5.030943    0.895476   -2.568381
     49          6           0        6.262940    0.334409   -0.357325
     50          6           0        7.501064   -0.431551   -0.960330
     51          6           0        8.772244   -0.103463   -0.195227
     52          6           0       10.060794   -0.781940   -0.738697
     53          6           0        9.988870   -2.406338   -0.912712
     54          6           0       11.284952   -0.407952    0.068743
     55          6           0       12.636454   -0.754017   -0.513311
     56          6           0       13.777169   -0.030910    0.225611
     57          6           0       15.228923   -0.291446   -0.339522
     58          6           0       15.546941   -1.797734   -0.319428
     59          6           0       16.292832    0.463964    0.396865
     60          6           0       17.599755    0.710693   -0.280040
     61          6           0       18.491427    1.595203    0.584497
     62          6           0       19.952640    1.650441    0.092202
     63          6           0       20.078974    2.353545   -1.250983
     64          6           0       20.844749    2.439965    1.182225
     65          1           0       -4.092665    3.322840    1.913744
     66          1           0      -10.031830    4.289600   -0.494436
     67          1           0      -10.612471   -2.161193   -1.133857
     68          1           0       -2.799533   -1.327652    2.150784
     69          1           0       -2.073330    1.218272    1.675887
     70          1           0       -2.306443    0.403717    3.912373
     71          1           0       -3.234153    1.894755    3.760362
     72          1           0       -3.961323    0.473947    3.983263
     73          1           0       -2.481695   -1.638866   -0.578093
     74          1           0       -2.180687    0.041772   -0.524699
     75          1           0       -0.296008    0.040956    1.221773
     76          1           0       -0.307421   -1.671668    1.281006
     77          1           0       -4.256500    6.065777    1.084767
     78          1           0       -5.762703    6.825366    1.800362
     79          1           0       -5.090384    5.624042    2.787073
     80          1           0       -7.886921    6.912409    1.044356
     81          1           0       -9.468627    5.904630   -1.132007
     82          1           0       -9.582982    7.648999   -0.520365
     83          1           0      -12.386805    3.577626   -0.394363
     84          1           0      -11.930725    3.495347   -2.142977
     85          1           0      -13.060021    2.565555   -1.870533
     86          1           0      -12.585994   -1.304016   -1.370171
     87          1           0      -13.513547    0.261167   -1.409425
     88          1           0      -12.499536    0.416534   -3.644732
     89          1           0      -11.631809   -1.153735   -3.630238
     90          1           0      -13.575064   -0.939002   -3.665585
     91          1           0       -9.750657   -5.033947   -0.219746
     92          1           0       -9.699264   -4.557896   -1.749301
     93          1           0       -8.263226   -5.433608   -1.023725
     94          1           0       -3.647927   -3.352611   -0.369584
     95          1           0       -2.093456   -6.495087    2.530990
     96          1           0       -2.024822   -4.946693    3.477000
     97          1           0       -3.667936   -5.701382    3.166734
     98          1           0        2.459814   -1.933500   -1.390538
     99          1           0        2.247781   -0.171418   -2.154665
    100          1           0        4.171424   -0.895175    0.390714
    101          1           0        5.511016    1.876892   -2.401580
    102          1           0        5.504037    0.190738   -3.194401
    103          1           0        3.964671    1.010933   -2.944643
    104          1           0        6.527352    1.358169   -0.385255
    105          1           0        6.001365    0.108532    0.727637
    106          1           0        7.439159   -1.521498   -0.950765
    107          1           0        7.511759   -0.216872   -2.138033
    108          1           0        8.973498    1.137945   -0.206591
    109          1           0        8.762200   -0.177260    0.937358
    110          1           0       10.251040   -0.275917   -1.776616
    111          1           0        9.121615   -2.693441   -1.665084
    112          1           0       10.889813   -2.598772   -1.400804
    113          1           0       10.100746   -2.936809    0.098074
    114          1           0       11.208416    0.544183    0.393324
    115          1           0       11.245627   -0.891483    1.142846
    116          1           0       13.047365   -1.693571   -0.863259
    117          1           0       12.522093   -0.393433   -1.467541
    118          1           0       13.513270    1.202908    0.369165
    119          1           0       13.596404   -0.464126    1.115034
    120          1           0       15.185612    0.205903   -1.455735
    121          1           0       14.804244   -2.385093   -0.851689
    122          1           0       16.390211   -1.930927   -1.160530
    123          1           0       15.764152   -2.191467    0.631832
    124          1           0       16.031612    1.432423    0.715066
    125          1           0       16.449587    0.178636    1.350512
    126          1           0       18.033477   -0.424532   -0.546675
    127          1           0       17.252255    1.278476   -1.282897
    128          1           0       18.129056    2.541768    0.617505
    129          1           0       18.497840    1.322699    1.666811
    130          1           0       20.444931    0.697416   -0.020132
    131          1           0       19.447204    3.251817   -1.400478
    132          1           0       21.044171    2.661562   -1.389873
    133          1           0       19.573278    1.873409   -2.178947
    134          1           0       20.999975    1.974613    2.184786
    135          1           0       21.802841    2.778990    0.698291
    136          1           0       20.362162    3.469295    1.566769
    137          1           0       -7.090257    1.802614    0.320059
    138          1           0       -7.510900   -0.169256   -0.151569
 ---------------------------------------------------------------------

 SCF Done:  E(RB3LYP) =  -2733.12494642     A.U. after   16 cycles

 Excitation energies and oscillator strengths:

 Excited State   1:      Singlet-A      2.1579 eV  574.57 nm  f=0.1588  <S**2>=0.000
     235 -> 237       -0.41139
     235 -> 238       -0.23725
     236 -> 237        0.46150
     236 -> 238       -0.24028
 This state for optimization and/or second-order correction.
 Total Energy, E(TD-HF/TD-DFT) =  -2733.04564682
 Copying the excited state density for this state as the 1-particle RhoCI density.

 The electronic state is 1-A.
 Alpha  occ. eigenvalues --  -19.16033 -19.15585 -19.14498 -19.13130 -19.12855
 Alpha  occ. eigenvalues --  -14.36800 -14.36377 -14.32350 -14.30294 -10.31773
 Alpha  occ. eigenvalues --  -10.31571 -10.27900 -10.24729 -10.24399 -10.24191
 Alpha  occ. eigenvalues --  -10.23477 -10.23030 -10.22845 -10.22815 -10.22355
 Alpha  occ. eigenvalues --  -10.22260 -10.22218 -10.22066 -10.21489 -10.21481
 Alpha  occ. eigenvalues --  -10.21396 -10.21050 -10.20878 -10.20769 -10.20728
 Alpha  occ. eigenvalues --  -10.20650 -10.20128 -10.20094 -10.20067 -10.20036
 Alpha  occ. eigenvalues --  -10.19870 -10.19819 -10.19800 -10.19798 -10.19612
 Alpha  occ. eigenvalues --  -10.19607 -10.19572 -10.19461 -10.19283 -10.19241
 Alpha  occ. eigenvalues --  -10.19160 -10.19117 -10.19103 -10.18957 -10.18936
 Alpha  occ. eigenvalues --  -10.18818 -10.18771 -10.18667 -10.18529 -10.18514
 Alpha  occ. eigenvalues --  -10.18486 -10.18398 -10.18314 -10.17718 -10.17587
 Alpha  occ. eigenvalues --  -10.17534 -10.17181 -10.16696 -10.15649  -1.08944
 Alpha  occ. eigenvalues --   -1.08431  -1.07344  -1.01344  -1.00468  -0.98249
 Alpha  occ. eigenvalues --   -0.97989  -0.93447  -0.93141  -0.84808  -0.82284
 Alpha  occ. eigenvalues --   -0.82094  -0.81772  -0.81713  -0.80763  -0.80580
 Alpha  occ. eigenvalues --   -0.80181  -0.79352  -0.79076  -0.78628  -0.77032
 Alpha  occ. eigenvalues --   -0.76727  -0.76345  -0.75362  -0.74686  -0.74089
 Alpha  occ. eigenvalues --   -0.73297  -0.72479  -0.72011  -0.71358  -0.71218
 Alpha  occ. eigenvalues --   -0.70028  -0.69579  -0.68655  -0.67668  -0.67471
 Alpha  occ. eigenvalues --   -0.67379  -0.66851  -0.66700  -0.66391  -0.64839
 Alpha  occ. eigenvalues --   -0.64537  -0.62928  -0.62357  -0.61959  -0.61446
 Alpha  occ. eigenvalues --   -0.61028  -0.59188  -0.58572  -0.57906  -0.57758
 Alpha  occ. eigenvalues --   -0.57221  -0.56501  -0.56374  -0.55955  -0.55354
 Alpha  occ. eigenvalues --   -0.54546  -0.54370  -0.54313  -0.54102  -0.53319
 Alpha  occ. eigenvalues --   -0.52390  -0.52113  -0.51407  -0.50785  -0.50312
 Alpha  occ. eigenvalues --   -0.49762  -0.49256  -0.48818  -0.48555  -0.47767
 Alpha  occ. eigenvalues --   -0.47372  -0.47150  -0.46903  -0.46644  -0.46599
 Alpha  occ. eigenvalues --   -0.46460  -0.46191  -0.46008  -0.45869  -0.45579
 Alpha  occ. eigenvalues --   -0.45368  -0.45108  -0.45081  -0.44868  -0.44839
 Alpha  occ. eigenvalues --   -0.44752  -0.44503  -0.44214  -0.44077  -0.43963
 Alpha  occ. eigenvalues --   -0.43806  -0.43623  -0.43349  -0.43274  -0.42763
 Alpha  occ. eigenvalues --   -0.42664  -0.42339  -0.42258  -0.42008  -0.41900
 Alpha  occ. eigenvalues --   -0.41811  -0.41464  -0.41202  -0.40885  -0.40726
 Alpha  occ. eigenvalues --   -0.40426  -0.40144  -0.40033  -0.39692  -0.39653
 Alpha  occ. eigenvalues --   -0.39446  -0.39285  -0.39012  -0.38743  -0.38695
 Alpha  occ. eigenvalues --   -0.38446  -0.38266  -0.38192  -0.37955  -0.37831
 Alpha  occ. eigenvalues --   -0.37555  -0.37496  -0.37402  -0.37181  -0.36962
 Alpha  occ. eigenvalues --   -0.36751  -0.36638  -0.36294  -0.36188  -0.36135
 Alpha  occ. eigenvalues --   -0.35484  -0.35323  -0.35207  -0.34952  -0.34753
 Alpha  occ. eigenvalues --   -0.34584  -0.34378  -0.34154  -0.33898  -0.33821
 Alpha  occ. eigenvalues --   -0.33436  -0.32911  -0.32882  -0.32432  -0.32411
 Alpha  occ. eigenvalues --   -0.31913  -0.31850  -0.31619  -0.31158  -0.31046
 Alpha  occ. eigenvalues --   -0.30718  -0.30631  -0.30472  -0.29693  -0.29581
 Alpha  occ. eigenvalues --   -0.29140  -0.29055  -0.28805  -0.28596  -0.28265
 Alpha  occ. eigenvalues --   -0.28072  -0.27352  -0.26532  -0.26278  -0.26191
 Alpha  occ. eigenvalues --   -0.25071  -0.24635  -0.24551  -0.22871  -0.20392
 Alpha  occ. eigenvalues --   -0.19908
 Alpha virt. eigenvalues --   -0.10980  -0.08115  -0.03941  -0.01780  -0.00438
 Alpha virt. eigenvalues --   -0.00416   0.00704   0.01625   0.02167   0.03977
 Alpha virt. eigenvalues --    0.04018   0.04301   0.04590   0.05037   0.05392

 Mulliken charges:
               1
     1  C    0.034688
     2  C   -0.005630
     3  C   -0.135726
     4  C   -0.053114
     5  N   -0.191038
     6  C   -0.041105
     7  C   -0.101243
     8  C   -0.019388
     9  C   -0.018784
    10  C    0.120897
    11  C    0.069614
    12  C    0.012785
    13  C    0.195162
    14  O   -0.163185
    15  O   -0.382609
    16  N   -0.082516
    17  C    0.118301
    18  C   -0.130625
    19  C    0.030968
    20  C    0.072642
    21  C    0.096853
    22  C   -0.000637
    23  C   -0.017252
    24  N   -0.274110
    25  C    0.080299
    26  C   -0.151277
    27  C   -0.055526
    28  C    0.109947
    29  C    0.154860
    30  C   -0.058835
    31  C    0.069146
    32  N   -0.112380
    33  C    0.095979
    34  C   -0.109353
    35  C   -0.051943
    36  C    0.083440
    37  C    0.081310
    38  C    0.058412
    39  O   -0.075596
    40  C   -0.041300
    41  C    0.205711
    42  O   -0.194747
    43  O   -0.336634
    44  C    0.156520
    45  C    0.215135
    46  C   -0.098127
    47  C   -0.182574
    48  C    0.126063
    49  C    0.100417
    50  C    0.001015
    51  C   -0.023474
    52  C   -0.095872
    53  C    0.027966
    54  C    0.078122
    55  C    0.101246
    56  C    0.010507
    57  C   -0.069024
    58  C    0.047613
    59  C    0.126115
    60  C   -0.030973
    61  C    0.083083
    62  C   -0.049741
    63  C    0.037533
    64  C   -0.042803
    65  H   -0.054503
    66  H    0.030466
    67  H   -0.044237
    68  H    0.038648
    69  H   -0.021714
    70  H   -0.001537
    71  H   -0.012922
    72  H   -0.005899
    73  H    0.035466
    74  H   -0.020060
    75  H    0.032459
    76  H    0.053236
    77  H    0.064436
    78  H    0.004272
    79  H    0.038835
    80  H   -0.059620
    81  H    0.015090
    82  H    0.038827
    83  H    0.052152
    84  H   -0.013012
    85  H   -0.009256
    86  H    0.003917
    87  H    0.014955
    88  H   -0.036738
    89  H    0.023960
    90  H    0.030846
    91  H    0.017235
    92  H    0.012990
    93  H    0.034348
    94  H    0.030034
    95  H    0.033551
    96  H    0.014802
    97  H    0.028431
    98  H    0.020193
    99  H    0.024335
   100  H    0.006808
   101  H    0.029782
   102  H    0.023430
   103  H    0.013988
   104  H   -0.021741
   105  H    0.009495
   106  H    0.002552
   107  H    0.009855
   108  H   -0.007775
   109  H    0.003274
   110  H    0.004017
   111  H    0.035068
   112  H   -0.013206
   113  H    0.026383
   114  H   -0.054821
   115  H   -0.021730
   116  H   -0.023188
   117  H   -0.062206
   118  H    0.009154
   119  H   -0.040402
   120  H    0.002874
   121  H    0.000508
   122  H    0.017979
   123  H    0.015793
   124  H   -0.059391
   125  H   -0.069413
   126  H    0.015644
   127  H    0.009941
   128  H   -0.035269
   129  H   -0.010051
   130  H   -0.000519
   131  H   -0.014833
   132  H   -0.013057
   133  H    0.014970
   134  H    0.018634
   135  H    0.014882
   136  H    0.003906
   137  H    0.127204
   138  H    0.212267
 Sum of Mulliken charges =  -0.00000

 Dipole moment (field-independent basis, Debye):
    X=              0.5160    Y=              5.4516    Z=              0.2600  Tot=              5.4822
 Quadrupole moment (field-independent basis, Debye-Ang):
   XX=           -352.7271   YY=           -378.5384   ZZ=           -391.7752
   XY=            -26.9312   XZ=             17.1678   YZ=              2.2617

 Normal termination of Gaussian 16 at Tue Aug 20 03:23:30 2019.
