 Gaussian 16, Revision A.03,
 Gaussian 16:  ES64L-G16RevA.03 25-Dec-2016

 --------------------------
 # td=(NStates=1) B3LYP/SVP
 --------------------------

 --
 TD
 --
 Symbolic Z-matrix:
 Charge =  0 Multiplicity = 1

                         Standard orientation:
 ---------------------------------------------------------------------
 Center     Atomic      Atomic             Coordinates (Angstroms)
 Number     Number       Type             X           Y           Z
 ---------------------------------------------------------------------
      1          6           0       -5.098692   -1.887517    0.358570
      2          6           0       -4.791363    2.791852    1.162173
      3          6           0       -9.499723    3.293577   -0.210783
      4          6           0       -9.829563   -1.464399   -0.683182
      5          7           0       -5.227640    0.409737    0.735693
      6          6           0       -4.522126   -0.628117    0.705833
      7          6           0       -3.071644   -0.558651    1.144866
      8          6           0       -3.072219    0.924442    1.631963
      9          6           0       -4.403087    1.486800    1.136361
     10          6           0       -2.730821    1.126620    3.173944
     11          6           0       -2.068095   -0.723980   -0.086725
     12          6           0       -0.646397   -0.609121    0.310779
     13          6           0        0.348645   -0.946215   -0.890326
     14          8           0        0.135379   -1.372563   -1.960581
     15          8           0        1.548131   -0.616625   -0.486354
     16          7           0       -7.127288    2.804148    0.340004
     17          6           0       -5.974139    3.345410    0.831202
     18          6           0       -6.243397    4.802394    0.854291
     19          6           0       -7.590184    5.026428    0.385214
     20          6           0       -8.149610    3.652774    0.123119
     21          6           0       -5.131108    5.877064    1.262652
     22          6           0       -8.273606    6.277536    0.255780
     23          6           0       -9.393090    6.652744   -0.567359
     24          7           0       -9.283227    0.894599   -0.385218
     25          6           0       -9.991635    2.104020   -0.501075
     26          6           0      -11.377229    1.744857   -0.850450
     27          6           0      -11.513539    0.426999   -0.866816
     28          6           0      -10.116793   -0.070436   -0.645049
     29          6           0      -12.408386    2.834923   -0.987400
     30          6           0      -12.717490   -0.418399   -1.350879
     31          6           0      -12.663817   -0.787255   -2.719784
     32          7           0       -7.518924   -1.280781   -0.072113
     33          6           0       -8.584070   -1.974969   -0.317421
     34          6           0       -8.284572   -3.433580   -0.433245
     35          6           0       -6.916167   -3.377046   -0.105241
     36          6           0       -6.420725   -2.050288    0.026500
     37          6           0       -9.101078   -4.695229   -0.696603
     38          6           0       -5.742499   -4.302510    0.122435
     39          8           0       -5.635711   -5.515754    0.067144
     40          6           0       -4.379918   -3.250641    0.439926
     41          6           0       -3.841717   -3.755866    1.752808
     42          8           0       -4.084165   -3.291591    2.808742
     43          8           0       -2.982543   -4.753315    1.531942
     44          6           0       -2.224955   -5.177118    2.684818
     45          6           0        2.754926   -1.031345   -1.381522
     46          6           0        4.033020   -0.770328   -0.617082
     47          6           0        5.019353   -0.093149   -1.241024
     48          6           0        5.116525    0.600240   -2.474304
     49          6           0        6.309306   -0.047776   -0.418478
     50          6           0        7.499292   -0.570865   -1.032333
     51          6           0        8.730451   -0.481392   -0.072586
     52          6           0       10.107648   -0.865990   -0.787333
     53          6           0       10.149726   -2.391273   -1.096946
     54          6           0       11.357898   -0.359554    0.012954
     55          6           0       12.732154   -0.813851   -0.508676
     56          6           0       13.896899   -0.242938    0.353721
     57          6           0       15.244584   -0.222508   -0.326049
     58          6           0       15.759677   -1.565873   -0.774393
     59          6           0       16.256530    0.564520    0.651534
     60          6           0       17.701866    0.945517   -0.109843
     61          6           0       18.621790    1.779296    0.875990
     62          6           0       20.103743    1.824621    0.320673
     63          6           0       20.175941    2.240694   -1.064061
     64          6           0       20.852179    2.675190    1.310386
     65          1           0       -3.971598    3.493637    1.194345
     66          1           0       -9.981932    4.242091   -0.311303
     67          1           0      -10.483668   -2.408313   -0.863637
     68          1           0       -2.976904   -1.083094    1.909811
     69          1           0       -2.249042    1.445796    1.193775
     70          1           0       -1.671177    0.824092    3.465502
     71          1           0       -2.943010    2.263918    3.495430
     72          1           0       -3.363860    0.660274    3.727392
     73          1           0       -2.503092   -1.662590   -0.347132
     74          1           0       -2.513883    0.007956   -0.842615
     75          1           0       -0.428589    0.388516    0.704695
     76          1           0       -0.203278   -1.463613    0.869987
     77          1           0       -4.347769    5.681015    0.495468
     78          1           0       -5.461058    6.842078    0.884081
     79          1           0       -5.090717    5.908417    2.372764
     80          1           0       -7.974149    7.261101    0.822123
     81          1           0       -9.993198    6.104513   -1.462256
     82          1           0       -9.691440    7.779555   -0.496123
     83          1           0      -12.404600    3.545788    0.052606
     84          1           0      -12.302177    3.599080   -1.869608
     85          1           0      -13.510574    2.404866   -1.123051
     86          1           0      -12.830076   -1.272819   -0.709780
     87          1           0      -13.693337    0.214346   -0.990537
     88          1           0      -12.780460   -0.029869   -3.340033
     89          1           0      -11.651321   -1.349114   -3.076198
     90          1           0      -13.545588   -1.460057   -2.953943
     91          1           0       -9.936167   -5.095789   -0.071454
     92          1           0       -9.495910   -4.613778   -1.724829
     93          1           0       -8.461883   -5.577439   -0.685721
     94          1           0       -3.786403   -3.355432   -0.485038
     95          1           0       -1.598842   -5.815363    2.363445
     96          1           0       -1.628616   -4.405953    3.092433
     97          1           0       -2.807737   -5.447948    3.707150
     98          1           0        2.470746   -2.170380   -1.858467
     99          1           0        2.717890   -0.543870   -2.298239
    100          1           0        4.139374   -1.117023    0.360946
    101          1           0        5.910716    1.532286   -2.493558
    102          1           0        5.392807   -0.139114   -3.301785
    103          1           0        3.934158    1.033537   -2.760110
    104          1           0        6.344375    1.188467   -0.370281
    105          1           0        6.222717   -0.421850    0.457902
    106          1           0        7.419867   -1.705202   -1.289861
    107          1           0        7.721849   -0.025311   -1.958797
    108          1           0        8.879073    0.623904    0.296584
    109          1           0        8.514224   -1.005048    1.023038
    110          1           0        9.882233   -0.291468   -1.679200
    111          1           0        9.565993   -2.621963   -2.074937
    112          1           0       11.068746   -2.662322   -1.373934
    113          1           0        9.632817   -2.923188   -0.190589
    114          1           0       11.284655    0.802959    0.185530
    115          1           0       11.232567   -1.015624    0.953865
    116          1           0       12.810930   -1.954402   -0.553935
    117          1           0       12.774504   -0.182078   -1.532364
    118          1           0       13.577479    0.808369    0.691107
    119          1           0       13.946252   -0.694804    1.333567
    120          1           0       15.133138    0.506950   -1.190623
    121          1           0       15.122005   -2.044604   -1.454648
    122          1           0       16.722728   -1.400694   -1.270241
    123          1           0       15.844887   -2.238284    0.235740
    124          1           0       15.680021    1.398017    1.038474
    125          1           0       16.487238   -0.011586    1.640885
    126          1           0       18.374066   -0.152290   -0.174097
    127          1           0       17.337951    1.326793   -1.137977
    128          1           0       18.398352    2.898507    0.950306
    129          1           0       18.525881    1.551583    1.782580
    130          1           0       20.577046    0.709221    0.256778
    131          1           0       19.400059    3.017406   -1.647179
    132          1           0       21.288296    2.585432   -1.333189
    133          1           0       19.857524    1.402097   -1.716743
    134          1           0       20.371403    2.649208    2.315557
    135          1           0       21.999664    2.417610    1.330575
    136          1           0       20.630750    3.802848    1.117245
    137          1           0       -7.105708    1.690116    0.283594
    138          1           0       -7.548569   -0.227273   -0.036106
 ---------------------------------------------------------------------

 SCF Done:  E(RB3LYP) =  -2732.97270593     A.U. after   17 cycles

 Excitation energies and oscillator strengths:

 Excited State   1:      Singlet-A      2.0291 eV  611.02 nm  f=0.2252  <S**2>=0.000
     235 -> 238       -0.25767
     236 -> 237        0.65478
 This state for optimization and/or second-order correction.
 Total Energy, E(TD-HF/TD-DFT) =  -2732.89813661
 Copying the excited state density for this state as the 1-particle RhoCI density.

 The electronic state is 1-A.
 Alpha  occ. eigenvalues --  -19.17910 -19.16585 -19.13813 -19.12255 -19.11464
 Alpha  occ. eigenvalues --  -14.37546 -14.37178 -14.32415 -14.29910 -10.31289
 Alpha  occ. eigenvalues --  -10.30192 -10.29251 -10.25913 -10.23742 -10.23661
 Alpha  occ. eigenvalues --  -10.23469 -10.23029 -10.22765 -10.22735 -10.22681
 Alpha  occ. eigenvalues --  -10.22389 -10.22240 -10.21974 -10.21625 -10.21623
 Alpha  occ. eigenvalues --  -10.21549 -10.21430 -10.21120 -10.20737 -10.20689
 Alpha  occ. eigenvalues --  -10.20676 -10.20669 -10.20631 -10.20588 -10.20538
 Alpha  occ. eigenvalues --  -10.20366 -10.20035 -10.19990 -10.19931 -10.19870
 Alpha  occ. eigenvalues --  -10.19843 -10.19742 -10.19738 -10.19589 -10.19545
 Alpha  occ. eigenvalues --  -10.19496 -10.19470 -10.19246 -10.19227 -10.19204
 Alpha  occ. eigenvalues --  -10.19193 -10.19103 -10.18981 -10.18695 -10.18639
 Alpha  occ. eigenvalues --  -10.18595 -10.18552 -10.18290 -10.18244 -10.18202
 Alpha  occ. eigenvalues --  -10.18050 -10.17958 -10.17825 -10.17774  -1.10347
 Alpha  occ. eigenvalues --   -1.09437  -1.03130  -1.01750  -1.00887  -1.00049
 Alpha  occ. eigenvalues --   -0.97626  -0.95952  -0.93914  -0.84452  -0.84155
 Alpha  occ. eigenvalues --   -0.81407  -0.81367  -0.81307  -0.80897  -0.80067
 Alpha  occ. eigenvalues --   -0.79814  -0.79777  -0.79529  -0.79219  -0.77552
 Alpha  occ. eigenvalues --   -0.76679  -0.76015  -0.75287  -0.74279  -0.74014
 Alpha  occ. eigenvalues --   -0.73802  -0.72942  -0.72261  -0.71707  -0.70842
 Alpha  occ. eigenvalues --   -0.69669  -0.69297  -0.68553  -0.68139  -0.67760
 Alpha  occ. eigenvalues --   -0.67250  -0.66914  -0.66194  -0.65787  -0.65186
 Alpha  occ. eigenvalues --   -0.64304  -0.62792  -0.62529  -0.61297  -0.61122
 Alpha  occ. eigenvalues --   -0.60629  -0.59027  -0.58675  -0.58317  -0.58043
 Alpha  occ. eigenvalues --   -0.57091  -0.56375  -0.56215  -0.55628  -0.54750
 Alpha  occ. eigenvalues --   -0.54597  -0.54259  -0.54237  -0.53196  -0.52793
 Alpha  occ. eigenvalues --   -0.52226  -0.51675  -0.51527  -0.50751  -0.50162
 Alpha  occ. eigenvalues --   -0.50015  -0.49396  -0.49040  -0.48455  -0.48306
 Alpha  occ. eigenvalues --   -0.48198  -0.47883  -0.47416  -0.47213  -0.46917
 Alpha  occ. eigenvalues --   -0.46682  -0.46027  -0.45910  -0.45821  -0.45503
 Alpha  occ. eigenvalues --   -0.45331  -0.44949  -0.44854  -0.44600  -0.44525
 Alpha  occ. eigenvalues --   -0.44478  -0.44436  -0.44125  -0.44068  -0.43902
 Alpha  occ. eigenvalues --   -0.43259  -0.43130  -0.42833  -0.42691  -0.42540
 Alpha  occ. eigenvalues --   -0.42158  -0.42053  -0.41798  -0.41621  -0.41550
 Alpha  occ. eigenvalues --   -0.41176  -0.41058  -0.40717  -0.40604  -0.40344
 Alpha  occ. eigenvalues --   -0.40045  -0.39884  -0.39670  -0.39560  -0.39427
 Alpha  occ. eigenvalues --   -0.39133  -0.39031  -0.38848  -0.38809  -0.38591
 Alpha  occ. eigenvalues --   -0.38294  -0.38229  -0.38068  -0.37776  -0.37581
 Alpha  occ. eigenvalues --   -0.37385  -0.37167  -0.37127  -0.36779  -0.36499
 Alpha  occ. eigenvalues --   -0.36398  -0.36260  -0.36201  -0.36142  -0.35968
 Alpha  occ. eigenvalues --   -0.35663  -0.35575  -0.35172  -0.35066  -0.34999
 Alpha  occ. eigenvalues --   -0.34477  -0.34282  -0.34164  -0.34098  -0.33547
 Alpha  occ. eigenvalues --   -0.33377  -0.33133  -0.32935  -0.32515  -0.32392
 Alpha  occ. eigenvalues --   -0.32238  -0.31798  -0.31594  -0.31493  -0.31135
 Alpha  occ. eigenvalues --   -0.30878  -0.30540  -0.30319  -0.30209  -0.30102
 Alpha  occ. eigenvalues --   -0.29617  -0.29532  -0.28687  -0.28263  -0.28177
 Alpha  occ. eigenvalues --   -0.28003  -0.27066  -0.27042  -0.26684  -0.26011
 Alpha  occ. eigenvalues --   -0.24748  -0.24657  -0.23594  -0.22424  -0.19637
 Alpha  occ. eigenvalues --   -0.18462
 Alpha virt. eigenvalues --   -0.10076  -0.07137  -0.04365  -0.02552  -0.01729
 Alpha virt. eigenvalues --    0.00320   0.00679   0.02981   0.03239   0.03444
 Alpha virt. eigenvalues --    0.03914   0.04248   0.04354   0.04533   0.04884

 Mulliken charges:
               1
     1  C   -0.006205
     2  C   -0.089406
     3  C   -0.041474
     4  C   -0.095923
     5  N   -0.131452
     6  C   -0.167801
     7  C    0.113467
     8  C   -0.028235
     9  C    0.002577
    10  C    0.080738
    11  C    0.103553
    12  C    0.060917
    13  C    0.125524
    14  O   -0.199114
    15  O   -0.327368
    16  N   -0.077354
    17  C    0.111208
    18  C   -0.210032
    19  C    0.098035
    20  C   -0.008544
    21  C    0.124377
    22  C   -0.118990
    23  C   -0.135884
    24  N   -0.231444
    25  C    0.156816
    26  C   -0.052624
    27  C   -0.142453
    28  C    0.084110
    29  C   -0.030963
    30  C    0.079011
    31  C    0.069341
    32  N    0.041816
    33  C   -0.038700
    34  C   -0.123737
    35  C   -0.004690
    36  C    0.055145
    37  C    0.071642
    38  C    0.072055
    39  O   -0.158500
    40  C   -0.102822
    41  C    0.230611
    42  O   -0.197436
    43  O   -0.295721
    44  C    0.258833
    45  C    0.228565
    46  C   -0.023701
    47  C   -0.105322
    48  C   -0.043965
    49  C    0.121689
    50  C    0.040936
    51  C   -0.087180
    52  C   -0.051298
    53  C    0.052338
    54  C   -0.004806
    55  C   -0.006762
    56  C    0.017988
    57  C   -0.082380
    58  C    0.065559
    59  C   -0.012242
    60  C   -0.062816
    61  C    0.132142
    62  C   -0.126354
    63  C   -0.025267
    64  C    0.020646
    65  H   -0.016835
    66  H   -0.053323
    67  H    0.006476
    68  H   -0.108175
    69  H   -0.024073
    70  H    0.026912
    71  H    0.013953
    72  H   -0.029789
    73  H   -0.023488
    74  H    0.021051
    75  H    0.037594
    76  H    0.031792
    77  H    0.038632
    78  H   -0.003409
    79  H    0.055440
    80  H    0.034650
    81  H    0.064357
    82  H    0.036239
    83  H    0.047334
    84  H    0.037775
    85  H    0.025660
    86  H   -0.015490
    87  H    0.010881
    88  H   -0.031423
    89  H    0.028112
    90  H    0.007243
    91  H    0.044007
    92  H    0.030079
    93  H    0.028583
    94  H    0.075524
    95  H   -0.029161
    96  H   -0.005847
    97  H    0.048938
    98  H    0.055115
    99  H   -0.014160
   100  H   -0.026756
   101  H    0.058732
   102  H    0.058743
   103  H    0.059393
   104  H    0.011365
   105  H   -0.079705
   106  H    0.014184
   107  H   -0.006738
   108  H   -0.002873
   109  H    0.009680
   110  H   -0.020607
   111  H    0.010383
   112  H   -0.025354
   113  H    0.033604
   114  H    0.025095
   115  H   -0.001487
   116  H    0.039211
   117  H    0.005586
   118  H   -0.014743
   119  H   -0.022995
   120  H   -0.008686
   121  H   -0.000892
   122  H    0.009984
   123  H    0.017348
   124  H   -0.010605
   125  H   -0.000567
   126  H    0.036271
   127  H    0.036330
   128  H   -0.010236
   129  H   -0.073445
   130  H    0.013438
   131  H    0.013356
   132  H    0.026098
   133  H    0.009018
   134  H    0.001028
   135  H    0.031746
   136  H    0.010085
   137  H    0.194744
   138  H    0.158421
 Sum of Mulliken charges =  -0.00000

 Dipole moment (field-independent basis, Debye):
    X=              4.2133    Y=              2.3313    Z=             -0.1510  Tot=              4.8177
 Quadrupole moment (field-independent basis, Debye-Ang):
   XX=           -366.6467   YY=           -388.8670   ZZ=           -395.7409
   XY=             -9.2932   XZ=             10.7394   YZ=             -1.7782

 Normal termination of Gaussian 16 at Sun Aug 18 22:08:27 2019.
