 Gaussian 16, Revision A.03,
 Gaussian 16:  ES64L-G16RevA.03 25-Dec-2016

 --------------------------
 # td=(NStates=1) B3LYP/SVP
 --------------------------

 --
 TD
 --
 Symbolic Z-matrix:
 Charge =  0 Multiplicity = 1

                         Standard orientation:
 ---------------------------------------------------------------------
 Center     Atomic      Atomic             Coordinates (Angstroms)
 Number     Number       Type             X           Y           Z
 ---------------------------------------------------------------------
      1          6           0       -5.185395   -1.929250    0.397861
      2          6           0       -4.716977    2.764210    1.536744
      3          6           0       -9.245313    3.501655   -0.202770
      4          6           0       -9.882716   -1.257945   -0.897623
      5          7           0       -5.202662    0.457456    0.953767
      6          6           0       -4.536781   -0.802848    0.846519
      7          6           0       -3.074764   -0.679435    1.233759
      8          6           0       -3.073011    0.821630    1.904792
      9          6           0       -4.385909    1.346055    1.418471
     10          6           0       -2.867630    0.800089    3.434141
     11          6           0       -2.040609   -0.882305    0.054145
     12          6           0       -0.545190   -0.990478    0.485891
     13          6           0        0.422442   -1.228137   -0.711280
     14          8           0        0.056113   -1.464864   -1.799792
     15          8           0        1.688113   -0.957082   -0.273733
     16          7           0       -6.948485    2.819235    0.479343
     17          6           0       -5.915420    3.394409    1.075905
     18          6           0       -6.089232    4.824636    1.019598
     19          6           0       -7.369991    5.036759    0.530555
     20          6           0       -7.976586    3.653113    0.211236
     21          6           0       -5.185601    5.727353    1.727719
     22          6           0       -7.971845    6.353495    0.328406
     23          6           0       -8.810530    6.697904   -0.599134
     24          7           0       -9.251230    1.024209   -0.496026
     25          6           0       -9.911608    2.231809   -0.554743
     26          6           0      -11.214497    2.065358   -0.993820
     27          6           0      -11.388048    0.638215   -1.207233
     28          6           0      -10.093503    0.032720   -0.815074
     29          6           0      -12.240384    3.206195   -1.138005
     30          6           0      -12.555438   -0.141298   -1.683819
     31          6           0      -12.587198   -0.329186   -3.190177
     32          7           0       -7.535359   -1.185838   -0.301107
     33          6           0       -8.673508   -1.929144   -0.504547
     34          6           0       -8.327374   -3.386546   -0.467756
     35          6           0       -6.986520   -3.412995   -0.141826
     36          6           0       -6.499501   -2.008467    0.044197
     37          6           0       -9.088506   -4.604700   -0.975445
     38          6           0       -5.883348   -4.283855    0.021685
     39          8           0       -5.862597   -5.480154   -0.102738
     40          6           0       -4.654072   -3.352738    0.376827
     41          6           0       -4.107870   -3.909687    1.656370
     42          8           0       -4.238281   -3.544772    2.812650
     43          8           0       -3.225596   -4.969356    1.246875
     44          6           0       -2.667136   -5.617287    2.467764
     45          6           0        2.782068   -0.994162   -1.225274
     46          6           0        3.979122   -0.689045   -0.487794
     47          6           0        5.085357    0.018080   -1.174031
     48          6           0        4.886980    0.463380   -2.516573
     49          6           0        6.375867    0.161791   -0.420515
     50          6           0        7.536190   -0.666120   -0.964265
     51          6           0        8.822568   -0.112619   -0.174652
     52          6           0       10.133858   -0.737764   -0.749928
     53          6           0        9.985290   -2.285180   -0.594044
     54          6           0       11.322029   -0.221284    0.140437
     55          6           0       12.647630   -0.650855   -0.529727
     56          6           0       13.859641   -0.021748    0.255417
     57          6           0       15.297770   -0.245932   -0.285300
     58          6           0       15.585903   -1.813586   -0.079723
     59          6           0       16.222440    0.712326    0.415534
     60          6           0       17.641021    0.678422   -0.103919
     61          6           0       18.570681    1.732144    0.564660
     62          6           0       20.043738    1.825983    0.009860
     63          6           0       20.078074    2.054852   -1.518852
     64          6           0       20.913766    2.881959    0.935384
     65          1           0       -3.938484    3.406057    2.042887
     66          1           0       -9.810908    4.470656   -0.256318
     67          1           0      -10.699353   -2.043652   -1.181893
     68          1           0       -2.459300   -1.395430    2.046007
     69          1           0       -2.285043    1.310571    1.432151
     70          1           0       -1.721881    0.581575    3.629711
     71          1           0       -2.684308    1.907496    3.905790
     72          1           0       -3.536742    0.118015    3.908429
     73          1           0       -2.238639   -1.681592   -0.574413
     74          1           0       -2.072119    0.071620   -0.546763
     75          1           0        0.009207   -0.353825    1.169387
     76          1           0       -0.349653   -1.923046    1.092225
     77          1           0       -4.044573    5.632200    1.349542
     78          1           0       -5.157105    6.931958    1.358284
     79          1           0       -5.118923    5.711915    2.800401
     80          1           0       -7.667799    7.083177    1.091994
     81          1           0       -9.202576    6.019444   -1.293245
     82          1           0       -9.516925    7.821792   -0.775836
     83          1           0      -12.492143    3.582216   -0.163060
     84          1           0      -11.958859    4.013056   -1.714865
     85          1           0      -13.122185    2.678193   -1.302851
     86          1           0      -12.734993   -1.173658   -1.232683
     87          1           0      -13.360680    0.431823   -1.567838
     88          1           0      -12.573852    0.669513   -3.673785
     89          1           0      -11.770588   -0.966339   -3.685976
     90          1           0      -13.509979   -0.847564   -3.354807
     91          1           0       -9.933339   -4.787178   -0.286596
     92          1           0       -9.504062   -4.475529   -2.124082
     93          1           0       -8.316128   -5.552043   -0.917746
     94          1           0       -3.906547   -3.682204   -0.484298
     95          1           0       -2.372505   -6.756594    2.013748
     96          1           0       -1.754001   -5.218537    2.866444
     97          1           0       -3.659085   -5.688781    3.075060
     98          1           0        2.591628   -2.042820   -1.711473
     99          1           0        2.634859   -0.123611   -2.116648
    100          1           0        4.192752   -1.060707    0.497973
    101          1           0        5.327753    1.632434   -2.658193
    102          1           0        5.499617   -0.171795   -3.199581
    103          1           0        3.869657    0.349884   -2.895973
    104          1           0        6.582233    1.223142   -0.481384
    105          1           0        6.223109    0.054356    0.707355
    106          1           0        7.251451   -1.708760   -0.950225
    107          1           0        7.626287   -0.286665   -1.968080
    108          1           0        8.988697    0.930197   -0.379272
    109          1           0        8.581988   -0.468400    0.897767
    110          1           0       10.140366   -0.449531   -1.800677
    111          1           0        9.229030   -2.902061   -1.256206
    112          1           0       10.786955   -2.806153   -0.967051
    113          1           0        9.918300   -2.517220    0.530569
    114          1           0       11.166125    0.812471    0.411792
    115          1           0       11.060468   -0.641927    0.997410
    116          1           0       12.718212   -1.610248   -0.391703
    117          1           0       12.803263   -0.247609   -1.660181
    118          1           0       13.799908    1.110279    0.313577
    119          1           0       13.743779   -0.453410    1.217254
    120          1           0       15.190572    0.000155   -1.388443
    121          1           0       14.639433   -2.475351   -0.554262
    122          1           0       16.510282   -2.279156   -0.424468
    123          1           0       15.605827   -1.867947    1.161189
    124          1           0       15.827864    1.769610    0.188936
    125          1           0       16.167914    0.463634    1.432586
    126          1           0       18.070524   -0.368348    0.218902
    127          1           0       17.685033    0.842281   -1.292294
    128          1           0       17.732461    2.654819    0.559063
    129          1           0       18.612793    1.351972    1.590249
    130          1           0       20.590721    0.772399    0.131058
    131          1           0       20.015406    3.262212   -1.799148
    132          1           0       21.052026    1.871774   -1.923579
    133          1           0       19.240926    1.365621   -2.045810
    134          1           0       20.928889    2.669269    2.018351
    135          1           0       22.149941    2.794885    0.471780
    136          1           0       20.184338    3.805695    0.759329
    137          1           0       -7.249233    1.891299    0.463464
    138          1           0       -7.648487   -0.157239    0.016934
 ---------------------------------------------------------------------

 SCF Done:  E(RB3LYP) =  -2733.01844960     A.U. after   18 cycles

 Excitation energies and oscillator strengths:

 Excited State   1:      Singlet-A      2.1431 eV  578.52 nm  f=0.1209  <S**2>=0.000
     235 -> 238       -0.34785
     236 -> 237        0.60921
 This state for optimization and/or second-order correction.
 Total Energy, E(TD-HF/TD-DFT) =  -2732.93969135
 Copying the excited state density for this state as the 1-particle RhoCI density.

 The electronic state is 1-A.
 Alpha  occ. eigenvalues --  -19.16668 -19.16317 -19.13382 -19.12571 -19.11919
 Alpha  occ. eigenvalues --  -14.37654 -14.37235 -14.32303 -14.29208 -10.31622
 Alpha  occ. eigenvalues --  -10.30895 -10.27207 -10.25857 -10.24965 -10.24577
 Alpha  occ. eigenvalues --  -10.23989 -10.23649 -10.23541 -10.23438 -10.23015
 Alpha  occ. eigenvalues --  -10.21927 -10.21912 -10.21903 -10.21783 -10.21602
 Alpha  occ. eigenvalues --  -10.21430 -10.21423 -10.21395 -10.21315 -10.20961
 Alpha  occ. eigenvalues --  -10.20903 -10.20800 -10.20778 -10.20668 -10.20651
 Alpha  occ. eigenvalues --  -10.20557 -10.20478 -10.20368 -10.20318 -10.20032
 Alpha  occ. eigenvalues --  -10.19992 -10.19932 -10.19927 -10.19806 -10.19797
 Alpha  occ. eigenvalues --  -10.19607 -10.19478 -10.19462 -10.19210 -10.19197
 Alpha  occ. eigenvalues --  -10.19018 -10.19000 -10.18913 -10.18709 -10.18597
 Alpha  occ. eigenvalues --  -10.18521 -10.18502 -10.18402 -10.18382 -10.18269
 Alpha  occ. eigenvalues --  -10.18147 -10.17814 -10.17685 -10.17458  -1.08909
 Alpha  occ. eigenvalues --   -1.06450  -1.03167  -1.01762  -1.00399  -0.98828
 Alpha  occ. eigenvalues --   -0.97842  -0.94274  -0.93139  -0.85399  -0.82781
 Alpha  occ. eigenvalues --   -0.82732  -0.81921  -0.81330  -0.80825  -0.79856
 Alpha  occ. eigenvalues --   -0.79742  -0.79456  -0.79102  -0.78425  -0.77321
 Alpha  occ. eigenvalues --   -0.76829  -0.76193  -0.75474  -0.75173  -0.74411
 Alpha  occ. eigenvalues --   -0.73164  -0.72726  -0.72348  -0.71317  -0.70425
 Alpha  occ. eigenvalues --   -0.69343  -0.68688  -0.67874  -0.67659  -0.66794
 Alpha  occ. eigenvalues --   -0.66716  -0.66096  -0.65794  -0.65693  -0.64732
 Alpha  occ. eigenvalues --   -0.64151  -0.62816  -0.62570  -0.61607  -0.61371
 Alpha  occ. eigenvalues --   -0.60736  -0.59239  -0.58851  -0.57942  -0.57052
 Alpha  occ. eigenvalues --   -0.56933  -0.56496  -0.56049  -0.54937  -0.54851
 Alpha  occ. eigenvalues --   -0.54666  -0.54404  -0.53583  -0.53091  -0.53032
 Alpha  occ. eigenvalues --   -0.52265  -0.51796  -0.51041  -0.50695  -0.49820
 Alpha  occ. eigenvalues --   -0.49549  -0.49408  -0.49343  -0.48637  -0.48344
 Alpha  occ. eigenvalues --   -0.48105  -0.47465  -0.47204  -0.47186  -0.46770
 Alpha  occ. eigenvalues --   -0.46414  -0.46217  -0.46101  -0.45755  -0.45661
 Alpha  occ. eigenvalues --   -0.45354  -0.45079  -0.45017  -0.44713  -0.44594
 Alpha  occ. eigenvalues --   -0.44423  -0.44071  -0.43873  -0.43536  -0.43421
 Alpha  occ. eigenvalues --   -0.43211  -0.43161  -0.43087  -0.42836  -0.42752
 Alpha  occ. eigenvalues --   -0.42282  -0.41909  -0.41825  -0.41717  -0.41380
 Alpha  occ. eigenvalues --   -0.41246  -0.41073  -0.40687  -0.40589  -0.40255
 Alpha  occ. eigenvalues --   -0.40166  -0.39934  -0.39799  -0.39593  -0.39226
 Alpha  occ. eigenvalues --   -0.39009  -0.38869  -0.38448  -0.38336  -0.38068
 Alpha  occ. eigenvalues --   -0.38029  -0.37790  -0.37665  -0.37418  -0.37326
 Alpha  occ. eigenvalues --   -0.37023  -0.36935  -0.36645  -0.36617  -0.36366
 Alpha  occ. eigenvalues --   -0.36227  -0.36152  -0.35948  -0.35903  -0.35279
 Alpha  occ. eigenvalues --   -0.35065  -0.34791  -0.34708  -0.34545  -0.34295
 Alpha  occ. eigenvalues --   -0.34233  -0.34104  -0.33983  -0.33686  -0.33623
 Alpha  occ. eigenvalues --   -0.33528  -0.33256  -0.33186  -0.32886  -0.32701
 Alpha  occ. eigenvalues --   -0.32241  -0.32160  -0.31880  -0.31686  -0.31430
 Alpha  occ. eigenvalues --   -0.31373  -0.31112  -0.30800  -0.30738  -0.29815
 Alpha  occ. eigenvalues --   -0.29667  -0.29067  -0.28581  -0.28073  -0.27833
 Alpha  occ. eigenvalues --   -0.27744  -0.27143  -0.26725  -0.26623  -0.25464
 Alpha  occ. eigenvalues --   -0.25064  -0.24818  -0.22590  -0.21598  -0.20038
 Alpha  occ. eigenvalues --   -0.19042
 Alpha virt. eigenvalues --   -0.09775  -0.08344  -0.05080  -0.02448  -0.01745
 Alpha virt. eigenvalues --   -0.00622   0.01009   0.01263   0.02081   0.03448
 Alpha virt. eigenvalues --    0.03787   0.03933   0.03944   0.04177   0.04311

 Mulliken charges:
               1
     1  C    0.052276
     2  C   -0.076002
     3  C   -0.116151
     4  C   -0.126632
     5  N   -0.162625
     6  C   -0.001140
     7  C   -0.149324
     8  C    0.035305
     9  C   -0.027893
    10  C    0.031571
    11  C    0.127116
    12  C   -0.015168
    13  C    0.148846
    14  O   -0.185871
    15  O   -0.343332
    16  N    0.063129
    17  C    0.085459
    18  C   -0.067574
    19  C   -0.003075
    20  C    0.082154
    21  C   -0.019041
    22  C   -0.008798
    23  C   -0.080310
    24  N   -0.262201
    25  C    0.070946
    26  C   -0.197393
    27  C   -0.119729
    28  C    0.149839
    29  C    0.236126
    30  C    0.137225
    31  C   -0.010789
    32  N   -0.055158
    33  C   -0.005985
    34  C   -0.114460
    35  C    0.021465
    36  C    0.073788
    37  C   -0.012050
    38  C    0.005062
    39  O   -0.155721
    40  C   -0.085052
    41  C    0.245115
    42  O   -0.218731
    43  O   -0.373780
    44  C    0.117653
    45  C    0.199724
    46  C   -0.058721
    47  C   -0.187472
    48  C    0.071351
    49  C    0.067973
    50  C    0.050566
    51  C    0.005567
    52  C   -0.087254
    53  C    0.014352
    54  C    0.111935
    55  C    0.134991
    56  C   -0.007791
    57  C   -0.054402
    58  C   -0.065533
    59  C    0.061305
    60  C   -0.053321
    61  C    0.007520
    62  C   -0.100431
    63  C   -0.016808
    64  C   -0.055243
    65  H   -0.010012
    66  H   -0.005538
    67  H    0.014617
    68  H    0.043327
    69  H   -0.031657
    70  H    0.016406
    71  H    0.021857
    72  H    0.046021
    73  H    0.005771
    74  H    0.011992
    75  H    0.013470
    76  H    0.014648
    77  H    0.031003
    78  H    0.033957
    79  H    0.046721
    80  H    0.010620
    81  H    0.012480
    82  H    0.052114
    83  H   -0.007767
    84  H    0.007338
    85  H   -0.031245
    86  H    0.011314
    87  H   -0.054837
    88  H    0.014680
    89  H    0.019040
    90  H   -0.000156
    91  H    0.034840
    92  H    0.060014
    93  H    0.077940
    94  H    0.095871
    95  H    0.043063
    96  H    0.045365
    97  H    0.070308
    98  H    0.042266
    99  H    0.058557
   100  H   -0.015005
   101  H    0.032363
   102  H    0.033427
   103  H   -0.002376
   104  H   -0.018767
   105  H   -0.002988
   106  H    0.014797
   107  H   -0.018293
   108  H    0.000151
   109  H    0.013119
   110  H   -0.013020
   111  H    0.018516
   112  H   -0.022288
   113  H    0.014600
   114  H   -0.025555
   115  H   -0.066022
   116  H   -0.052893
   117  H    0.016992
   118  H   -0.006702
   119  H   -0.026837
   120  H   -0.009959
   121  H    0.038850
   122  H    0.026243
   123  H    0.017867
   124  H    0.004706
   125  H   -0.021228
   126  H    0.005500
   127  H    0.020011
   128  H    0.012416
   129  H   -0.006318
   130  H    0.012345
   131  H    0.015214
   132  H    0.003311
   133  H    0.044426
   134  H    0.030060
   135  H    0.041680
   136  H    0.042166
   137  H    0.112804
   138  H    0.194901
 Sum of Mulliken charges =  -0.00000

 Dipole moment (field-independent basis, Debye):
    X=              3.1353    Y=              4.2966    Z=              0.9332  Tot=              5.4001
 Quadrupole moment (field-independent basis, Debye-Ang):
   XX=           -341.8400   YY=           -391.5832   ZZ=           -396.9094
   XY=            -33.3598   XZ=              6.4729   YZ=              3.2760

 Normal termination of Gaussian 16 at Mon Aug 12 19:54:25 2019.
