 Gaussian 16, Revision A.03,
 Gaussian 16:  ES64L-G16RevA.03 25-Dec-2016

 --------------------------
 # td=(NStates=1) B3LYP/SVP
 --------------------------

 --
 TD
 --
 Symbolic Z-matrix:
 Charge =  0 Multiplicity = 1

                         Standard orientation:
 ---------------------------------------------------------------------
 Center     Atomic      Atomic             Coordinates (Angstroms)
 Number     Number       Type             X           Y           Z
 ---------------------------------------------------------------------
      1          6           0       -5.186842   -2.021252    0.418419
      2          6           0       -4.741127    2.697396    1.498057
      3          6           0       -9.298109    3.452880   -0.193210
      4          6           0       -9.806258   -1.291096   -0.949548
      5          7           0       -5.233876    0.454527    0.878745
      6          6           0       -4.501081   -0.754307    0.780531
      7          6           0       -3.076627   -0.586074    1.269145
      8          6           0       -3.085872    0.867586    1.787744
      9          6           0       -4.448168    1.354731    1.436911
     10          6           0       -2.803011    0.902333    3.309355
     11          6           0       -2.029232   -0.816795    0.099681
     12          6           0       -0.633439   -0.826083    0.579621
     13          6           0        0.263146   -1.019930   -0.585319
     14          8           0       -0.022373   -1.176658   -1.679634
     15          8           0        1.656816   -0.868291   -0.122590
     16          7           0       -7.085189    2.708592    0.617998
     17          6           0       -5.904418    3.270800    1.072749
     18          6           0       -6.086434    4.757957    1.131631
     19          6           0       -7.354758    4.932380    0.438646
     20          6           0       -7.994991    3.652323    0.224483
     21          6           0       -5.113765    5.775216    1.505084
     22          6           0       -7.919334    6.290769    0.201403
     23          6           0       -8.940428    6.734566   -0.512118
     24          7           0       -9.219921    1.032250   -0.443448
     25          6           0       -9.881520    2.202012   -0.513363
     26          6           0      -11.309251    1.957318   -1.024066
     27          6           0      -11.423855    0.643260   -1.129421
     28          6           0      -10.173484    0.059753   -0.913878
     29          6           0      -12.277027    3.116396   -1.145253
     30          6           0      -12.608899   -0.105453   -1.577333
     31          6           0      -12.710314   -0.203756   -3.157238
     32          7           0       -7.638036   -1.174048   -0.174193
     33          6           0       -8.679625   -1.944928   -0.568720
     34          6           0       -8.282689   -3.403959   -0.606720
     35          6           0       -6.930628   -3.401181   -0.221756
     36          6           0       -6.540569   -2.011770    0.028103
     37          6           0       -9.135379   -4.479620   -1.040290
     38          6           0       -5.865011   -4.225886    0.030430
     39          8           0       -5.695597   -5.442313   -0.072377
     40          6           0       -4.656164   -3.340314    0.364929
     41          6           0       -3.990736   -3.813734    1.718994
     42          8           0       -4.179318   -3.355141    2.801601
     43          8           0       -3.296733   -4.930662    1.435140
     44          6           0       -2.666842   -5.599474    2.564260
     45          6           0        2.584778   -1.272027   -1.169631
     46          6           0        3.965761   -0.989793   -0.623675
     47          6           0        5.017036   -0.205139   -1.077798
     48          6           0        4.999322    0.529089   -2.391866
     49          6           0        6.297783   -0.109176   -0.236777
     50          6           0        7.580812   -0.675657   -0.977139
     51          6           0        8.797808   -0.411012   -0.078157
     52          6           0       10.118138   -1.085551   -0.733467
     53          6           0       10.157339   -2.611086   -0.809009
     54          6           0       11.301133   -0.350506    0.035094
     55          6           0       12.743011   -0.684435   -0.680219
     56          6           0       13.837948   -0.047049    0.208828
     57          6           0       15.283964   -0.115457   -0.406044
     58          6           0       15.795458   -1.486793   -0.433343
     59          6           0       16.244596    0.744559    0.440334
     60          6           0       17.748809    0.646219   -0.060180
     61          6           0       18.525761    1.895326    0.606988
     62          6           0       20.056106    1.883990    0.167441
     63          6           0       20.282232    2.276868   -1.458433
     64          6           0       20.862527    2.867668    1.002423
     65          1           0       -3.938653    3.517476    1.594812
     66          1           0       -9.898381    4.400202   -0.512690
     67          1           0      -10.623236   -1.793933   -1.403093
     68          1           0       -2.798671   -1.337227    2.045229
     69          1           0       -2.361465    1.544511    1.287024
     70          1           0       -1.780189    0.535709    3.674000
     71          1           0       -3.013014    2.013699    3.782706
     72          1           0       -3.350814    0.190843    3.808656
     73          1           0       -2.143111   -1.768094   -0.475151
     74          1           0       -2.312915   -0.108446   -0.527338
     75          1           0       -0.172702    0.143652    0.779711
     76          1           0       -0.309407   -1.475199    1.520175
     77          1           0       -4.343761    5.816233    0.497985
     78          1           0       -5.698128    6.652210    1.547759
     79          1           0       -4.426823    5.449928    2.405565
     80          1           0       -7.503322    7.104782    0.685007
     81          1           0       -9.482171    6.161897   -1.393519
     82          1           0       -9.269013    7.764074   -0.465681
     83          1           0      -12.195028    3.804763   -0.243714
     84          1           0      -11.987871    3.810473   -1.920810
     85          1           0      -13.358492    2.659986   -1.205527
     86          1           0      -12.497767   -1.174196   -1.273801
     87          1           0      -13.627509    0.256045   -1.316948
     88          1           0      -12.813027    0.781721   -3.674301
     89          1           0      -11.957953   -0.970915   -3.526393
     90          1           0      -13.734150   -0.758030   -3.267039
     91          1           0      -10.382364   -4.335779   -0.854078
     92          1           0       -9.086049   -4.669224   -2.334198
     93          1           0       -8.632256   -5.565174   -0.584772
     94          1           0       -3.981188   -3.737133   -0.505352
     95          1           0       -2.231545   -6.590137    2.140722
     96          1           0       -1.969275   -4.822411    3.158407
     97          1           0       -3.472312   -5.733851    3.364057
     98          1           0        2.616513   -2.369186   -1.451139
     99          1           0        2.470666   -0.828173   -2.129549
    100          1           0        4.213178   -1.493843    0.325979
    101          1           0        5.318901    1.549379   -2.035210
    102          1           0        5.658371    0.202886   -2.994186
    103          1           0        4.004790    0.399181   -2.868196
    104          1           0        6.567897    0.856668    0.072373
    105          1           0        6.029222   -0.756269    0.679553
    106          1           0        7.255338   -1.634992   -1.206425
    107          1           0        7.674512   -0.197162   -2.017657
    108          1           0        8.851718    0.667228    0.106477
    109          1           0        8.738950   -0.841430    0.905576
    110          1           0       10.082165   -0.840884   -1.713346
    111          1           0        9.191562   -2.914534   -1.133354
    112          1           0       10.929040   -2.948331   -1.452195
    113          1           0       10.213997   -3.076843    0.195593
    114          1           0       11.125830    0.769930   -0.027880
    115          1           0       11.480656   -0.888903    1.010670
    116          1           0       12.909400   -1.677067   -0.810798
    117          1           0       12.825717   -0.275001   -1.642877
    118          1           0       13.700801    0.992290    0.314646
    119          1           0       13.687654   -0.622081    1.111532
    120          1           0       15.249273    0.221423   -1.451259
    121          1           0       15.177949   -2.230094   -1.106018
    122          1           0       16.717445   -1.649776   -0.780962
    123          1           0       15.798544   -1.624652    0.680531
    124          1           0       15.812963    1.722456    0.558438
    125          1           0       16.212036    0.292159    1.396459
    126          1           0       18.237851   -0.158649   -0.025438
    127          1           0       17.795428    0.813753   -1.142389
    128          1           0       17.996787    2.899161    0.489679
    129          1           0       18.496632    1.958756    1.700497
    130          1           0       20.588719    0.769116    0.354873
    131          1           0       19.920160    3.307217   -1.616588
    132          1           0       21.381910    2.110108   -1.787247
    133          1           0       19.772822    1.482306   -2.028481
    134          1           0       20.982182    2.882939    2.300813
    135          1           0       21.873096    2.850679    0.692570
    136          1           0       20.735239    4.137992    0.697119
    137          1           0       -7.168820    1.772965    0.426200
    138          1           0       -7.683213   -0.096508   -0.340524
 ---------------------------------------------------------------------

 SCF Done:  E(RB3LYP) =  -2733.06410319     A.U. after   17 cycles

 Excitation energies and oscillator strengths:

 Excited State   1:      Singlet-A      1.9631 eV  631.57 nm  f=0.1607  <S**2>=0.000
     235 -> 238        0.31451
     236 -> 237        0.63118
 This state for optimization and/or second-order correction.
 Total Energy, E(TD-HF/TD-DFT) =  -2732.99195989
 Copying the excited state density for this state as the 1-particle RhoCI density.

 The electronic state is 1-A.
 Alpha  occ. eigenvalues --  -19.17836 -19.15971 -19.14607 -19.13171 -19.10801
 Alpha  occ. eigenvalues --  -14.37522 -14.36682 -14.32787 -14.30315 -10.31787
 Alpha  occ. eigenvalues --  -10.31486 -10.26385 -10.26331 -10.24138 -10.24044
 Alpha  occ. eigenvalues --  -10.23982 -10.23930 -10.23857 -10.23806 -10.23459
 Alpha  occ. eigenvalues --  -10.22549 -10.22537 -10.22306 -10.21822 -10.21527
 Alpha  occ. eigenvalues --  -10.21364 -10.21258 -10.21214 -10.21143 -10.20884
 Alpha  occ. eigenvalues --  -10.20800 -10.20595 -10.20489 -10.20327 -10.20272
 Alpha  occ. eigenvalues --  -10.20172 -10.20119 -10.19920 -10.19729 -10.19706
 Alpha  occ. eigenvalues --  -10.19688 -10.19522 -10.19515 -10.19381 -10.19302
 Alpha  occ. eigenvalues --  -10.19163 -10.19139 -10.19046 -10.18889 -10.18754
 Alpha  occ. eigenvalues --  -10.18531 -10.18354 -10.18215 -10.17981 -10.17978
 Alpha  occ. eigenvalues --  -10.17844 -10.17619 -10.17544 -10.17480 -10.17361
 Alpha  occ. eigenvalues --  -10.17226 -10.16883 -10.16701 -10.16431  -1.10559
 Alpha  occ. eigenvalues --   -1.09681  -1.01618  -1.01043  -1.00331  -0.98166
 Alpha  occ. eigenvalues --   -0.97807  -0.94592  -0.92723  -0.86492  -0.82527
 Alpha  occ. eigenvalues --   -0.81975  -0.81790  -0.81431  -0.81174  -0.80100
 Alpha  occ. eigenvalues --   -0.79901  -0.79459  -0.78817  -0.78155  -0.77897
 Alpha  occ. eigenvalues --   -0.76852  -0.75803  -0.75518  -0.74605  -0.74003
 Alpha  occ. eigenvalues --   -0.73301  -0.72931  -0.72152  -0.71800  -0.71472
 Alpha  occ. eigenvalues --   -0.70075  -0.69629  -0.68400  -0.68041  -0.67126
 Alpha  occ. eigenvalues --   -0.66849  -0.66080  -0.65769  -0.65517  -0.64684
 Alpha  occ. eigenvalues --   -0.63559  -0.63065  -0.62752  -0.62016  -0.61594
 Alpha  occ. eigenvalues --   -0.61120  -0.59385  -0.58647  -0.58074  -0.57743
 Alpha  occ. eigenvalues --   -0.57408  -0.56318  -0.55890  -0.55531  -0.55167
 Alpha  occ. eigenvalues --   -0.55159  -0.54541  -0.54290  -0.53925  -0.52751
 Alpha  occ. eigenvalues --   -0.52437  -0.51735  -0.51582  -0.50750  -0.50480
 Alpha  occ. eigenvalues --   -0.50149  -0.49649  -0.49261  -0.48757  -0.48414
 Alpha  occ. eigenvalues --   -0.48074  -0.47806  -0.47574  -0.47276  -0.47241
 Alpha  occ. eigenvalues --   -0.46592  -0.46197  -0.46026  -0.45839  -0.45372
 Alpha  occ. eigenvalues --   -0.45274  -0.45077  -0.44612  -0.44589  -0.44473
 Alpha  occ. eigenvalues --   -0.44236  -0.44152  -0.43885  -0.43770  -0.43679
 Alpha  occ. eigenvalues --   -0.43344  -0.43187  -0.42900  -0.42616  -0.42513
 Alpha  occ. eigenvalues --   -0.42459  -0.42159  -0.41939  -0.41604  -0.41453
 Alpha  occ. eigenvalues --   -0.41388  -0.40931  -0.40637  -0.40500  -0.40253
 Alpha  occ. eigenvalues --   -0.39903  -0.39880  -0.39642  -0.39547  -0.39308
 Alpha  occ. eigenvalues --   -0.39234  -0.38976  -0.38926  -0.38470  -0.38224
 Alpha  occ. eigenvalues --   -0.38121  -0.38037  -0.37954  -0.37542  -0.37333
 Alpha  occ. eigenvalues --   -0.37323  -0.36967  -0.36922  -0.36783  -0.36511
 Alpha  occ. eigenvalues --   -0.36336  -0.36249  -0.35953  -0.35913  -0.35695
 Alpha  occ. eigenvalues --   -0.35629  -0.35454  -0.35064  -0.34944  -0.34934
 Alpha  occ. eigenvalues --   -0.34896  -0.34488  -0.34366  -0.34027  -0.33850
 Alpha  occ. eigenvalues --   -0.33679  -0.33295  -0.33159  -0.33140  -0.33089
 Alpha  occ. eigenvalues --   -0.32946  -0.32600  -0.32170  -0.32126  -0.31691
 Alpha  occ. eigenvalues --   -0.31416  -0.31011  -0.31005  -0.30329  -0.29860
 Alpha  occ. eigenvalues --   -0.29619  -0.29377  -0.28828  -0.28769  -0.28029
 Alpha  occ. eigenvalues --   -0.27784  -0.27140  -0.26595  -0.26502  -0.25670
 Alpha  occ. eigenvalues --   -0.24224  -0.23543  -0.23193  -0.23079  -0.19901
 Alpha  occ. eigenvalues --   -0.18506
 Alpha virt. eigenvalues --   -0.10134  -0.08266  -0.05501  -0.02066  -0.00173
 Alpha virt. eigenvalues --    0.00380   0.00663   0.01031   0.01797   0.03148
 Alpha virt. eigenvalues --    0.03759   0.03863   0.04349   0.04464   0.04654

 Mulliken charges:
               1
     1  C   -0.002328
     2  C   -0.112246
     3  C   -0.110635
     4  C   -0.065421
     5  N   -0.177723
     6  C   -0.021045
     7  C   -0.030049
     8  C   -0.001843
     9  C    0.033384
    10  C    0.026515
    11  C    0.099980
    12  C    0.026472
    13  C    0.155300
    14  O   -0.136755
    15  O   -0.400746
    16  N    0.000313
    17  C    0.105333
    18  C   -0.154886
    19  C    0.042423
    20  C    0.117053
    21  C    0.038390
    22  C    0.000230
    23  C   -0.093823
    24  N   -0.294575
    25  C    0.033393
    26  C   -0.128528
    27  C   -0.017169
    28  C    0.025198
    29  C    0.090795
    30  C    0.019463
    31  C   -0.038009
    32  N   -0.080055
    33  C    0.105928
    34  C   -0.025952
    35  C    0.061438
    36  C    0.126210
    37  C   -0.128945
    38  C   -0.026768
    39  O   -0.195455
    40  C   -0.085596
    41  C    0.189667
    42  O   -0.198131
    43  O   -0.291646
    44  C    0.122180
    45  C    0.326796
    46  C   -0.118828
    47  C   -0.199572
    48  C    0.181992
    49  C    0.069952
    50  C   -0.010522
    51  C    0.054758
    52  C   -0.043878
    53  C    0.081577
    54  C    0.013333
    55  C    0.058842
    56  C    0.065053
    57  C   -0.079793
    58  C    0.059466
    59  C    0.076455
    60  C    0.127147
    61  C    0.024732
    62  C   -0.135682
    63  C   -0.013247
    64  C   -0.038884
    65  H    0.003739
    66  H   -0.001189
    67  H   -0.060794
    68  H    0.017705
    69  H    0.005339
    70  H    0.015866
    71  H    0.029879
    72  H    0.003584
    73  H    0.026099
    74  H   -0.038881
    75  H    0.028479
    76  H    0.067006
    77  H    0.060744
    78  H    0.021799
    79  H    0.060684
    80  H   -0.034832
    81  H    0.043455
    82  H    0.018204
    83  H    0.028647
    84  H    0.015087
    85  H    0.032349
    86  H    0.000298
    87  H    0.010132
    88  H    0.034987
    89  H    0.027333
    90  H    0.011926
    91  H    0.063919
    92  H    0.065461
    93  H    0.084118
    94  H    0.080687
    95  H    0.073853
    96  H    0.042312
    97  H    0.044012
    98  H    0.013037
    99  H   -0.016991
   100  H   -0.017787
   101  H    0.015792
   102  H   -0.036472
   103  H    0.005823
   104  H   -0.015262
   105  H    0.004335
   106  H   -0.011892
   107  H    0.007038
   108  H   -0.008818
   109  H   -0.016104
   110  H   -0.049313
   111  H   -0.016229
   112  H    0.014854
   113  H   -0.004695
   114  H    0.017698
   115  H    0.009213
   116  H   -0.035668
   117  H   -0.036439
   118  H   -0.025358
   119  H   -0.017671
   120  H   -0.023165
   121  H    0.011183
   122  H   -0.031497
   123  H   -0.005345
   124  H   -0.014390
   125  H   -0.023369
   126  H   -0.067747
   127  H   -0.013999
   128  H   -0.003834
   129  H   -0.011406
   130  H    0.025761
   131  H    0.034630
   132  H    0.023409
   133  H    0.015681
   134  H    0.036424
   135  H   -0.006880
   136  H    0.004836
   137  H    0.090500
   138  H    0.197073
 Sum of Mulliken charges =  -0.00000

 Dipole moment (field-independent basis, Debye):
    X=              1.5261    Y=              3.7573    Z=             -0.7235  Tot=              4.1194
 Quadrupole moment (field-independent basis, Debye-Ang):
   XX=           -361.8657   YY=           -380.5848   ZZ=           -395.8075
   XY=            -30.9412   XZ=              6.3815   YZ=             -1.3327

 Normal termination of Gaussian 16 at Sun Aug 25 01:47:35 2019.
