 Gaussian 16, Revision A.03,
 Gaussian 16:  ES64L-G16RevA.03 25-Dec-2016

 --------------------------
 # td=(NStates=1) B3LYP/SVP
 --------------------------

 --
 TD
 --
 Symbolic Z-matrix:
 Charge =  0 Multiplicity = 1

                         Standard orientation:
 ---------------------------------------------------------------------
 Center     Atomic      Atomic             Coordinates (Angstroms)
 Number     Number       Type             X           Y           Z
 ---------------------------------------------------------------------
      1          6           0       -5.123978   -1.985658    0.462703
      2          6           0       -4.871584    2.694717    1.439120
      3          6           0       -9.363273    3.238177   -0.114647
      4          6           0       -9.935625   -1.517312   -0.781254
      5          7           0       -5.224784    0.296039    0.800262
      6          6           0       -4.493537   -0.807857    0.746047
      7          6           0       -3.039858   -0.562116    1.102011
      8          6           0       -3.076597    0.893635    1.738666
      9          6           0       -4.408023    1.320684    1.312494
     10          6           0       -2.824986    1.034805    3.295760
     11          6           0       -2.061022   -0.800407   -0.011763
     12          6           0       -0.621419   -0.686389    0.389004
     13          6           0        0.356723   -0.943348   -0.685321
     14          8           0        0.073950   -1.432743   -1.765313
     15          8           0        1.590971   -0.636886   -0.273749
     16          7           0       -7.093689    2.724165    0.565726
     17          6           0       -5.951764    3.394511    1.065715
     18          6           0       -6.279626    4.767709    1.110521
     19          6           0       -7.581711    4.983777    0.673236
     20          6           0       -8.051692    3.669889    0.295425
     21          6           0       -5.250159    5.895042    1.527198
     22          6           0       -8.202137    6.237851    0.370325
     23          6           0       -9.127134    6.531569   -0.413910
     24          7           0       -9.285239    0.865902   -0.405835
     25          6           0       -9.854293    2.123784   -0.667576
     26          6           0      -11.272350    1.748904   -1.015539
     27          6           0      -11.474936    0.413517   -1.198116
     28          6           0      -10.169536   -0.132386   -0.856010
     29          6           0      -12.352741    2.874173   -1.152851
     30          6           0      -12.801491   -0.302470   -1.464189
     31          6           0      -12.688896   -0.743017   -2.997632
     32          7           0       -7.523371   -1.290339   -0.178398
     33          6           0       -8.654109   -2.041539   -0.486960
     34          6           0       -8.156856   -3.416827   -0.556005
     35          6           0       -6.827411   -3.421393   -0.225854
     36          6           0       -6.366422   -2.073977   -0.009719
     37          6           0       -9.154477   -4.589552   -0.938260
     38          6           0       -5.622347   -4.323232    0.173385
     39          8           0       -5.569018   -5.491637    0.169591
     40          6           0       -4.476969   -3.338811    0.485107
     41          6           0       -3.824966   -3.776656    1.789505
     42          8           0       -3.888197   -3.411720    2.925848
     43          8           0       -2.884647   -4.862161    1.510126
     44          6           0       -2.417752   -5.556566    2.590418
     45          6           0        2.647590   -0.824945   -1.314263
     46          6           0        3.937914   -0.421743   -0.773326
     47          6           0        4.821129    0.313470   -1.463538
     48          6           0        4.727727    0.886469   -2.816597
     49          6           0        6.155185    0.644991   -0.656084
     50          6           0        7.504297   -0.197203   -1.101118
     51          6           0        8.860976    0.130817   -0.391883
     52          6           0       10.043255   -0.529926   -0.860219
     53          6           0        9.943929   -2.074916   -1.004512
     54          6           0       11.266748   -0.050689    0.047362
     55          6           0       12.601436   -0.541420   -0.551148
     56          6           0       13.854667    0.099162    0.221153
     57          6           0       15.281153   -0.173006   -0.259293
     58          6           0       15.565541   -1.816891   -0.068995
     59          6           0       16.328535    0.666228    0.401893
     60          6           0       17.697864    0.504546   -0.015162
     61          6           0       18.668860    1.513627    0.608231
     62          6           0       20.176984    1.431874    0.265990
     63          6           0       20.387482    1.641412   -1.131092
     64          6           0       21.145109    2.225503    1.220961
     65          1           0       -4.160810    3.397412    2.079200
     66          1           0       -9.881710    4.258896   -0.533761
     67          1           0      -10.744792   -2.168025   -1.040316
     68          1           0       -2.834825   -1.343705    1.968818
     69          1           0       -2.235375    1.448468    1.217566
     70          1           0       -1.738899    0.687819    3.704317
     71          1           0       -2.879964    2.096215    3.556604
     72          1           0       -3.793069    0.479524    3.743113
     73          1           0       -2.239236   -1.873407   -0.308089
     74          1           0       -2.539179   -0.076734   -0.713830
     75          1           0       -0.295212    0.458408    0.811808
     76          1           0       -0.535944   -1.416138    1.288980
     77          1           0       -4.424658    5.865991    0.953576
     78          1           0       -5.506507    6.880215    1.351463
     79          1           0       -5.048011    5.663481    2.642767
     80          1           0       -7.747851    6.897061    1.013910
     81          1           0       -9.522469    5.903254   -1.108460
     82          1           0       -9.406774    7.571159   -0.225973
     83          1           0      -12.303525    3.475894   -0.365216
     84          1           0      -12.222721    3.528298   -1.953690
     85          1           0      -13.434147    2.554854   -1.380531
     86          1           0      -12.957379   -1.260266   -0.701051
     87          1           0      -13.635946    0.206844   -1.467993
     88          1           0      -12.362825    0.053458   -3.791820
     89          1           0      -11.878780   -1.604087   -3.319682
     90          1           0      -13.359860   -1.282597   -3.208108
     91          1           0      -10.401509   -4.437571   -0.757455
     92          1           0       -8.894131   -4.850703   -2.318198
     93          1           0       -9.029642   -5.511714   -0.205067
     94          1           0       -3.576847   -3.579929   -0.176450
     95          1           0       -1.562357   -6.206544    2.330396
     96          1           0       -1.992180   -4.795800    3.351201
     97          1           0       -3.388176   -6.063020    3.072039
     98          1           0        2.563722   -1.955638   -1.595246
     99          1           0        2.290799   -0.125636   -2.181537
    100          1           0        4.097079   -1.024053    0.154399
    101          1           0        4.908545    2.028568   -2.869731
    102          1           0        5.579989    0.548095   -3.543156
    103          1           0        3.664629    0.644929   -3.453499
    104          1           0        6.358540    1.716142   -0.895664
    105          1           0        6.075710    0.422061    0.410975
    106          1           0        7.247377   -1.506716   -1.165839
    107          1           0        7.646683    0.030806   -2.286107
    108          1           0        8.743773    1.321236   -0.275509
    109          1           0        8.788982   -0.191300    0.733916
    110          1           0       10.041217   -0.268774   -1.810719
    111          1           0        9.310120   -2.390643   -1.829716
    112          1           0       11.010942   -2.525613   -1.176762
    113          1           0        9.756492   -2.493658    0.026523
    114          1           0       11.298616    0.990164    0.077888
    115          1           0       11.156968   -0.628899    0.966280
    116          1           0       12.715803   -1.622190   -0.730882
    117          1           0       12.903635   -0.089814   -1.652731
    118          1           0       13.799646    1.225408    0.174690
    119          1           0       13.765106   -0.102601    1.231892
    120          1           0       15.268494    0.063319   -1.468110
    121          1           0       14.842853   -2.473011   -0.577367
    122          1           0       16.536127   -2.290520   -0.387031
    123          1           0       15.544000   -2.165122    1.100465
    124          1           0       15.980301    1.801609    0.354026
    125          1           0       16.136660    0.578963    1.537030
    126          1           0       18.102568   -0.560661    0.226819
    127          1           0       17.972185    0.655814   -1.199606
    128          1           0       18.260540    2.652273    0.389543
    129          1           0       18.490398    1.482126    1.909782
    130          1           0       20.343252    0.362261    0.392066
    131          1           0       20.319093    2.763350   -1.601370
    132          1           0       21.675114    1.444212   -1.255865
    133          1           0       19.834685    1.047483   -1.794622
    134          1           0       20.914183    1.855980    2.247428
    135          1           0       22.211892    2.172021    1.038126
    136          1           0       21.127106    3.315074    0.977585
    137          1           0       -7.195481    1.641796    0.582485
    138          1           0       -7.808492   -0.178608   -0.391580
 ---------------------------------------------------------------------

 SCF Done:  E(RB3LYP) =  -2732.89081389     A.U. after   17 cycles

 Excitation energies and oscillator strengths:

 Excited State   1:      Singlet-A      2.0279 eV  611.39 nm  f=0.1582  <S**2>=0.000
     235 -> 238       -0.31458
     236 -> 237        0.63022
 This state for optimization and/or second-order correction.
 Total Energy, E(TD-HF/TD-DFT) =  -2732.81628986
 Copying the excited state density for this state as the 1-particle RhoCI density.

 The electronic state is 1-A.
 Alpha  occ. eigenvalues --  -19.17421 -19.15628 -19.14236 -19.13311 -19.11842
 Alpha  occ. eigenvalues --  -14.36780 -14.36054 -14.32786 -14.30468 -10.32593
 Alpha  occ. eigenvalues --  -10.30955 -10.28894 -10.25468 -10.24317 -10.23992
 Alpha  occ. eigenvalues --  -10.23929 -10.23539 -10.23402 -10.23301 -10.23051
 Alpha  occ. eigenvalues --  -10.22930 -10.22446 -10.22350 -10.22268 -10.21979
 Alpha  occ. eigenvalues --  -10.21926 -10.21751 -10.21727 -10.21674 -10.21208
 Alpha  occ. eigenvalues --  -10.21187 -10.21013 -10.20927 -10.20913 -10.20843
 Alpha  occ. eigenvalues --  -10.20787 -10.20504 -10.20492 -10.20268 -10.20233
 Alpha  occ. eigenvalues --  -10.20136 -10.19970 -10.19966 -10.19961 -10.19918
 Alpha  occ. eigenvalues --  -10.19762 -10.19673 -10.19626 -10.19568 -10.19529
 Alpha  occ. eigenvalues --  -10.19477 -10.19400 -10.19339 -10.19141 -10.19073
 Alpha  occ. eigenvalues --  -10.18962 -10.18819 -10.18472 -10.18413 -10.18314
 Alpha  occ. eigenvalues --  -10.18091 -10.17964 -10.17704 -10.17505  -1.08712
 Alpha  occ. eigenvalues --   -1.08666  -1.06053  -1.00805  -0.99739  -0.97117
 Alpha  occ. eigenvalues --   -0.96277  -0.94608  -0.91894  -0.86126  -0.82930
 Alpha  occ. eigenvalues --   -0.82723  -0.82244  -0.81917  -0.81412  -0.80941
 Alpha  occ. eigenvalues --   -0.79989  -0.79344  -0.78716  -0.78208  -0.77422
 Alpha  occ. eigenvalues --   -0.76909  -0.76385  -0.75767  -0.74953  -0.74077
 Alpha  occ. eigenvalues --   -0.73391  -0.73157  -0.72447  -0.71253  -0.70889
 Alpha  occ. eigenvalues --   -0.69727  -0.69212  -0.67831  -0.67647  -0.67412
 Alpha  occ. eigenvalues --   -0.66909  -0.66471  -0.65956  -0.65309  -0.64500
 Alpha  occ. eigenvalues --   -0.64381  -0.63464  -0.63250  -0.62133  -0.61254
 Alpha  occ. eigenvalues --   -0.60817  -0.58870  -0.58408  -0.57306  -0.57058
 Alpha  occ. eigenvalues --   -0.56677  -0.55991  -0.55195  -0.54664  -0.54592
 Alpha  occ. eigenvalues --   -0.54505  -0.54260  -0.53979  -0.53502  -0.53027
 Alpha  occ. eigenvalues --   -0.52114  -0.51818  -0.51484  -0.50887  -0.50350
 Alpha  occ. eigenvalues --   -0.49796  -0.49703  -0.48768  -0.48697  -0.48558
 Alpha  occ. eigenvalues --   -0.47936  -0.47392  -0.47344  -0.47077  -0.46827
 Alpha  occ. eigenvalues --   -0.46724  -0.46380  -0.46186  -0.45905  -0.45721
 Alpha  occ. eigenvalues --   -0.45454  -0.45319  -0.45254  -0.45041  -0.44844
 Alpha  occ. eigenvalues --   -0.44420  -0.44322  -0.43992  -0.43942  -0.43808
 Alpha  occ. eigenvalues --   -0.43469  -0.43311  -0.43234  -0.42997  -0.42545
 Alpha  occ. eigenvalues --   -0.42440  -0.42223  -0.42138  -0.41912  -0.41281
 Alpha  occ. eigenvalues --   -0.41083  -0.40903  -0.40738  -0.40343  -0.40217
 Alpha  occ. eigenvalues --   -0.40033  -0.39875  -0.39639  -0.39400  -0.39301
 Alpha  occ. eigenvalues --   -0.39146  -0.38861  -0.38753  -0.38307  -0.38121
 Alpha  occ. eigenvalues --   -0.37912  -0.37780  -0.37572  -0.37431  -0.37352
 Alpha  occ. eigenvalues --   -0.37106  -0.36914  -0.36892  -0.36665  -0.36390
 Alpha  occ. eigenvalues --   -0.36278  -0.35906  -0.35674  -0.35615  -0.35433
 Alpha  occ. eigenvalues --   -0.35187  -0.35051  -0.34925  -0.34762  -0.34543
 Alpha  occ. eigenvalues --   -0.34530  -0.33983  -0.33897  -0.33697  -0.33554
 Alpha  occ. eigenvalues --   -0.33322  -0.33216  -0.32859  -0.32715  -0.32613
 Alpha  occ. eigenvalues --   -0.32222  -0.31990  -0.31888  -0.31601  -0.31478
 Alpha  occ. eigenvalues --   -0.31320  -0.30442  -0.30378  -0.30040  -0.29489
 Alpha  occ. eigenvalues --   -0.29123  -0.29028  -0.28640  -0.28309  -0.28096
 Alpha  occ. eigenvalues --   -0.28008  -0.27537  -0.26766  -0.26409  -0.25656
 Alpha  occ. eigenvalues --   -0.25455  -0.25265  -0.24512  -0.22694  -0.20013
 Alpha  occ. eigenvalues --   -0.18781
 Alpha virt. eigenvalues --   -0.10205  -0.07975  -0.04191  -0.02050  -0.01458
 Alpha virt. eigenvalues --   -0.01133  -0.00300   0.00231   0.01845   0.02170
 Alpha virt. eigenvalues --    0.03222   0.03507   0.03611   0.04289   0.04548

 Mulliken charges:
               1
     1  C    0.032053
     2  C   -0.085017
     3  C   -0.044568
     4  C   -0.047803
     5  N   -0.163882
     6  C   -0.108435
     7  C   -0.077523
     8  C   -0.014050
     9  C   -0.017250
    10  C    0.001475
    11  C    0.089659
    12  C   -0.036358
    13  C    0.200213
    14  O   -0.247136
    15  O   -0.331132
    16  N   -0.137875
    17  C    0.099117
    18  C   -0.128455
    19  C    0.047027
    20  C   -0.009013
    21  C    0.154104
    22  C   -0.002493
    23  C    0.051047
    24  N   -0.345734
    25  C    0.106457
    26  C   -0.145386
    27  C   -0.063823
    28  C    0.080088
    29  C    0.142763
    30  C    0.120821
    31  C    0.050013
    32  N   -0.168616
    33  C    0.079586
    34  C   -0.135052
    35  C   -0.029334
    36  C    0.156851
    37  C   -0.084661
    38  C    0.092988
    39  O   -0.094592
    40  C   -0.062037
    41  C    0.195194
    42  O   -0.173636
    43  O   -0.353548
    44  C    0.140461
    45  C    0.203690
    46  C   -0.086913
    47  C   -0.058902
    48  C   -0.034982
    49  C    0.070831
    50  C   -0.127184
    51  C    0.009585
    52  C    0.009565
    53  C   -0.005238
    54  C    0.124780
    55  C   -0.042759
    56  C    0.045961
    57  C   -0.066305
    58  C   -0.050743
    59  C    0.023334
    60  C    0.028201
    61  C   -0.117732
    62  C    0.010935
    63  C   -0.056276
    64  C    0.051774
    65  H   -0.003052
    66  H    0.004799
    67  H   -0.034062
    68  H    0.024202
    69  H    0.004476
    70  H    0.044762
    71  H    0.015413
    72  H    0.054059
    73  H    0.017582
    74  H    0.014603
    75  H    0.055451
    76  H    0.053917
    77  H   -0.005650
    78  H   -0.012853
    79  H    0.046976
    80  H   -0.041055
    81  H   -0.006096
    82  H    0.020367
    83  H   -0.015665
    84  H   -0.010168
    85  H    0.005739
    86  H    0.037311
    87  H   -0.044805
    88  H    0.046900
    89  H    0.004816
    90  H   -0.094685
    91  H    0.053768
    92  H    0.066492
    93  H    0.065112
    94  H    0.093302
    95  H    0.034682
    96  H    0.018291
    97  H    0.035480
    98  H    0.051330
    99  H    0.037076
   100  H    0.013864
   101  H    0.037139
   102  H    0.048881
   103  H    0.049191
   104  H    0.009992
   105  H    0.015301
   106  H    0.023364
   107  H    0.007413
   108  H    0.013577
   109  H   -0.013531
   110  H   -0.063306
   111  H    0.031220
   112  H    0.011038
   113  H    0.005265
   114  H   -0.010801
   115  H    0.005596
   116  H    0.012297
   117  H    0.000019
   118  H   -0.009631
   119  H   -0.033205
   120  H    0.009306
   121  H    0.010873
   122  H    0.015282
   123  H    0.013545
   124  H   -0.001684
   125  H   -0.000156
   126  H    0.017521
   127  H    0.017532
   128  H    0.008228
   129  H   -0.002504
   130  H   -0.012774
   131  H    0.017334
   132  H    0.012229
   133  H    0.011927
   134  H    0.026573
   135  H   -0.005824
   136  H    0.005019
   137  H    0.189881
   138  H    0.211060
 Sum of Mulliken charges =  -0.00000

 Dipole moment (field-independent basis, Debye):
    X=              2.5284    Y=              4.9197    Z=             -0.4013  Tot=              5.5460
 Quadrupole moment (field-independent basis, Debye-Ang):
   XX=           -348.9759   YY=           -386.5008   ZZ=           -399.2633
   XY=            -22.2179   XZ=             10.5933   YZ=             -0.1352

 Normal termination of Gaussian 16 at Sat Aug 10 23:37:30 2019.
