 Gaussian 16, Revision A.03,
 Gaussian 16:  ES64L-G16RevA.03 25-Dec-2016

 --------------------------
 # td=(NStates=1) B3LYP/SVP
 --------------------------

 --
 TD
 --
 Symbolic Z-matrix:
 Charge =  0 Multiplicity = 1

                         Standard orientation:
 ---------------------------------------------------------------------
 Center     Atomic      Atomic             Coordinates (Angstroms)
 Number     Number       Type             X           Y           Z
 ---------------------------------------------------------------------
      1          6           0       -5.159161   -2.022502    0.408396
      2          6           0       -4.638408    2.743381    1.326902
      3          6           0       -9.224034    3.475728   -0.212041
      4          6           0       -9.957382   -1.310690   -0.835941
      5          7           0       -5.189599    0.460438    0.793431
      6          6           0       -4.545988   -0.824925    0.822799
      7          6           0       -3.069081   -0.739343    1.263998
      8          6           0       -3.036830    0.716327    1.921318
      9          6           0       -4.306833    1.303852    1.254977
     10          6           0       -3.088373    0.682536    3.362405
     11          6           0       -2.082656   -0.848749    0.146030
     12          6           0       -0.658721   -0.940630    0.573505
     13          6           0        0.415168   -1.144557   -0.499980
     14          8           0        0.128713   -1.612456   -1.692118
     15          8           0        1.662743   -0.919511   -0.194827
     16          7           0       -6.888626    2.779355    0.353038
     17          6           0       -5.729749    3.352799    1.001687
     18          6           0       -6.018152    4.785240    1.000706
     19          6           0       -7.316824    5.082962    0.555783
     20          6           0       -7.888736    3.809633    0.117063
     21          6           0       -4.923033    5.650841    1.565554
     22          6           0       -7.897135    6.408706    0.399807
     23          6           0       -8.823863    6.746607   -0.565973
     24          7           0       -9.199911    1.064366   -0.496363
     25          6           0       -9.839473    2.289378   -0.563148
     26          6           0      -11.217450    2.091222   -0.970827
     27          6           0      -11.409786    0.703309   -1.082409
     28          6           0      -10.076633    0.175140   -0.889064
     29          6           0      -12.098163    3.170084   -1.212364
     30          6           0      -12.594864    0.016175   -1.528221
     31          6           0      -12.637378   -0.415403   -2.927099
     32          7           0       -7.588791   -1.213509   -0.148154
     33          6           0       -8.681554   -1.920231   -0.605768
     34          6           0       -8.251817   -3.313900   -0.678827
     35          6           0       -7.019971   -3.326593   -0.196498
     36          6           0       -6.516331   -2.058721    0.048651
     37          6           0       -9.167298   -4.325579   -1.136520
     38          6           0       -5.984511   -4.304948    0.111781
     39          8           0       -5.931108   -5.462470    0.065489
     40          6           0       -4.661285   -3.380277    0.429216
     41          6           0       -3.993423   -3.840533    1.684919
     42          8           0       -4.283689   -3.428404    2.788958
     43          8           0       -3.151029   -4.871086    1.384715
     44          6           0       -2.595080   -5.711347    2.459965
     45          6           0        2.713540   -1.219340   -1.139783
     46          6           0        4.046296   -0.886720   -0.608228
     47          6           0        4.962771   -0.080544   -0.969614
     48          6           0        4.778614    0.664931   -2.146888
     49          6           0        6.369959   -0.013932   -0.223190
     50          6           0        7.509446   -0.630498   -0.868895
     51          6           0        8.817924   -0.506442   -0.066046
     52          6           0       10.194044   -0.844251   -0.968931
     53          6           0       10.151370   -2.322171   -1.372845
     54          6           0       11.272893   -0.520425    0.046963
     55          6           0       12.650309   -0.516098   -0.697765
     56          6           0       13.829410    0.015613    0.156016
     57          6           0       15.277048   -0.189134   -0.456505
     58          6           0       15.513363   -1.649502   -0.635937
     59          6           0       16.217169    0.591892    0.380679
     60          6           0       17.621364    0.932563   -0.305309
     61          6           0       18.549466    1.639791    0.726993
     62          6           0       19.983729    1.802561    0.245969
     63          6           0       20.052230    2.637757   -1.086740
     64          6           0       20.806775    2.462745    1.291711
     65          1           0       -3.665615    3.433077    1.653673
     66          1           0       -9.937632    4.181565   -0.346656
     67          1           0      -10.731253   -2.045421   -0.959271
     68          1           0       -2.860129   -1.437782    2.039216
     69          1           0       -2.070644    1.265204    1.704737
     70          1           0       -2.157180    0.642187    3.673451
     71          1           0       -3.445583    1.666029    3.858399
     72          1           0       -3.867182    0.119493    3.754723
     73          1           0       -2.249618   -1.824881   -0.379105
     74          1           0       -2.064592   -0.089130   -0.546660
     75          1           0       -0.344020    0.018355    1.174680
     76          1           0       -0.606689   -1.676153    1.439691
     77          1           0       -4.201237    5.942704    0.457175
     78          1           0       -5.517167    6.532303    2.071999
     79          1           0       -4.228883    4.903822    2.412574
     80          1           0       -7.827091    7.111852    1.337073
     81          1           0       -8.719728    6.150253   -1.616234
     82          1           0       -9.156318    7.751366   -0.577418
     83          1           0      -12.033090    3.843171   -0.284170
     84          1           0      -11.713418    3.866683   -2.042446
     85          1           0      -13.165767    2.998189   -1.323824
     86          1           0      -12.841588   -0.847541   -0.867692
     87          1           0      -13.346258    0.555350   -1.539154
     88          1           0      -12.539858    0.456348   -3.537508
     89          1           0      -11.759677   -0.848577   -3.274306
     90          1           0      -13.578016   -1.087437   -3.257496
     91          1           0      -10.357402   -4.382746   -0.725623
     92          1           0       -9.567335   -4.082108   -2.272124
     93          1           0       -8.909658   -5.416768   -1.102785
     94          1           0       -3.946962   -3.477828   -0.584352
     95          1           0       -1.869345   -6.320594    1.793061
     96          1           0       -1.962932   -5.124221    3.020720
     97          1           0       -3.270848   -6.167333    3.298724
     98          1           0        2.588697   -2.259650   -1.671891
     99          1           0        2.417294   -0.342415   -1.829960
    100          1           0        4.131858   -1.673277    0.289515
    101          1           0        5.156202    1.713179   -1.958986
    102          1           0        5.256646    0.488297   -3.056652
    103          1           0        3.763116    0.975128   -2.450042
    104          1           0        6.516275    1.204339    0.013805
    105          1           0        6.159508   -0.651640    0.643076
    106          1           0        7.212426   -1.909936   -1.124357
    107          1           0        7.794083   -0.045661   -1.792277
    108          1           0        8.935975    0.632404    0.220107
    109          1           0        8.907575   -0.979248    0.966715
    110          1           0       10.358727   -0.060502   -1.787160
    111          1           0        9.342928   -2.579221   -2.138347
    112          1           0       11.154266   -2.700003   -1.968091
    113          1           0        9.898864   -3.126649   -0.613961
    114          1           0       11.214109    0.539137    0.548869
    115          1           0       11.392221   -1.534633    0.924441
    116          1           0       12.925151   -1.455242   -1.212929
    117          1           0       12.323777    0.158514   -1.571337
    118          1           0       13.573162    0.984112    0.354171
    119          1           0       13.794366   -0.443408    1.181784
    120          1           0       15.100394    0.332900   -1.334823
    121          1           0       14.652042   -2.220539   -1.165484
    122          1           0       16.690761   -1.991311   -0.913903
    123          1           0       15.429072   -2.170114    0.295670
    124          1           0       15.578270    1.526465    0.711967
    125          1           0       16.339083    0.076718    1.364286
    126          1           0       17.783048   -0.119331   -0.701281
    127          1           0       17.333110    1.597625   -1.219792
    128          1           0       17.887516    2.666152    1.030998
    129          1           0       18.313483    1.077613    1.745189
    130          1           0       20.507910    0.814802   -0.063442
    131          1           0       19.560271    3.654400   -0.854814
    132          1           0       21.003389    2.776734   -1.447686
    133          1           0       19.648198    2.354067   -2.228463
    134          1           0       20.808306    2.001639    2.157253
    135          1           0       21.999523    2.675194    1.007065
    136          1           0       20.678749    3.670176    1.553510
    137          1           0       -7.220576    1.716230    0.271044
    138          1           0       -7.471108   -0.128342   -0.072885
 ---------------------------------------------------------------------

 SCF Done:  E(RB3LYP) =  -2732.88973116     A.U. after   17 cycles

 Excitation energies and oscillator strengths:

 Excited State   1:      Singlet-A      2.0050 eV  618.38 nm  f=0.2175  <S**2>=0.000
     235 -> 237       -0.15837
     235 -> 238        0.23400
     236 -> 237        0.62346
     236 -> 238        0.17354
 This state for optimization and/or second-order correction.
 Total Energy, E(TD-HF/TD-DFT) =  -2732.81604913
 Copying the excited state density for this state as the 1-particle RhoCI density.

 The electronic state is 1-A.
 Alpha  occ. eigenvalues --  -19.18857 -19.17829 -19.13249 -19.12594 -19.10688
 Alpha  occ. eigenvalues --  -14.37328 -14.36122 -14.33398 -14.29351 -10.32087
 Alpha  occ. eigenvalues --  -10.31621 -10.28120 -10.26067 -10.25389 -10.24344
 Alpha  occ. eigenvalues --  -10.23988 -10.23628 -10.23388 -10.23223 -10.23058
 Alpha  occ. eigenvalues --  -10.22803 -10.21872 -10.21821 -10.21699 -10.21470
 Alpha  occ. eigenvalues --  -10.21244 -10.21222 -10.21180 -10.21067 -10.21022
 Alpha  occ. eigenvalues --  -10.20907 -10.20891 -10.20860 -10.20825 -10.20782
 Alpha  occ. eigenvalues --  -10.20672 -10.20586 -10.20510 -10.20443 -10.20433
 Alpha  occ. eigenvalues --  -10.20405 -10.20352 -10.20094 -10.20005 -10.19897
 Alpha  occ. eigenvalues --  -10.19276 -10.19203 -10.19199 -10.19028 -10.18987
 Alpha  occ. eigenvalues --  -10.18857 -10.18638 -10.18635 -10.18482 -10.18456
 Alpha  occ. eigenvalues --  -10.18367 -10.18200 -10.17911 -10.17904 -10.17530
 Alpha  occ. eigenvalues --  -10.17438 -10.17261 -10.17205 -10.16445  -1.10166
 Alpha  occ. eigenvalues --   -1.08101  -1.06396  -1.00404  -0.98200  -0.95320
 Alpha  occ. eigenvalues --   -0.94640  -0.94049  -0.93161  -0.85553  -0.84288
 Alpha  occ. eigenvalues --   -0.82466  -0.82085  -0.81368  -0.80996  -0.80753
 Alpha  occ. eigenvalues --   -0.80683  -0.80350  -0.80003  -0.79004  -0.78545
 Alpha  occ. eigenvalues --   -0.77721  -0.76308  -0.75685  -0.74925  -0.74716
 Alpha  occ. eigenvalues --   -0.74009  -0.73384  -0.72825  -0.71637  -0.70718
 Alpha  occ. eigenvalues --   -0.69295  -0.69057  -0.68433  -0.67941  -0.67238
 Alpha  occ. eigenvalues --   -0.66944  -0.66933  -0.66341  -0.65544  -0.64808
 Alpha  occ. eigenvalues --   -0.64204  -0.62675  -0.62274  -0.61696  -0.61008
 Alpha  occ. eigenvalues --   -0.60738  -0.58943  -0.58327  -0.57810  -0.57486
 Alpha  occ. eigenvalues --   -0.56454  -0.56166  -0.55476  -0.55344  -0.55128
 Alpha  occ. eigenvalues --   -0.54949  -0.54373  -0.54097  -0.53680  -0.52712
 Alpha  occ. eigenvalues --   -0.52423  -0.51928  -0.51459  -0.51160  -0.50390
 Alpha  occ. eigenvalues --   -0.50150  -0.49703  -0.49015  -0.48324  -0.48210
 Alpha  occ. eigenvalues --   -0.47853  -0.47715  -0.47595  -0.47347  -0.46841
 Alpha  occ. eigenvalues --   -0.46779  -0.46636  -0.46422  -0.46037  -0.45725
 Alpha  occ. eigenvalues --   -0.45640  -0.45229  -0.45093  -0.44792  -0.44581
 Alpha  occ. eigenvalues --   -0.44447  -0.44306  -0.44073  -0.43818  -0.43697
 Alpha  occ. eigenvalues --   -0.43485  -0.43195  -0.42834  -0.42461  -0.42395
 Alpha  occ. eigenvalues --   -0.42137  -0.42011  -0.41880  -0.41810  -0.41604
 Alpha  occ. eigenvalues --   -0.41493  -0.40811  -0.40593  -0.40515  -0.39822
 Alpha  occ. eigenvalues --   -0.39704  -0.39671  -0.39526  -0.39329  -0.39222
 Alpha  occ. eigenvalues --   -0.38924  -0.38690  -0.38488  -0.38408  -0.38300
 Alpha  occ. eigenvalues --   -0.38033  -0.37568  -0.37289  -0.37241  -0.37159
 Alpha  occ. eigenvalues --   -0.36984  -0.36864  -0.36466  -0.36301  -0.36162
 Alpha  occ. eigenvalues --   -0.35979  -0.35845  -0.35815  -0.35529  -0.35419
 Alpha  occ. eigenvalues --   -0.35308  -0.35274  -0.35039  -0.34982  -0.34775
 Alpha  occ. eigenvalues --   -0.34546  -0.34386  -0.34380  -0.34190  -0.34039
 Alpha  occ. eigenvalues --   -0.33554  -0.32818  -0.32768  -0.32607  -0.32394
 Alpha  occ. eigenvalues --   -0.31913  -0.31657  -0.31343  -0.31240  -0.30793
 Alpha  occ. eigenvalues --   -0.30774  -0.30416  -0.30282  -0.30128  -0.29989
 Alpha  occ. eigenvalues --   -0.29632  -0.28660  -0.28579  -0.28041  -0.27717
 Alpha  occ. eigenvalues --   -0.27542  -0.27158  -0.26352  -0.26246  -0.25921
 Alpha  occ. eigenvalues --   -0.25540  -0.25167  -0.23493  -0.21818  -0.20319
 Alpha  occ. eigenvalues --   -0.18055
 Alpha virt. eigenvalues --   -0.10090  -0.07911  -0.04458  -0.02657  -0.01448
 Alpha virt. eigenvalues --   -0.00793  -0.00003   0.00101   0.01553   0.02013
 Alpha virt. eigenvalues --    0.03159   0.03765   0.03831   0.04176   0.04193

 Mulliken charges:
               1
     1  C   -0.006462
     2  C   -0.146589
     3  C    0.008286
     4  C   -0.049540
     5  N   -0.162845
     6  C   -0.032758
     7  C   -0.013398
     8  C   -0.096351
     9  C   -0.020635
    10  C    0.187923
    11  C    0.148925
    12  C   -0.032347
    13  C    0.215951
    14  O   -0.342750
    15  O   -0.272007
    16  N   -0.228796
    17  C    0.211754
    18  C   -0.096370
    19  C    0.038818
    20  C    0.115382
    21  C   -0.078091
    22  C   -0.091341
    23  C   -0.047286
    24  N   -0.226547
    25  C    0.010169
    26  C   -0.067731
    27  C   -0.154916
    28  C    0.068478
    29  C    0.056895
    30  C    0.243618
    31  C    0.027202
    32  N   -0.095473
    33  C    0.041100
    34  C   -0.049740
    35  C    0.012649
    36  C    0.087618
    37  C   -0.065083
    38  C    0.063794
    39  O   -0.087046
    40  C   -0.125166
    41  C    0.224802
    42  O   -0.227639
    43  O   -0.328704
    44  C    0.186951
    45  C    0.235260
    46  C   -0.135883
    47  C   -0.073038
    48  C    0.084675
    49  C    0.068115
    50  C    0.021061
    51  C   -0.042060
    52  C   -0.055258
    53  C   -0.020468
    54  C   -0.067593
    55  C    0.005954
    56  C    0.031250
    57  C    0.022637
    58  C    0.018036
    59  C   -0.046805
    60  C    0.026804
    61  C   -0.032053
    62  C   -0.008857
    63  C   -0.021770
    64  C    0.013519
    65  H    0.028506
    66  H   -0.094905
    67  H   -0.024823
    68  H   -0.005576
    69  H   -0.006751
    70  H   -0.029378
    71  H   -0.011954
    72  H    0.003886
    73  H    0.018654
    74  H   -0.018195
    75  H    0.019297
    76  H    0.031697
    77  H    0.070995
    78  H    0.053337
    79  H    0.072586
    80  H    0.038554
    81  H    0.063019
    82  H    0.021238
    83  H    0.025508
    84  H    0.032742
    85  H    0.006583
    86  H   -0.006188
    87  H   -0.108393
    88  H   -0.021442
    89  H   -0.028773
    90  H    0.026566
    91  H    0.042279
    92  H    0.042911
    93  H    0.045957
    94  H    0.096565
    95  H    0.053489
    96  H   -0.004750
    97  H    0.065437
    98  H    0.074732
    99  H    0.012524
   100  H    0.001524
   101  H   -0.018707
   102  H    0.013508
   103  H    0.004548
   104  H    0.029808
   105  H   -0.005242
   106  H    0.030927
   107  H    0.001631
   108  H   -0.001648
   109  H    0.014830
   110  H    0.016821
   111  H    0.017323
   112  H    0.026902
   113  H    0.026871
   114  H    0.023968
   115  H    0.014995
   116  H   -0.007905
   117  H   -0.019071
   118  H   -0.039261
   119  H   -0.013372
   120  H   -0.036450
   121  H    0.021462
   122  H    0.029768
   123  H   -0.018248
   124  H   -0.008610
   125  H   -0.015413
   126  H    0.005917
   127  H    0.019748
   128  H    0.019611
   129  H    0.014044
   130  H    0.024235
   131  H    0.016527
   132  H   -0.013112
   133  H    0.020650
   134  H   -0.022750
   135  H    0.008974
   136  H    0.016133
   137  H    0.193886
   138  H    0.191010
 Sum of Mulliken charges =  -0.00000

 Dipole moment (field-independent basis, Debye):
    X=              3.6052    Y=              3.1258    Z=              1.0297  Tot=              4.8814
 Quadrupole moment (field-independent basis, Debye-Ang):
   XX=           -362.7972   YY=           -381.3385   ZZ=           -397.3361
   XY=            -18.4209   XZ=              7.7177   YZ=             -3.4779

 Normal termination of Gaussian 16 at Thu Aug 29 18:01:33 2019.
