 Gaussian 16, Revision A.03,
 Gaussian 16:  ES64L-G16RevA.03 25-Dec-2016

 --------------------------
 # td=(NStates=1) B3LYP/SVP
 --------------------------

 --
 TD
 --
 Symbolic Z-matrix:
 Charge =  0 Multiplicity = 1

                         Standard orientation:
 ---------------------------------------------------------------------
 Center     Atomic      Atomic             Coordinates (Angstroms)
 Number     Number       Type             X           Y           Z
 ---------------------------------------------------------------------
      1          6           0       -5.105916   -1.976924    0.370647
      2          6           0       -4.756535    2.731712    1.539032
      3          6           0       -9.326180    3.408402   -0.357781
      4          6           0       -9.607034   -1.390963   -1.082980
      5          7           0       -5.174707    0.412972    0.759932
      6          6           0       -4.436553   -0.726335    0.704607
      7          6           0       -3.034635   -0.581374    1.278652
      8          6           0       -3.115967    0.843543    1.940758
      9          6           0       -4.453151    1.319856    1.392111
     10          6           0       -3.126741    0.815266    3.462927
     11          6           0       -2.006479   -0.860874    0.210301
     12          6           0       -0.527177   -0.739548    0.721103
     13          6           0        0.371316   -0.981843   -0.386139
     14          8           0        0.127827   -1.483357   -1.465119
     15          8           0        1.686638   -0.623144   -0.044229
     16          7           0       -7.097535    2.745665    0.562864
     17          6           0       -6.003951    3.329666    1.198788
     18          6           0       -6.291685    4.776674    1.182445
     19          6           0       -7.507414    4.944934    0.711271
     20          6           0       -8.020821    3.692371    0.260137
     21          6           0       -5.195415    5.771361    1.751100
     22          6           0       -8.093599    6.273795    0.421853
     23          6           0       -8.845256    6.589133   -0.652391
     24          7           0       -9.041567    0.892966   -0.561735
     25          6           0       -9.758821    2.071014   -0.633869
     26          6           0      -11.079188    1.891694   -1.076530
     27          6           0      -11.326743    0.546339   -1.319405
     28          6           0       -9.986703   -0.012566   -0.898606
     29          6           0      -12.153987    2.938281   -1.206405
     30          6           0      -12.388256   -0.266067   -1.841906
     31          6           0      -12.529669   -0.382281   -3.366205
     32          7           0       -7.354959   -1.230453   -0.354357
     33          6           0       -8.562130   -2.057181   -0.821740
     34          6           0       -8.170363   -3.444978   -0.758759
     35          6           0       -6.900153   -3.418643   -0.308510
     36          6           0       -6.440584   -2.119478   -0.027014
     37          6           0       -9.015664   -4.648360   -0.959678
     38          6           0       -5.779349   -4.342810   -0.062829
     39          8           0       -5.752939   -5.515459   -0.050704
     40          6           0       -4.570332   -3.453019    0.346857
     41          6           0       -3.991576   -3.827117    1.634239
     42          8           0       -4.168126   -3.371071    2.731691
     43          8           0       -3.069167   -4.828583    1.440444
     44          6           0       -2.522698   -5.358579    2.639548
     45          6           0        2.699840   -1.024956   -0.987645
     46          6           0        4.025222   -0.674197   -0.351663
     47          6           0        4.902561    0.155587   -0.863208
     48          6           0        4.696487    0.880859   -2.339252
     49          6           0        6.185624    0.542649   -0.257620
     50          6           0        7.432574   -0.247088   -0.923277
     51          6           0        8.669283   -0.029622   -0.042220
     52          6           0       10.003789   -0.636770   -0.668140
     53          6           0        9.887503   -2.072641   -0.787983
     54          6           0       11.265962   -0.209210    0.197117
     55          6           0       12.568497   -0.616075   -0.543097
     56          6           0       13.829452   -0.111655    0.188644
     57          6           0       15.288300   -0.265641   -0.376315
     58          6           0       15.456499   -1.759081   -0.320622
     59          6           0       16.220910    0.624962    0.254122
     60          6           0       17.629094    0.575804   -0.311244
     61          6           0       18.501322    1.573329    0.399946
     62          6           0       20.002444    1.598143   -0.095736
     63          6           0       20.211067    1.948335   -1.487190
     64          6           0       20.877710    2.482812    0.814600
     65          1           0       -4.182347    3.441076    2.278532
     66          1           0      -10.113908    4.199949   -0.688504
     67          1           0      -10.425525   -2.066966   -1.430360
     68          1           0       -2.659344   -1.423964    1.974891
     69          1           0       -2.203153    1.420732    1.442741
     70          1           0       -2.228235    0.227251    3.892854
     71          1           0       -2.989716    1.871409    3.830385
     72          1           0       -3.916898    0.283746    3.573905
     73          1           0       -2.160740   -2.040716    0.034941
     74          1           0       -2.251670   -0.362729   -0.713699
     75          1           0       -0.249609    0.200257    1.251426
     76          1           0       -0.148374   -1.541032    1.398793
     77          1           0       -4.317774    5.529280    1.071942
     78          1           0       -5.543840    6.931199    1.511361
     79          1           0       -5.046520    5.766754    2.695198
     80          1           0       -7.862233    7.043708    1.012282
     81          1           0       -9.168081    5.900564   -1.412899
     82          1           0       -9.198428    7.684081   -0.745377
     83          1           0      -12.323690    3.463921   -0.267039
     84          1           0      -11.991131    3.537021   -2.026788
     85          1           0      -13.145346    2.510151   -1.329724
     86          1           0      -12.433078   -1.060126   -1.302363
     87          1           0      -13.273897    0.262273   -1.575563
     88          1           0      -12.683184    0.610818   -3.767176
     89          1           0      -11.717326   -1.129312   -3.822522
     90          1           0      -13.571498   -0.733169   -3.746259
     91          1           0       -9.948337   -4.726308   -0.377409
     92          1           0       -9.324581   -5.063935   -2.090724
     93          1           0       -8.629431   -5.717936   -0.597911
     94          1           0       -3.934194   -3.721169   -0.415896
     95          1           0       -1.623021   -6.126174    2.378941
     96          1           0       -2.134204   -4.511114    3.401227
     97          1           0       -3.179096   -5.932967    3.370648
     98          1           0        2.626486   -2.055888   -0.939462
     99          1           0        2.352847   -0.518450   -1.906122
    100          1           0        4.313057   -1.122372    0.408222
    101          1           0        4.758891    2.012960   -2.250487
    102          1           0        5.475377    0.321857   -3.126910
    103          1           0        3.631761    0.596812   -2.674919
    104          1           0        6.437030    1.555819   -0.311273
    105          1           0        6.154946    0.406532    0.936832
    106          1           0        7.164619   -1.169178   -0.718538
    107          1           0        7.524819   -0.001925   -2.016147
    108          1           0        8.950736    1.114330    0.061035
    109          1           0        8.722407   -0.747209    0.829887
    110          1           0       10.088986   -0.089017   -1.488319
    111          1           0        8.961647   -2.326287   -1.311406
    112          1           0       10.739146   -2.534686   -1.403762
    113          1           0        9.701461   -2.478661    0.133228
    114          1           0       11.121933    0.842764    0.416922
    115          1           0       11.211955   -0.743263    1.102601
    116          1           0       12.636916   -1.699364   -0.604221
    117          1           0       12.606251   -0.181107   -1.535220
    118          1           0       13.645112    0.830485    0.542663
    119          1           0       13.940230   -0.611642    1.271069
    120          1           0       15.154911    0.264968   -1.372895
    121          1           0       14.563248   -2.527700   -0.622897
    122          1           0       16.438527   -2.149921   -0.812608
    123          1           0       15.593049   -2.198363    0.795941
    124          1           0       15.649395    1.677198    0.341316
    125          1           0       16.148151    0.268595    1.375278
    126          1           0       18.018405   -0.430642   -0.213885
    127          1           0       17.630291    0.888513   -1.348394
    128          1           0       18.050708    2.628368    0.019044
    129          1           0       18.418705    1.502054    1.597892
    130          1           0       20.410357    0.452489   -0.093174
    131          1           0       19.790128    2.875281   -1.828644
    132          1           0       21.365373    1.912730   -1.541565
    133          1           0       19.800779    1.330711   -2.215320
    134          1           0       20.709091    2.339235    1.884299
    135          1           0       21.948708    2.290794    0.603984
    136          1           0       20.491277    3.611132    0.369310
    137          1           0       -7.422039    1.645915    0.499583
    138          1           0       -7.428155   -0.229447   -0.435461
 ---------------------------------------------------------------------

 SCF Done:  E(RB3LYP) =  -2733.01093863     A.U. after   17 cycles

 Excitation energies and oscillator strengths:

 Excited State   1:      Singlet-A      2.0478 eV  605.46 nm  f=0.1378  <S**2>=0.000
     235 -> 237       -0.14172
     235 -> 238        0.28264
     236 -> 237        0.60871
     236 -> 238        0.16550
 This state for optimization and/or second-order correction.
 Total Energy, E(TD-HF/TD-DFT) =  -2732.93568476
 Copying the excited state density for this state as the 1-particle RhoCI density.

 The electronic state is 1-A.
 Alpha  occ. eigenvalues --  -19.17751 -19.15477 -19.13016 -19.12708 -19.12291
 Alpha  occ. eigenvalues --  -14.37319 -14.35845 -14.32635 -14.30737 -10.31371
 Alpha  occ. eigenvalues --  -10.30890 -10.28112 -10.25780 -10.23951 -10.23846
 Alpha  occ. eigenvalues --  -10.23571 -10.23338 -10.23291 -10.23223 -10.22892
 Alpha  occ. eigenvalues --  -10.22485 -10.21849 -10.21595 -10.21434 -10.21119
 Alpha  occ. eigenvalues --  -10.21102 -10.20897 -10.20657 -10.20642 -10.20612
 Alpha  occ. eigenvalues --  -10.20597 -10.20594 -10.20454 -10.20214 -10.20157
 Alpha  occ. eigenvalues --  -10.20041 -10.19943 -10.19847 -10.19644 -10.19532
 Alpha  occ. eigenvalues --  -10.19513 -10.19393 -10.19381 -10.19264 -10.19222
 Alpha  occ. eigenvalues --  -10.19157 -10.19117 -10.19024 -10.18966 -10.18728
 Alpha  occ. eigenvalues --  -10.18421 -10.18405 -10.18401 -10.18153 -10.18062
 Alpha  occ. eigenvalues --  -10.18037 -10.18014 -10.17691 -10.17451 -10.17369
 Alpha  occ. eigenvalues --  -10.17076 -10.16941 -10.16876 -10.16718  -1.09557
 Alpha  occ. eigenvalues --   -1.07429  -1.05830  -1.00684  -0.99437  -0.97700
 Alpha  occ. eigenvalues --   -0.97254  -0.95332  -0.93705  -0.84805  -0.82835
 Alpha  occ. eigenvalues --   -0.82386  -0.82078  -0.81791  -0.81606  -0.81083
 Alpha  occ. eigenvalues --   -0.80807  -0.80301  -0.79952  -0.79273  -0.78229
 Alpha  occ. eigenvalues --   -0.76943  -0.76622  -0.76094  -0.75126  -0.74319
 Alpha  occ. eigenvalues --   -0.73652  -0.72989  -0.72660  -0.71524  -0.70411
 Alpha  occ. eigenvalues --   -0.69992  -0.69164  -0.68600  -0.67493  -0.67453
 Alpha  occ. eigenvalues --   -0.66950  -0.66375  -0.66237  -0.65570  -0.65103
 Alpha  occ. eigenvalues --   -0.64776  -0.63107  -0.62857  -0.62186  -0.61583
 Alpha  occ. eigenvalues --   -0.60814  -0.59424  -0.58859  -0.57298  -0.57002
 Alpha  occ. eigenvalues --   -0.56543  -0.56057  -0.56038  -0.55715  -0.54789
 Alpha  occ. eigenvalues --   -0.54512  -0.54262  -0.54073  -0.53682  -0.53448
 Alpha  occ. eigenvalues --   -0.53104  -0.52822  -0.51470  -0.51310  -0.51127
 Alpha  occ. eigenvalues --   -0.50122  -0.49535  -0.48773  -0.48453  -0.48293
 Alpha  occ. eigenvalues --   -0.47953  -0.47893  -0.47602  -0.47358  -0.47061
 Alpha  occ. eigenvalues --   -0.46845  -0.46533  -0.46428  -0.46144  -0.46096
 Alpha  occ. eigenvalues --   -0.45696  -0.45673  -0.45433  -0.45015  -0.44814
 Alpha  occ. eigenvalues --   -0.44731  -0.44565  -0.44304  -0.44223  -0.44110
 Alpha  occ. eigenvalues --   -0.43707  -0.43376  -0.43338  -0.42998  -0.42772
 Alpha  occ. eigenvalues --   -0.42452  -0.42259  -0.42213  -0.41714  -0.41504
 Alpha  occ. eigenvalues --   -0.41442  -0.41270  -0.41048  -0.40548  -0.40455
 Alpha  occ. eigenvalues --   -0.40270  -0.39986  -0.39800  -0.39506  -0.39239
 Alpha  occ. eigenvalues --   -0.39115  -0.39050  -0.38538  -0.38449  -0.38263
 Alpha  occ. eigenvalues --   -0.37935  -0.37770  -0.37548  -0.37486  -0.37389
 Alpha  occ. eigenvalues --   -0.37314  -0.37105  -0.36854  -0.36757  -0.36560
 Alpha  occ. eigenvalues --   -0.36339  -0.36025  -0.35974  -0.35925  -0.35537
 Alpha  occ. eigenvalues --   -0.35461  -0.35205  -0.35041  -0.34940  -0.34715
 Alpha  occ. eigenvalues --   -0.34346  -0.34318  -0.34278  -0.34118  -0.33988
 Alpha  occ. eigenvalues --   -0.33555  -0.33536  -0.33438  -0.32883  -0.32704
 Alpha  occ. eigenvalues --   -0.32087  -0.31736  -0.31549  -0.31335  -0.31099
 Alpha  occ. eigenvalues --   -0.31073  -0.30344  -0.29864  -0.29702  -0.29401
 Alpha  occ. eigenvalues --   -0.29307  -0.28905  -0.28446  -0.28368  -0.28354
 Alpha  occ. eigenvalues --   -0.28124  -0.27798  -0.27359  -0.27324  -0.25861
 Alpha  occ. eigenvalues --   -0.25370  -0.24944  -0.24463  -0.22920  -0.20387
 Alpha  occ. eigenvalues --   -0.18374
 Alpha virt. eigenvalues --   -0.09793  -0.08337  -0.04256  -0.01183  -0.00392
 Alpha virt. eigenvalues --    0.00147   0.00770   0.01008   0.01939   0.03661
 Alpha virt. eigenvalues --    0.04103   0.04184   0.04434   0.04668   0.04785

 Mulliken charges:
               1
     1  C    0.019002
     2  C   -0.071839
     3  C   -0.121935
     4  C   -0.120078
     5  N   -0.126842
     6  C   -0.041026
     7  C   -0.079249
     8  C   -0.041393
     9  C   -0.035283
    10  C    0.137527
    11  C    0.005128
    12  C    0.070108
    13  C    0.157455
    14  O   -0.237603
    15  O   -0.383490
    16  N   -0.124812
    17  C    0.057931
    18  C   -0.141083
    19  C    0.052729
    20  C    0.059800
    21  C    0.107947
    22  C    0.005057
    23  C   -0.043447
    24  N   -0.266796
    25  C    0.087326
    26  C   -0.184568
    27  C   -0.105583
    28  C    0.042406
    29  C    0.160639
    30  C    0.210664
    31  C   -0.004575
    32  N   -0.089736
    33  C    0.104958
    34  C   -0.014062
    35  C    0.003442
    36  C    0.087275
    37  C   -0.052064
    38  C    0.032275
    39  O   -0.109288
    40  C    0.017963
    41  C    0.202884
    42  O   -0.208002
    43  O   -0.301808
    44  C    0.102016
    45  C    0.365840
    46  C    0.030096
    47  C   -0.132779
    48  C   -0.028916
    49  C    0.056854
    50  C    0.097864
    51  C   -0.057603
    52  C   -0.048776
    53  C    0.095324
    54  C    0.054509
    55  C    0.108129
    56  C   -0.025243
    57  C    0.014535
    58  C   -0.042914
    59  C   -0.056523
    60  C    0.121679
    61  C   -0.038901
    62  C   -0.119860
    63  C    0.056250
    64  C    0.015003
    65  H    0.023127
    66  H    0.021975
    67  H   -0.023886
    68  H    0.021006
    69  H    0.012796
    70  H    0.014829
    71  H    0.027163
    72  H   -0.014467
    73  H    0.040635
    74  H    0.012732
    75  H    0.039454
    76  H    0.040844
    77  H    0.050476
    78  H    0.025459
    79  H   -0.004093
    80  H   -0.051529
    81  H    0.020553
    82  H    0.031971
    83  H    0.018474
    84  H    0.004244
    85  H   -0.016476
    86  H   -0.057768
    87  H   -0.037506
    88  H    0.003260
    89  H    0.042747
    90  H    0.006863
    91  H    0.033649
    92  H    0.050666
    93  H    0.046815
    94  H    0.020995
    95  H    0.049151
    96  H    0.038079
    97  H    0.037303
    98  H   -0.024482
    99  H    0.028957
   100  H   -0.128392
   101  H    0.043715
   102  H    0.054292
   103  H    0.015464
   104  H   -0.020620
   105  H    0.007441
   106  H   -0.042067
   107  H    0.020402
   108  H    0.013022
   109  H    0.006766
   110  H   -0.064639
   111  H   -0.011977
   112  H    0.027599
   113  H   -0.030822
   114  H   -0.017187
   115  H   -0.029696
   116  H   -0.004895
   117  H   -0.013516
   118  H   -0.059033
   119  H   -0.025913
   120  H   -0.013913
   121  H    0.037020
   122  H    0.016278
   123  H    0.012700
   124  H    0.010677
   125  H   -0.015046
   126  H   -0.004535
   127  H   -0.013124
   128  H   -0.000166
   129  H    0.018513
   130  H   -0.005205
   131  H   -0.012596
   132  H    0.016041
   133  H   -0.010645
   134  H    0.015198
   135  H    0.016644
   136  H    0.023251
   137  H    0.220145
   138  H    0.130265
 Sum of Mulliken charges =  -0.00000

 Dipole moment (field-independent basis, Debye):
    X=              0.2579    Y=              3.0116    Z=              0.4500  Tot=              3.0559
 Quadrupole moment (field-independent basis, Debye-Ang):
   XX=           -342.4768   YY=           -383.9139   ZZ=           -394.8292
   XY=            -20.5953   XZ=              5.9776   YZ=             -0.6368

 Normal termination of Gaussian 16 at Sat Aug 31 18:08:23 2019.
