 Gaussian 16, Revision A.03,
 Gaussian 16:  ES64L-G16RevA.03 25-Dec-2016

 --------------------------
 # td=(NStates=1) B3LYP/SVP
 --------------------------

 --
 TD
 --
 Symbolic Z-matrix:
 Charge =  0 Multiplicity = 1

                         Standard orientation:
 ---------------------------------------------------------------------
 Center     Atomic      Atomic             Coordinates (Angstroms)
 Number     Number       Type             X           Y           Z
 ---------------------------------------------------------------------
      1          6           0       -5.295283   -1.991880    0.488696
      2          6           0       -4.530065    2.730917    1.321395
      3          6           0       -9.127311    3.494083   -0.198031
      4          6           0       -9.830109   -1.254054   -1.044631
      5          7           0       -5.228918    0.515022    0.811688
      6          6           0       -4.655943   -0.765062    0.893968
      7          6           0       -3.144875   -0.607931    1.294047
      8          6           0       -3.059558    0.831920    1.882652
      9          6           0       -4.278209    1.351619    1.266457
     10          6           0       -3.001278    0.928734    3.383729
     11          6           0       -2.132867   -0.904171    0.150586
     12          6           0       -0.669567   -0.999391    0.615915
     13          6           0        0.290099   -1.262407   -0.560293
     14          8           0       -0.041054   -1.682474   -1.642816
     15          8           0        1.557911   -0.837023   -0.161749
     16          7           0       -6.852900    2.802411    0.444221
     17          6           0       -5.786206    3.388913    0.924178
     18          6           0       -6.030584    4.788546    0.919519
     19          6           0       -7.278282    5.078436    0.362768
     20          6           0       -7.825412    3.708404    0.221029
     21          6           0       -5.002057    5.775828    1.478661
     22          6           0       -7.967164    6.451159    0.404458
     23          6           0       -8.705527    6.884828   -0.594118
     24          7           0       -9.197730    1.013161   -0.503264
     25          6           0       -9.708715    2.223713   -0.572248
     26          6           0      -11.196802    2.018795   -0.851014
     27          6           0      -11.441217    0.711682   -1.136185
     28          6           0      -10.169032    0.080561   -0.917618
     29          6           0      -12.171300    3.182794   -0.860435
     30          6           0      -12.631109   -0.069530   -1.559034
     31          6           0      -12.601265   -0.307296   -3.068882
     32          7           0       -7.579616   -1.171343   -0.299611
     33          6           0       -8.681479   -1.931957   -0.713216
     34          6           0       -8.312514   -3.377052   -0.764857
     35          6           0       -7.025806   -3.426153   -0.308629
     36          6           0       -6.632101   -2.066380    0.041924
     37          6           0       -9.100206   -4.478803   -1.296695
     38          6           0       -5.890979   -4.333444   -0.002225
     39          8           0       -5.842162   -5.518707   -0.074866
     40          6           0       -4.678410   -3.384686    0.436476
     41          6           0       -4.107065   -3.956209    1.768845
     42          8           0       -4.499587   -3.575906    2.840435
     43          8           0       -3.199410   -4.920247    1.486529
     44          6           0       -2.619653   -5.482522    2.674120
     45          6           0        2.570399   -1.237292   -1.018169
     46          6           0        3.863011   -1.019687   -0.488797
     47          6           0        4.950093   -0.139594   -0.835474
     48          6           0        4.722679    0.731599   -2.148364
     49          6           0        6.258068   -0.068095   -0.138526
     50          6           0        7.522356   -0.524120   -0.986817
     51          6           0        8.816398   -0.383030   -0.240996
     52          6           0       10.053827   -0.854844   -0.908741
     53          6           0       10.176943   -2.281943   -1.178156
     54          6           0       11.336792   -0.394996   -0.094970
     55          6           0       12.735399   -0.637420   -0.725563
     56          6           0       13.842954    0.058561    0.076068
     57          6           0       15.317648   -0.137852   -0.371662
     58          6           0       15.673144   -1.619801   -0.359730
     59          6           0       16.354924    0.778592    0.352414
     60          6           0       17.746736    0.774658   -0.174216
     61          6           0       18.699657    1.705250    0.569889
     62          6           0       20.163903    1.763400    0.183286
     63          6           0       20.236243    2.429738   -1.234736
     64          6           0       20.937307    2.367472    1.186562
     65          1           0       -3.609504    3.277064    1.654162
     66          1           0       -9.886467    4.418662    0.020262
     67          1           0      -10.825714   -1.929635   -1.049146
     68          1           0       -3.028293   -1.291845    2.305567
     69          1           0       -2.000667    1.220659    1.395315
     70          1           0       -1.862627    0.601298    3.546072
     71          1           0       -3.253225    2.007519    3.595997
     72          1           0       -3.634679    0.269462    3.765689
     73          1           0       -2.734273   -1.873025   -0.479815
     74          1           0       -2.315758    0.208329   -0.295513
     75          1           0       -0.361313   -0.293322    1.316281
     76          1           0       -0.760317   -1.987552    1.203432
     77          1           0       -4.080898    5.661826    0.796775
     78          1           0       -5.495352    6.698226    1.461756
     79          1           0       -4.650963    5.787553    2.475761
     80          1           0       -7.806079    7.060914    1.282856
     81          1           0       -9.238210    6.223872   -1.508844
     82          1           0       -9.043555    7.724728   -0.585365
     83          1           0      -12.240459    3.788623    0.022383
     84          1           0      -11.606830    3.914489   -1.644248
     85          1           0      -13.084187    2.882532   -1.346534
     86          1           0      -12.530704   -1.119218   -1.026142
     87          1           0      -13.585257    0.502315   -1.211256
     88          1           0      -12.407186    0.583850   -3.583387
     89          1           0      -11.819898   -1.018928   -3.461971
     90          1           0      -13.435963   -0.928018   -3.492108
     91          1           0      -10.134295   -4.632528   -0.678803
     92          1           0       -9.446361   -4.518650   -2.268657
     93          1           0       -8.423072   -5.258624   -1.279714
     94          1           0       -3.889278   -3.243572   -0.367638
     95          1           0       -1.789626   -6.147286    2.283201
     96          1           0       -2.361052   -4.745736    3.567879
     97          1           0       -3.554910   -5.996905    3.136788
     98          1           0        2.358184   -2.416472   -1.253759
     99          1           0        2.391913   -0.616458   -2.009944
    100          1           0        3.984621   -1.692815    0.367625
    101          1           0        4.505913    1.943192   -1.578443
    102          1           0        5.602268    0.952895   -3.026003
    103          1           0        3.654030    0.699071   -2.649338
    104          1           0        6.361121    1.071564   -0.070946
    105          1           0        6.227309   -0.828384    0.725607
    106          1           0        7.482125   -1.666141   -1.255847
    107          1           0        7.471151    0.125367   -1.997549
    108          1           0        8.911215    0.586746   -0.028400
    109          1           0        8.615296   -0.978044    0.669378
    110          1           0       10.266148   -0.123472   -1.801147
    111          1           0        9.582779   -2.750805   -1.969674
    112          1           0       11.108888   -2.638493   -1.331606
    113          1           0        9.722067   -3.004698   -0.349173
    114          1           0       11.404467    0.637987    0.415632
    115          1           0       11.285425   -1.038197    0.969521
    116          1           0       12.835837   -1.504074   -0.876649
    117          1           0       12.511269   -0.071376   -1.530571
    118          1           0       13.691628    1.134827    0.364185
    119          1           0       13.838964   -0.380473    1.152475
    120          1           0       15.334905    0.280982   -1.478787
    121          1           0       14.628789   -2.225476   -0.924515
    122          1           0       16.622484   -1.857312   -0.795804
    123          1           0       15.715136   -2.025515    0.582679
    124          1           0       15.745861    1.540522    0.332947
    125          1           0       16.376872    0.461828    1.439706
    126          1           0       18.173766   -0.178871   -0.495179
    127          1           0       17.840086    1.126062   -1.379509
    128          1           0       18.190999    2.693867    0.488664
    129          1           0       18.824284    1.455939    1.885095
    130          1           0       20.326075    0.716452    0.005562
    131          1           0       19.623589    3.487558   -1.160866
    132          1           0       21.358525    2.454215   -1.657480
    133          1           0       19.625992    1.872353   -1.816326
    134          1           0       20.985202    1.780152    2.079174
    135          1           0       21.949546    2.365938    0.854487
    136          1           0       20.710224    3.374612    1.278283
    137          1           0       -6.927932    1.688722    0.502628
    138          1           0       -7.695285   -0.196367   -0.246357
 ---------------------------------------------------------------------

 SCF Done:  E(RB3LYP) =  -2732.88027568     A.U. after   17 cycles

 Excitation energies and oscillator strengths:

 Excited State   1:      Singlet-A      2.0183 eV  614.29 nm  f=0.1560  <S**2>=0.000
     235 -> 237       -0.10020
     235 -> 238        0.29722
     236 -> 237        0.62893
 This state for optimization and/or second-order correction.
 Total Energy, E(TD-HF/TD-DFT) =  -2732.80610358
 Copying the excited state density for this state as the 1-particle RhoCI density.

 The electronic state is 1-A.
 Alpha  occ. eigenvalues --  -19.18821 -19.17846 -19.13932 -19.13297 -19.12946
 Alpha  occ. eigenvalues --  -14.37479 -14.36736 -14.32975 -14.29673 -10.32468
 Alpha  occ. eigenvalues --  -10.32106 -10.28473 -10.26164 -10.25260 -10.23773
 Alpha  occ. eigenvalues --  -10.23686 -10.23674 -10.23613 -10.23431 -10.23168
 Alpha  occ. eigenvalues --  -10.22972 -10.22747 -10.22150 -10.21802 -10.21767
 Alpha  occ. eigenvalues --  -10.21438 -10.21414 -10.21351 -10.21299 -10.21135
 Alpha  occ. eigenvalues --  -10.20930 -10.20828 -10.20710 -10.20653 -10.20628
 Alpha  occ. eigenvalues --  -10.20553 -10.20471 -10.20254 -10.20059 -10.19905
 Alpha  occ. eigenvalues --  -10.19900 -10.19807 -10.19680 -10.19603 -10.19457
 Alpha  occ. eigenvalues --  -10.19371 -10.19320 -10.19286 -10.19224 -10.19190
 Alpha  occ. eigenvalues --  -10.19183 -10.18974 -10.18965 -10.18885 -10.18586
 Alpha  occ. eigenvalues --  -10.18464 -10.18121 -10.18006 -10.17764 -10.17665
 Alpha  occ. eigenvalues --  -10.17599 -10.17462 -10.16239 -10.15826  -1.09965
 Alpha  occ. eigenvalues --   -1.09521  -1.04635  -1.02261  -1.01920  -1.00032
 Alpha  occ. eigenvalues --   -0.98306  -0.94157  -0.92987  -0.84361  -0.83327
 Alpha  occ. eigenvalues --   -0.82608  -0.81615  -0.81442  -0.81313  -0.81107
 Alpha  occ. eigenvalues --   -0.80577  -0.80166  -0.79183  -0.78617  -0.78118
 Alpha  occ. eigenvalues --   -0.77590  -0.76806  -0.76015  -0.74943  -0.74352
 Alpha  occ. eigenvalues --   -0.73677  -0.73297  -0.72401  -0.71974  -0.70946
 Alpha  occ. eigenvalues --   -0.70189  -0.69335  -0.68934  -0.68600  -0.67755
 Alpha  occ. eigenvalues --   -0.67182  -0.67005  -0.65983  -0.65717  -0.64473
 Alpha  occ. eigenvalues --   -0.63415  -0.63187  -0.62756  -0.62097  -0.61701
 Alpha  occ. eigenvalues --   -0.60698  -0.59758  -0.58404  -0.57881  -0.57431
 Alpha  occ. eigenvalues --   -0.56392  -0.55926  -0.55729  -0.55464  -0.55387
 Alpha  occ. eigenvalues --   -0.55149  -0.54602  -0.54437  -0.54249  -0.52910
 Alpha  occ. eigenvalues --   -0.52319  -0.51857  -0.51268  -0.51053  -0.50653
 Alpha  occ. eigenvalues --   -0.50285  -0.50138  -0.49532  -0.49463  -0.49305
 Alpha  occ. eigenvalues --   -0.48907  -0.48235  -0.47968  -0.47573  -0.47311
 Alpha  occ. eigenvalues --   -0.47086  -0.46682  -0.46515  -0.46376  -0.45991
 Alpha  occ. eigenvalues --   -0.45679  -0.45374  -0.45283  -0.45204  -0.45028
 Alpha  occ. eigenvalues --   -0.44870  -0.44683  -0.44267  -0.44064  -0.43858
 Alpha  occ. eigenvalues --   -0.43585  -0.43157  -0.43010  -0.42873  -0.42762
 Alpha  occ. eigenvalues --   -0.42565  -0.42352  -0.42280  -0.41855  -0.41580
 Alpha  occ. eigenvalues --   -0.41392  -0.41118  -0.41058  -0.40851  -0.40521
 Alpha  occ. eigenvalues --   -0.40210  -0.40129  -0.39916  -0.39840  -0.39118
 Alpha  occ. eigenvalues --   -0.39063  -0.38721  -0.38674  -0.38552  -0.38434
 Alpha  occ. eigenvalues --   -0.38203  -0.37942  -0.37869  -0.37607  -0.37484
 Alpha  occ. eigenvalues --   -0.37445  -0.37300  -0.37252  -0.37003  -0.36881
 Alpha  occ. eigenvalues --   -0.36707  -0.36581  -0.36380  -0.36032  -0.35765
 Alpha  occ. eigenvalues --   -0.35645  -0.35514  -0.35318  -0.35024  -0.34879
 Alpha  occ. eigenvalues --   -0.34797  -0.34688  -0.34441  -0.34145  -0.33770
 Alpha  occ. eigenvalues --   -0.33443  -0.33197  -0.33015  -0.32516  -0.32354
 Alpha  occ. eigenvalues --   -0.32111  -0.31931  -0.31422  -0.31227  -0.31095
 Alpha  occ. eigenvalues --   -0.30820  -0.30245  -0.30072  -0.29917  -0.29554
 Alpha  occ. eigenvalues --   -0.29419  -0.29254  -0.28744  -0.28662  -0.28262
 Alpha  occ. eigenvalues --   -0.28170  -0.27477  -0.26793  -0.26125  -0.25665
 Alpha  occ. eigenvalues --   -0.25371  -0.24948  -0.23642  -0.22383  -0.19549
 Alpha  occ. eigenvalues --   -0.18339
 Alpha virt. eigenvalues --   -0.09792  -0.07483  -0.04274  -0.02650  -0.01889
 Alpha virt. eigenvalues --   -0.01107  -0.00285   0.00296   0.01479   0.02920
 Alpha virt. eigenvalues --    0.03205   0.03828   0.04005   0.04059   0.04533

 Mulliken charges:
               1
     1  C   -0.062229
     2  C   -0.083932
     3  C   -0.150093
     4  C   -0.084322
     5  N   -0.208776
     6  C   -0.004140
     7  C   -0.109145
     8  C   -0.148555
     9  C   -0.005150
    10  C    0.146740
    11  C   -0.038400
    12  C    0.076119
    13  C    0.204319
    14  O   -0.199393
    15  O   -0.311091
    16  N   -0.017231
    17  C    0.091299
    18  C   -0.171785
    19  C    0.000144
    20  C    0.079117
    21  C    0.130302
    22  C   -0.048094
    23  C    0.058208
    24  N   -0.243807
    25  C    0.062955
    26  C   -0.199840
    27  C   -0.036490
    28  C    0.014210
    29  C    0.094376
    30  C    0.034953
    31  C    0.025934
    32  N    0.005821
    33  C    0.043083
    34  C   -0.126226
    35  C   -0.004586
    36  C    0.086666
    37  C    0.115553
    38  C    0.081554
    39  O   -0.133110
    40  C   -0.053473
    41  C    0.209995
    42  O   -0.209997
    43  O   -0.290040
    44  C    0.120953
    45  C    0.204538
    46  C   -0.096883
    47  C   -0.078660
    48  C   -0.115708
    49  C    0.102863
    50  C   -0.084284
    51  C    0.144622
    52  C   -0.017371
    53  C    0.082624
    54  C   -0.155602
    55  C    0.335872
    56  C   -0.045183
    57  C   -0.119213
    58  C    0.037928
    59  C    0.156316
    60  C    0.006192
    61  C   -0.069633
    62  C   -0.078772
    63  C    0.014793
    64  C    0.195820
    65  H   -0.012835
    66  H    0.044670
    67  H    0.010726
    68  H    0.018251
    69  H    0.020795
    70  H    0.028440
    71  H    0.020787
    72  H   -0.001921
    73  H    0.076114
    74  H    0.033871
    75  H    0.010215
    76  H    0.039521
    77  H    0.039108
    78  H   -0.020503
    79  H    0.009384
    80  H    0.022267
    81  H    0.062783
    82  H   -0.071828
    83  H    0.023621
    84  H    0.022538
    85  H    0.006843
    86  H    0.019339
    87  H    0.020981
    88  H    0.004845
    89  H    0.004559
    90  H    0.007748
    91  H    0.041610
    92  H    0.003867
    93  H    0.007660
    94  H    0.067910
    95  H    0.059789
    96  H    0.054603
    97  H    0.043518
    98  H    0.033356
    99  H    0.012624
   100  H   -0.016508
   101  H    0.023313
   102  H    0.078942
   103  H    0.052456
   104  H    0.020720
   105  H    0.024325
   106  H    0.010399
   107  H    0.009498
   108  H   -0.054204
   109  H   -0.014248
   110  H    0.000756
   111  H    0.001683
   112  H   -0.028512
   113  H    0.002940
   114  H    0.006322
   115  H   -0.021592
   116  H   -0.116766
   117  H   -0.040525
   118  H   -0.006182
   119  H   -0.011928
   120  H   -0.004928
   121  H    0.016132
   122  H    0.007165
   123  H   -0.015778
   124  H   -0.061401
   125  H   -0.007051
   126  H   -0.013226
   127  H   -0.008100
   128  H   -0.001338
   129  H   -0.002831
   130  H   -0.027495
   131  H    0.014191
   132  H    0.032910
   133  H   -0.027367
   134  H   -0.003772
   135  H   -0.031024
   136  H   -0.019448
   137  H    0.208896
   138  H    0.095661
 Sum of Mulliken charges =  -0.00000

 Dipole moment (field-independent basis, Debye):
    X=              2.8144    Y=              3.6517    Z=              1.2871  Tot=              4.7866
 Quadrupole moment (field-independent basis, Debye-Ang):
   XX=           -353.9877   YY=           -381.4580   ZZ=           -399.3503
   XY=            -29.7278   XZ=              2.5899   YZ=              2.0168

 Normal termination of Gaussian 16 at Fri Aug  9 04:28:07 2019.
