 Gaussian 16, Revision A.03,
 Gaussian 16:  ES64L-G16RevA.03 25-Dec-2016

 --------------------------
 # td=(NStates=1) B3LYP/SVP
 --------------------------

 --
 TD
 --
 Symbolic Z-matrix:
 Charge =  0 Multiplicity = 1

                         Standard orientation:
 ---------------------------------------------------------------------
 Center     Atomic      Atomic             Coordinates (Angstroms)
 Number     Number       Type             X           Y           Z
 ---------------------------------------------------------------------
      1          6           0       -5.183507   -1.917487    0.514545
      2          6           0       -4.581168    2.874051    1.355026
      3          6           0       -9.306314    3.378186   -0.197879
      4          6           0       -9.861620   -1.538115   -1.043934
      5          7           0       -5.140041    0.483519    0.797905
      6          6           0       -4.485402   -0.737355    0.867821
      7          6           0       -3.103620   -0.660437    1.326510
      8          6           0       -3.014910    0.841016    1.840227
      9          6           0       -4.313235    1.413218    1.301050
     10          6           0       -3.110269    0.850289    3.468001
     11          6           0       -2.099727   -0.901693    0.048213
     12          6           0       -0.584216   -0.868549    0.503228
     13          6           0        0.384775   -1.194244   -0.596649
     14          8           0        0.127756   -1.774038   -1.616091
     15          8           0        1.631473   -0.853015   -0.207229
     16          7           0       -6.972668    2.785936    0.510824
     17          6           0       -5.942669    3.473271    1.055974
     18          6           0       -6.195796    4.807207    1.016030
     19          6           0       -7.459528    5.008457    0.512803
     20          6           0       -7.943353    3.726273    0.193557
     21          6           0       -5.301902    5.867553    1.730266
     22          6           0       -8.167311    6.174660    0.391994
     23          6           0       -9.184373    6.587842   -0.537805
     24          7           0       -9.194434    0.887819   -0.586300
     25          6           0       -9.832914    2.098354   -0.511257
     26          6           0      -11.251101    1.925245   -0.891803
     27          6           0      -11.443222    0.576307   -1.275209
     28          6           0      -10.155821   -0.088230   -0.813615
     29          6           0      -12.187752    3.088894   -1.094239
     30          6           0      -12.575018   -0.190149   -1.747888
     31          6           0      -12.607435   -0.261636   -3.287023
     32          7           0       -7.537745   -1.230204   -0.327196
     33          6           0       -8.633176   -2.017393   -0.714120
     34          6           0       -8.159415   -3.438831   -0.812264
     35          6           0       -6.810312   -3.425161   -0.409271
     36          6           0       -6.537806   -2.084224   -0.024746
     37          6           0       -9.016957   -4.564532   -1.035256
     38          6           0       -5.733498   -4.284203    0.025845
     39          8           0       -5.696220   -5.506094   -0.141992
     40          6           0       -4.570459   -3.332909    0.445866
     41          6           0       -4.015003   -3.914897    1.682659
     42          8           0       -4.411111   -3.700912    2.913566
     43          8           0       -2.929056   -4.792999    1.456466
     44          6           0       -2.400192   -5.421282    2.644989
     45          6           0        2.761448   -1.207020   -1.094275
     46          6           0        3.966341   -0.693212   -0.520357
     47          6           0        4.903651    0.042931   -1.099757
     48          6           0        4.822080    0.801431   -2.429903
     49          6           0        6.178208    0.378950   -0.240518
     50          6           0        7.412400   -0.253469   -0.644095
     51          6           0        8.760953    0.003284   -0.019935
     52          6           0       10.051967   -0.613100   -0.637190
     53          6           0       10.064327   -2.216725   -0.602586
     54          6           0       11.245392   -0.074181    0.190959
     55          6           0       12.606882   -0.597602   -0.355840
     56          6           0       13.855353    0.094798    0.288956
     57          6           0       15.158098   -0.189568   -0.366033
     58          6           0       15.566030   -1.655155   -0.501803
     59          6           0       16.307783    0.712479    0.398753
     60          6           0       17.637538    0.774336   -0.332026
     61          6           0       18.815519    1.535605    0.517520
     62          6           0       20.223495    1.499365   -0.112550
     63          6           0       20.148317    2.133533   -1.534946
     64          6           0       21.235890    2.230110    0.847647
     65          1           0       -3.816988    3.592807    1.892923
     66          1           0      -10.134425    4.061567   -0.302566
     67          1           0      -10.574190   -1.974379   -1.504294
     68          1           0       -2.778324   -1.611208    1.974697
     69          1           0       -2.022053    1.418035    1.649566
     70          1           0       -2.227774    0.353009    3.971482
     71          1           0       -3.450369    1.883126    3.796510
     72          1           0       -4.032724    0.252601    3.597953
     73          1           0       -2.172912   -1.771583   -0.491828
     74          1           0       -2.346227   -0.044559   -0.555059
     75          1           0       -0.354036    0.157809    0.842136
     76          1           0       -0.542827   -1.729660    1.248947
     77          1           0       -4.318179    6.133877    1.093813
     78          1           0       -5.799663    6.863253    1.939017
     79          1           0       -5.048038    5.554643    2.840293
     80          1           0       -7.846762    6.972217    0.991831
     81          1           0       -9.443273    5.843224   -1.396150
     82          1           0       -9.839334    7.439859   -0.278394
     83          1           0      -12.247853    3.575018    0.113646
     84          1           0      -12.155038    3.700876   -2.201397
     85          1           0      -13.210478    2.628794   -1.098349
     86          1           0      -12.749892   -1.160801   -1.348546
     87          1           0      -13.547999    0.270588   -1.510594
     88          1           0      -12.459457    0.694309   -3.818344
     89          1           0      -11.847656   -1.084333   -3.667001
     90          1           0      -13.583572   -0.670250   -3.556059
     91          1           0       -9.949626   -4.802919   -0.506051
     92          1           0       -9.267250   -4.715038   -2.162976
     93          1           0       -8.496498   -5.471433   -0.686722
     94          1           0       -3.818891   -3.533680   -0.481452
     95          1           0       -1.345856   -5.997288    2.434634
     96          1           0       -2.714936   -4.409324    3.395783
     97          1           0       -3.087485   -6.264185    3.026567
     98          1           0        2.797679   -2.240955   -1.231791
     99          1           0        2.404519   -0.726366   -2.097095
    100          1           0        4.090045   -0.959514    0.567382
    101          1           0        5.036356    1.869948   -2.406485
    102          1           0        5.494404    0.419991   -3.192643
    103          1           0        3.785170    0.681000   -2.917965
    104          1           0        6.296625    1.455862   -0.152636
    105          1           0        5.952112   -0.009288    0.739343
    106          1           0        7.239439   -1.277934   -0.836744
    107          1           0        7.555468   -0.058983   -1.846864
    108          1           0        9.032362    1.028394    0.194534
    109          1           0        8.399673   -0.577159    0.851032
    110          1           0       10.126385    0.016400   -1.530457
    111          1           0        9.111283   -2.565353   -1.077052
    112          1           0       10.832060   -2.565886   -1.254649
    113          1           0       10.118739   -2.514335    0.382023
    114          1           0       11.141175    0.972754    0.303796
    115          1           0       11.242999   -0.340092    1.185921
    116          1           0       12.565666   -1.723649   -0.016526
    117          1           0       12.649358   -0.335498   -1.373126
    118          1           0       13.776578    1.083316    0.330201
    119          1           0       13.768015   -0.345408    1.342471
    120          1           0       15.081161    0.299439   -1.409166
    121          1           0       15.011264   -2.139982   -1.406408
    122          1           0       16.622050   -1.747668   -0.739229
    123          1           0       15.248462   -2.175017    0.502022
    124          1           0       15.945347    1.825082    0.467038
    125          1           0       16.215986    0.318573    1.487767
    126          1           0       18.078768   -0.270763   -0.540072
    127          1           0       17.288880    1.386866   -1.260533
    128          1           0       18.519889    2.579177    0.848299
    129          1           0       18.910625    1.174457    1.480060
    130          1           0       20.536077    0.395069   -0.476226
    131          1           0       20.015872    3.368465   -1.381254
    132          1           0       21.112731    1.991397   -2.207148
    133          1           0       19.382561    1.620200   -2.071113
    134          1           0       21.237466    1.786797    1.805247
    135          1           0       22.328366    2.529578    0.381868
    136          1           0       20.955951    3.258413    1.122115
    137          1           0       -6.926917    1.819060    0.228983
    138          1           0       -7.643261   -0.272095   -0.145337
 ---------------------------------------------------------------------

 SCF Done:  E(RB3LYP) =  -2733.07166316     A.U. after   18 cycles

 Excitation energies and oscillator strengths:

 Excited State   1:      Singlet-A      1.8921 eV  655.28 nm  f=0.1591  <S**2>=0.000
     235 -> 237       -0.25725
     235 -> 238       -0.24792
     236 -> 237        0.57508
     236 -> 238       -0.19005
 This state for optimization and/or second-order correction.
 Total Energy, E(TD-HF/TD-DFT) =  -2733.00213092
 Copying the excited state density for this state as the 1-particle RhoCI density.

 The electronic state is 1-A.
 Alpha  occ. eigenvalues --  -19.18178 -19.17064 -19.13445 -19.12937 -19.12227
 Alpha  occ. eigenvalues --  -14.37578 -14.37308 -14.33108 -14.30369 -10.33193
 Alpha  occ. eigenvalues --  -10.31091 -10.28786 -10.25747 -10.24979 -10.24710
 Alpha  occ. eigenvalues --  -10.24229 -10.24168 -10.24137 -10.24041 -10.23703
 Alpha  occ. eigenvalues --  -10.23699 -10.22895 -10.22443 -10.22269 -10.22155
 Alpha  occ. eigenvalues --  -10.22120 -10.21949 -10.21749 -10.21579 -10.21469
 Alpha  occ. eigenvalues --  -10.21161 -10.20934 -10.20863 -10.20778 -10.20539
 Alpha  occ. eigenvalues --  -10.20308 -10.20227 -10.20087 -10.19976 -10.19881
 Alpha  occ. eigenvalues --  -10.19881 -10.19726 -10.19673 -10.19637 -10.19547
 Alpha  occ. eigenvalues --  -10.19441 -10.19404 -10.19334 -10.19278 -10.19243
 Alpha  occ. eigenvalues --  -10.19188 -10.19160 -10.19073 -10.19008 -10.18980
 Alpha  occ. eigenvalues --  -10.18821 -10.18559 -10.18448 -10.18325 -10.18266
 Alpha  occ. eigenvalues --  -10.18060 -10.18027 -10.17050 -10.16661  -1.08768
 Alpha  occ. eigenvalues --   -1.06624  -1.02453  -1.00453  -0.99349  -0.98956
 Alpha  occ. eigenvalues --   -0.97068  -0.94860  -0.92050  -0.85485  -0.83095
 Alpha  occ. eigenvalues --   -0.82995  -0.81644  -0.81619  -0.80575  -0.80154
 Alpha  occ. eigenvalues --   -0.80067  -0.79411  -0.79150  -0.78658  -0.77845
 Alpha  occ. eigenvalues --   -0.76753  -0.75771  -0.75694  -0.74348  -0.73914
 Alpha  occ. eigenvalues --   -0.73738  -0.73013  -0.72066  -0.71307  -0.70576
 Alpha  occ. eigenvalues --   -0.69272  -0.68761  -0.68287  -0.68143  -0.67643
 Alpha  occ. eigenvalues --   -0.67064  -0.66422  -0.66102  -0.66010  -0.65717
 Alpha  occ. eigenvalues --   -0.63960  -0.63507  -0.63014  -0.61972  -0.61640
 Alpha  occ. eigenvalues --   -0.61499  -0.58829  -0.58475  -0.58139  -0.57053
 Alpha  occ. eigenvalues --   -0.56449  -0.56266  -0.56157  -0.56079  -0.55644
 Alpha  occ. eigenvalues --   -0.54568  -0.54421  -0.54231  -0.53737  -0.53438
 Alpha  occ. eigenvalues --   -0.52717  -0.52533  -0.51505  -0.51088  -0.50797
 Alpha  occ. eigenvalues --   -0.50325  -0.49772  -0.48781  -0.48452  -0.48316
 Alpha  occ. eigenvalues --   -0.48143  -0.47642  -0.47504  -0.47094  -0.46866
 Alpha  occ. eigenvalues --   -0.46743  -0.46303  -0.45788  -0.45654  -0.45565
 Alpha  occ. eigenvalues --   -0.45390  -0.45222  -0.44951  -0.44689  -0.44586
 Alpha  occ. eigenvalues --   -0.44341  -0.44212  -0.44125  -0.44004  -0.43924
 Alpha  occ. eigenvalues --   -0.43829  -0.43457  -0.42942  -0.42837  -0.42591
 Alpha  occ. eigenvalues --   -0.42510  -0.42055  -0.41849  -0.41801  -0.41695
 Alpha  occ. eigenvalues --   -0.41323  -0.41036  -0.40921  -0.40664  -0.40509
 Alpha  occ. eigenvalues --   -0.40455  -0.39851  -0.39553  -0.39424  -0.39289
 Alpha  occ. eigenvalues --   -0.39223  -0.39072  -0.38914  -0.38818  -0.38575
 Alpha  occ. eigenvalues --   -0.38412  -0.37858  -0.37832  -0.37606  -0.37297
 Alpha  occ. eigenvalues --   -0.37215  -0.37190  -0.37116  -0.36570  -0.36525
 Alpha  occ. eigenvalues --   -0.36263  -0.36173  -0.35972  -0.35834  -0.35659
 Alpha  occ. eigenvalues --   -0.35560  -0.35340  -0.35064  -0.35024  -0.34716
 Alpha  occ. eigenvalues --   -0.34613  -0.33933  -0.33902  -0.33802  -0.33668
 Alpha  occ. eigenvalues --   -0.33370  -0.33218  -0.33144  -0.32781  -0.32590
 Alpha  occ. eigenvalues --   -0.32494  -0.32251  -0.31954  -0.31511  -0.31223
 Alpha  occ. eigenvalues --   -0.30997  -0.30746  -0.30580  -0.30541  -0.29792
 Alpha  occ. eigenvalues --   -0.29792  -0.28456  -0.28003  -0.27877  -0.27747
 Alpha  occ. eigenvalues --   -0.27502  -0.27173  -0.26994  -0.26162  -0.26039
 Alpha  occ. eigenvalues --   -0.25839  -0.25660  -0.23510  -0.22187  -0.20111
 Alpha  occ. eigenvalues --   -0.19013
 Alpha virt. eigenvalues --   -0.11224  -0.08619  -0.05670  -0.03450  -0.03009
 Alpha virt. eigenvalues --   -0.00868  -0.00110   0.00170   0.01338   0.02095
 Alpha virt. eigenvalues --    0.03551   0.04104   0.04253   0.04786   0.04825

 Mulliken charges:
               1
     1  C    0.053959
     2  C   -0.069968
     3  C   -0.045058
     4  C    0.008002
     5  N   -0.184259
     6  C   -0.027676
     7  C   -0.091094
     8  C   -0.083817
     9  C    0.020674
    10  C    0.029627
    11  C    0.048233
    12  C    0.036533
    13  C    0.163894
    14  O   -0.228290
    15  O   -0.343153
    16  N   -0.036457
    17  C    0.031321
    18  C   -0.092429
    19  C    0.136471
    20  C    0.091756
    21  C   -0.009995
    22  C   -0.115057
    23  C   -0.052881
    24  N   -0.266051
    25  C    0.030022
    26  C   -0.146825
    27  C   -0.050251
    28  C    0.014704
    29  C   -0.017307
    30  C    0.060833
    31  C   -0.020703
    32  N    0.007397
    33  C    0.159069
    34  C   -0.090773
    35  C    0.023558
    36  C    0.060738
    37  C    0.029836
    38  C    0.052162
    39  O   -0.189048
    40  C   -0.053371
    41  C    0.263588
    42  O   -0.310029
    43  O   -0.327772
    44  C    0.044110
    45  C    0.291977
    46  C   -0.099815
    47  C   -0.137810
    48  C    0.074088
    49  C    0.140014
    50  C   -0.003426
    51  C    0.060414
    52  C   -0.069759
    53  C    0.079364
    54  C    0.045085
    55  C    0.037447
    56  C    0.088319
    57  C   -0.101602
    58  C    0.027379
    59  C   -0.054341
    60  C    0.007346
    61  C    0.055058
    62  C   -0.103743
    63  C   -0.031480
    64  C    0.026366
    65  H    0.025789
    66  H   -0.027975
    67  H   -0.108051
    68  H    0.048606
    69  H    0.032647
    70  H    0.042220
    71  H    0.021746
    72  H    0.023533
    73  H    0.004317
    74  H    0.000957
    75  H    0.030696
    76  H    0.049348
    77  H    0.051838
    78  H    0.021153
    79  H    0.047714
    80  H   -0.027155
    81  H    0.053643
    82  H    0.039224
    83  H    0.055475
    84  H    0.075621
    85  H    0.007989
    86  H   -0.004693
    87  H   -0.010640
    88  H    0.027674
    89  H    0.019614
    90  H    0.002758
    91  H    0.031583
    92  H    0.043468
    93  H    0.029969
    94  H    0.108876
    95  H    0.065766
    96  H    0.093302
    97  H    0.046473
    98  H    0.014243
    99  H    0.033925
   100  H    0.009686
   101  H    0.022404
   102  H    0.019736
   103  H    0.009398
   104  H   -0.008279
   105  H   -0.030419
   106  H   -0.031565
   107  H   -0.047866
   108  H   -0.011845
   109  H   -0.018251
   110  H   -0.010666
   111  H    0.009428
   112  H    0.018478
   113  H    0.004698
   114  H   -0.039722
   115  H   -0.049166
   116  H    0.026590
   117  H   -0.023546
   118  H   -0.052182
   119  H   -0.012861
   120  H   -0.012912
   121  H    0.025638
   122  H    0.004138
   123  H    0.022242
   124  H    0.006084
   125  H    0.003208
   126  H    0.026759
   127  H    0.034384
   128  H   -0.012405
   129  H   -0.034562
   130  H    0.015120
   131  H    0.017790
   132  H    0.017722
   133  H    0.010738
   134  H   -0.000774
   135  H    0.025921
   136  H   -0.004201
   137  H    0.144198
   138  H    0.110103
 Sum of Mulliken charges =  -0.00000

 Dipole moment (field-independent basis, Debye):
    X=              0.7819    Y=              3.8924    Z=              0.0888  Tot=              3.9712
 Quadrupole moment (field-independent basis, Debye-Ang):
   XX=           -344.9729   YY=           -390.2390   ZZ=           -399.6675
   XY=            -17.1596   XZ=             16.7386   YZ=              6.0813

 Normal termination of Gaussian 16 at Thu Aug 22 20:39:22 2019.
