 Gaussian 16, Revision A.03,
 Gaussian 16:  ES64L-G16RevA.03 25-Dec-2016

 --------------------------
 # td=(NStates=1) B3LYP/SVP
 --------------------------

 --
 TD
 --
 Symbolic Z-matrix:
 Charge =  0 Multiplicity = 1

                         Standard orientation:
 ---------------------------------------------------------------------
 Center     Atomic      Atomic             Coordinates (Angstroms)
 Number     Number       Type             X           Y           Z
 ---------------------------------------------------------------------
      1          6           0       -5.103929   -1.970923    0.534872
      2          6           0       -4.683168    2.746202    1.553773
      3          6           0       -9.144811    3.373617   -0.154388
      4          6           0       -9.762608   -1.402269   -0.880876
      5          7           0       -5.042452    0.442536    0.975645
      6          6           0       -4.481454   -0.799471    0.938152
      7          6           0       -2.935728   -0.652853    1.278749
      8          6           0       -2.964192    0.768954    1.951433
      9          6           0       -4.345688    1.367747    1.392994
     10          6           0       -3.012497    0.771696    3.577764
     11          6           0       -2.199384   -0.725812    0.128966
     12          6           0       -0.627133   -0.639849    0.378960
     13          6           0        0.347338   -0.782055   -0.844646
     14          8           0        0.005609   -1.050832   -1.959415
     15          8           0        1.680838   -0.753595   -0.428469
     16          7           0       -6.908671    2.784230    0.523884
     17          6           0       -5.879426    3.381700    1.202151
     18          6           0       -6.114260    4.717717    1.261999
     19          6           0       -7.376336    5.025416    0.698352
     20          6           0       -7.875694    3.716151    0.295838
     21          6           0       -5.042201    5.778463    1.622085
     22          6           0       -8.098541    6.333684    0.515934
     23          6           0       -8.889485    6.619255   -0.493814
     24          7           0       -9.262550    0.845301   -0.593233
     25          6           0       -9.773409    2.107000   -0.622064
     26          6           0      -11.207785    1.951110   -1.028007
     27          6           0      -11.371131    0.643400   -1.356500
     28          6           0      -10.123967   -0.043626   -0.897217
     29          6           0      -12.178221    3.154677   -1.073610
     30          6           0      -12.521271   -0.061225   -1.850891
     31          6           0      -12.477912   -0.541204   -3.439369
     32          7           0       -7.455058   -1.273919   -0.215126
     33          6           0       -8.584722   -2.026833   -0.570149
     34          6           0       -8.144705   -3.395568   -0.569830
     35          6           0       -6.839072   -3.507186   -0.223949
     36          6           0       -6.406036   -2.088210    0.030144
     37          6           0       -9.103455   -4.490910   -1.016728
     38          6           0       -5.750319   -4.412016    0.183010
     39          8           0       -5.748223   -5.595161    0.211405
     40          6           0       -4.557879   -3.356400    0.563572
     41          6           0       -3.992199   -3.869513    1.762604
     42          8           0       -4.133346   -3.500251    2.899301
     43          8           0       -3.116809   -4.948144    1.533324
     44          6           0       -2.618367   -5.604227    2.636421
     45          6           0        2.654880   -0.839635   -1.632062
     46          6           0        3.936757   -0.664674   -0.920491
     47          6           0        4.930132    0.029953   -1.452766
     48          6           0        4.975154    0.892516   -2.699503
     49          6           0        6.191331    0.200440   -0.553151
     50          6           0        7.479772   -0.547113   -1.178740
     51          6           0        8.750848   -0.311026   -0.269210
     52          6           0       10.115602   -0.980168   -0.695303
     53          6           0        9.942923   -2.474249   -0.880248
     54          6           0       11.243871   -0.471204    0.192712
     55          6           0       12.611736   -0.727135   -0.376630
     56          6           0       13.819368   -0.202397    0.469001
     57          6           0       15.169608   -0.277486   -0.326046
     58          6           0       15.595382   -1.688990   -0.626538
     59          6           0       16.223383    0.511528    0.432356
     60          6           0       17.559174    0.759253   -0.142415
     61          6           0       18.461363    1.640207    0.672708
     62          6           0       19.868486    1.810882    0.125967
     63          6           0       19.974246    2.475367   -1.249821
     64          6           0       20.693615    2.626253    1.195876
     65          1           0       -3.932843    3.351651    2.317932
     66          1           0       -9.691306    4.350128   -0.462027
     67          1           0      -10.737424   -2.098162   -1.111317
     68          1           0       -2.520655   -1.368703    2.084777
     69          1           0       -2.175869    1.336907    1.653228
     70          1           0       -2.140697    0.141181    3.978425
     71          1           0       -3.096749    1.802202    4.279804
     72          1           0       -3.895581    0.462831    4.000639
     73          1           0       -2.289344   -1.676998   -0.323065
     74          1           0       -2.592269    0.080332   -0.576132
     75          1           0       -0.283001    0.352668    0.959628
     76          1           0       -0.278794   -1.377590    1.188081
     77          1           0       -4.424138    5.780370    0.786523
     78          1           0       -5.349724    6.790098    1.908003
     79          1           0       -4.488663    5.536412    2.616523
     80          1           0       -7.926737    7.086263    1.366792
     81          1           0       -8.896799    6.169950   -1.492131
     82          1           0       -9.221793    7.678744   -0.812551
     83          1           0      -12.456275    3.290579    0.158645
     84          1           0      -11.839725    4.111359   -1.638777
     85          1           0      -13.173267    2.828009   -1.578110
     86          1           0      -12.862370   -0.914316   -1.427257
     87          1           0      -13.384033    0.584224   -1.892129
     88          1           0      -12.551787    0.361398   -3.956288
     89          1           0      -11.429589   -1.149058   -3.651774
     90          1           0      -13.488368   -1.055745   -3.715793
     91          1           0      -10.118028   -4.172764   -0.505225
     92          1           0       -9.292920   -4.353011   -2.156149
     93          1           0       -8.719696   -5.602445   -0.644231
     94          1           0       -3.875261   -3.511443   -0.190151
     95          1           0       -1.749380   -6.245401    2.205536
     96          1           0       -2.092805   -4.893179    3.382956
     97          1           0       -3.479393   -6.179340    3.079243
     98          1           0        2.400335   -1.844920   -1.916426
     99          1           0        2.140231    0.074182   -2.319108
    100          1           0        4.282065   -1.210463    0.123346
    101          1           0        5.178578    1.910470   -2.261193
    102          1           0        5.651725    0.581325   -3.358900
    103          1           0        3.980016    0.692604   -3.313597
    104          1           0        6.247674    1.183687   -0.184269
    105          1           0        5.825657   -0.403259    0.335679
    106          1           0        7.104422   -1.614030   -1.212514
    107          1           0        7.427850    0.026103   -2.258542
    108          1           0        8.841481    0.774751    0.036073
    109          1           0        8.386228   -0.714962    0.737882
    110          1           0       10.298518   -0.516133   -1.605456
    111          1           0        8.991097   -2.792519   -1.178294
    112          1           0       10.775328   -2.939410   -1.442526
    113          1           0       10.154553   -3.063192    0.115947
    114          1           0       11.153044    0.771100    0.293364
    115          1           0       11.185494   -0.852956    1.184503
    116          1           0       12.750656   -1.832255   -0.299366
    117          1           0       12.747993   -0.130151   -1.264915
    118          1           0       13.603727    0.869383    0.960141
    119          1           0       14.007357   -0.996910    1.358709
    120          1           0       14.911569    0.221825   -1.329771
    121          1           0       14.948937   -2.186726   -1.441757
    122          1           0       16.545456   -1.938492   -1.190913
    123          1           0       15.591369   -2.417180    0.217718
    124          1           0       15.835316    1.406136    0.838289
    125          1           0       16.276120   -0.138027    1.467713
    126          1           0       18.103231   -0.149190   -0.067261
    127          1           0       17.364240    0.848629   -1.307064
    128          1           0       17.864493    2.673204    0.685326
    129          1           0       18.580233    1.628712    1.969694
    130          1           0       20.333112    0.907280   -0.099059
    131          1           0       19.480306    3.413322   -1.193916
    132          1           0       21.001287    2.531153   -1.530300
    133          1           0       19.518247    1.872363   -1.992306
    134          1           0       20.581144    2.075932    2.137095
    135          1           0       21.749577    2.664707    0.749137
    136          1           0       20.139358    3.732091    1.266066
    137          1           0       -7.047390    1.723488    0.236272
    138          1           0       -7.426664   -0.235764   -0.095067
 ---------------------------------------------------------------------

 SCF Done:  E(RB3LYP) =  -2733.03057828     A.U. after   17 cycles

 Excitation energies and oscillator strengths:

 Excited State   1:      Singlet-A      2.0907 eV  593.03 nm  f=0.1256  <S**2>=0.000
     235 -> 237        0.19102
     235 -> 238       -0.27888
     236 -> 237        0.58185
     236 -> 238        0.20802
 This state for optimization and/or second-order correction.
 Total Energy, E(TD-HF/TD-DFT) =  -2732.95374675
 Copying the excited state density for this state as the 1-particle RhoCI density.

 The electronic state is 1-A.
 Alpha  occ. eigenvalues --  -19.15799 -19.15681 -19.14147 -19.12561 -19.11962
 Alpha  occ. eigenvalues --  -14.38082 -14.37375 -14.31888 -14.29636 -10.31173
 Alpha  occ. eigenvalues --  -10.30801 -10.29591 -10.25824 -10.24362 -10.24070
 Alpha  occ. eigenvalues --  -10.24020 -10.23864 -10.23722 -10.23614 -10.22804
 Alpha  occ. eigenvalues --  -10.22447 -10.22433 -10.22123 -10.22102 -10.21821
 Alpha  occ. eigenvalues --  -10.21817 -10.21556 -10.21555 -10.21159 -10.21100
 Alpha  occ. eigenvalues --  -10.21065 -10.21003 -10.20971 -10.20744 -10.20433
 Alpha  occ. eigenvalues --  -10.20406 -10.20299 -10.20239 -10.19954 -10.19947
 Alpha  occ. eigenvalues --  -10.19858 -10.19846 -10.19741 -10.19734 -10.19691
 Alpha  occ. eigenvalues --  -10.19662 -10.19527 -10.19500 -10.19463 -10.19389
 Alpha  occ. eigenvalues --  -10.19300 -10.19174 -10.18815 -10.18786 -10.18675
 Alpha  occ. eigenvalues --  -10.18625 -10.18312 -10.18272 -10.18181 -10.18155
 Alpha  occ. eigenvalues --  -10.18082 -10.18024 -10.17837 -10.16417  -1.08453
 Alpha  occ. eigenvalues --   -1.07032  -1.05843  -0.99946  -0.98914  -0.98887
 Alpha  occ. eigenvalues --   -0.98652  -0.96562  -0.95102  -0.86014  -0.82706
 Alpha  occ. eigenvalues --   -0.82327  -0.82082  -0.81634  -0.81363  -0.81139
 Alpha  occ. eigenvalues --   -0.80730  -0.79698  -0.79424  -0.78799  -0.77069
 Alpha  occ. eigenvalues --   -0.76372  -0.76078  -0.75165  -0.74420  -0.73877
 Alpha  occ. eigenvalues --   -0.73257  -0.72834  -0.72244  -0.71706  -0.70564
 Alpha  occ. eigenvalues --   -0.69797  -0.68691  -0.68230  -0.67724  -0.67648
 Alpha  occ. eigenvalues --   -0.66988  -0.66904  -0.66098  -0.65916  -0.64744
 Alpha  occ. eigenvalues --   -0.64154  -0.63148  -0.62760  -0.61605  -0.61408
 Alpha  occ. eigenvalues --   -0.60925  -0.58905  -0.58438  -0.58012  -0.56954
 Alpha  occ. eigenvalues --   -0.56213  -0.56152  -0.55553  -0.55530  -0.55445
 Alpha  occ. eigenvalues --   -0.54680  -0.54415  -0.53895  -0.53624  -0.52948
 Alpha  occ. eigenvalues --   -0.52403  -0.52218  -0.52125  -0.51573  -0.50596
 Alpha  occ. eigenvalues --   -0.50030  -0.49249  -0.48849  -0.48624  -0.48405
 Alpha  occ. eigenvalues --   -0.47871  -0.47687  -0.47399  -0.47108  -0.46741
 Alpha  occ. eigenvalues --   -0.46620  -0.46514  -0.46440  -0.45881  -0.45767
 Alpha  occ. eigenvalues --   -0.45633  -0.45264  -0.45000  -0.44657  -0.44617
 Alpha  occ. eigenvalues --   -0.44471  -0.44280  -0.43926  -0.43779  -0.43648
 Alpha  occ. eigenvalues --   -0.43514  -0.43294  -0.43251  -0.42974  -0.42940
 Alpha  occ. eigenvalues --   -0.42669  -0.42481  -0.42245  -0.42034  -0.41413
 Alpha  occ. eigenvalues --   -0.41338  -0.40991  -0.40671  -0.40405  -0.40363
 Alpha  occ. eigenvalues --   -0.40105  -0.40040  -0.39766  -0.39517  -0.39451
 Alpha  occ. eigenvalues --   -0.39266  -0.39090  -0.38661  -0.38373  -0.38356
 Alpha  occ. eigenvalues --   -0.38339  -0.38049  -0.37849  -0.37601  -0.37310
 Alpha  occ. eigenvalues --   -0.37199  -0.36944  -0.36629  -0.36550  -0.36286
 Alpha  occ. eigenvalues --   -0.36161  -0.35782  -0.35688  -0.35486  -0.35375
 Alpha  occ. eigenvalues --   -0.35205  -0.35108  -0.34819  -0.34375  -0.34284
 Alpha  occ. eigenvalues --   -0.34149  -0.33918  -0.33906  -0.33669  -0.33388
 Alpha  occ. eigenvalues --   -0.33306  -0.33153  -0.32943  -0.32908  -0.32729
 Alpha  occ. eigenvalues --   -0.32331  -0.32013  -0.31571  -0.31332  -0.31219
 Alpha  occ. eigenvalues --   -0.31080  -0.30967  -0.30256  -0.29929  -0.29652
 Alpha  occ. eigenvalues --   -0.29344  -0.29082  -0.28805  -0.28175  -0.27665
 Alpha  occ. eigenvalues --   -0.27580  -0.27469  -0.26879  -0.26249  -0.25584
 Alpha  occ. eigenvalues --   -0.25436  -0.25096  -0.24926  -0.22802  -0.20537
 Alpha  occ. eigenvalues --   -0.19112
 Alpha virt. eigenvalues --   -0.10314  -0.08464  -0.05187  -0.02254  -0.00269
 Alpha virt. eigenvalues --    0.00250   0.00747   0.00836   0.02781   0.03139
 Alpha virt. eigenvalues --    0.03571   0.03698   0.03905   0.04202   0.04562

 Mulliken charges:
               1
     1  C    0.118588
     2  C   -0.125805
     3  C   -0.052616
     4  C   -0.094716
     5  N   -0.061317
     6  C   -0.101888
     7  C   -0.101284
     8  C    0.021315
     9  C   -0.097589
    10  C    0.010994
    11  C    0.177937
    12  C   -0.075312
    13  C    0.200868
    14  O   -0.220721
    15  O   -0.393978
    16  N   -0.115012
    17  C    0.148340
    18  C   -0.149102
    19  C    0.022980
    20  C    0.016737
    21  C    0.101762
    22  C   -0.004079
    23  C   -0.069614
    24  N   -0.169487
    25  C    0.012724
    26  C   -0.125699
    27  C   -0.006415
    28  C   -0.046049
    29  C   -0.006652
    30  C    0.073682
    31  C   -0.065205
    32  N   -0.054781
    33  C    0.123397
    34  C   -0.146845
    35  C    0.013125
    36  C    0.004551
    37  C    0.001573
    38  C    0.063585
    39  O   -0.110612
    40  C    0.012400
    41  C    0.168684
    42  O   -0.206074
    43  O   -0.330706
    44  C    0.144254
    45  C    0.240212
    46  C   -0.072655
    47  C   -0.230991
    48  C    0.141628
    49  C    0.022799
    50  C   -0.024848
    51  C   -0.004571
    52  C    0.049359
    53  C    0.048459
    54  C   -0.016084
    55  C    0.078051
    56  C   -0.080221
    57  C   -0.047516
    58  C   -0.008410
    59  C    0.012766
    60  C    0.117028
    61  C   -0.073230
    62  C   -0.082265
    63  C    0.084185
    64  C   -0.009965
    65  H    0.033087
    66  H    0.005491
    67  H    0.021080
    68  H    0.016213
    69  H   -0.044948
    70  H    0.032752
    71  H    0.016897
    72  H    0.002812
    73  H   -0.004433
    74  H    0.018333
    75  H    0.040974
    76  H    0.040184
    77  H    0.028789
    78  H    0.011122
    79  H    0.026883
    80  H    0.033591
    81  H    0.034663
    82  H    0.033711
    83  H    0.056825
    84  H    0.055730
    85  H    0.021838
    86  H   -0.019574
    87  H   -0.026552
    88  H    0.001725
    89  H    0.046932
    90  H    0.023496
    91  H    0.042893
    92  H    0.057403
    93  H    0.077054
    94  H    0.026318
    95  H    0.033812
    96  H    0.028845
    97  H    0.037176
    98  H    0.025484
    99  H    0.087057
   100  H    0.043911
   101  H    0.038928
   102  H   -0.007007
   103  H    0.012081
   104  H    0.001488
   105  H   -0.022074
   106  H    0.027502
   107  H    0.021413
   108  H   -0.003243
   109  H   -0.009843
   110  H   -0.035380
   111  H    0.001346
   112  H    0.009601
   113  H   -0.004228
   114  H   -0.003141
   115  H   -0.018573
   116  H    0.013394
   117  H   -0.007652
   118  H    0.019208
   119  H    0.002521
   120  H   -0.007098
   121  H    0.005115
   122  H    0.010352
   123  H    0.009519
   124  H   -0.034197
   125  H   -0.013671
   126  H   -0.023916
   127  H    0.022546
   128  H   -0.008234
   129  H    0.023542
   130  H   -0.026082
   131  H   -0.007742
   132  H   -0.007739
   133  H   -0.009156
   134  H    0.020698
   135  H    0.022173
   136  H    0.028848
   137  H    0.192792
   138  H    0.148667
 Sum of Mulliken charges =  -0.00000

 Dipole moment (field-independent basis, Debye):
    X=              1.8144    Y=              4.4321    Z=             -1.1468  Tot=              4.9245
 Quadrupole moment (field-independent basis, Debye-Ang):
   XX=           -352.1676   YY=           -382.7628   ZZ=           -399.3462
   XY=            -33.8857   XZ=              3.0054   YZ=              2.5217

 Normal termination of Gaussian 16 at Sat Aug 10 15:40:09 2019.
