 Gaussian 16, Revision A.03,
 Gaussian 16:  ES64L-G16RevA.03 25-Dec-2016

 --------------------------
 # td=(NStates=1) B3LYP/SVP
 --------------------------

 --
 TD
 --
 Symbolic Z-matrix:
 Charge =  0 Multiplicity = 1

                         Standard orientation:
 ---------------------------------------------------------------------
 Center     Atomic      Atomic             Coordinates (Angstroms)
 Number     Number       Type             X           Y           Z
 ---------------------------------------------------------------------
      1          6           0       -5.081033   -1.895530    0.603377
      2          6           0       -4.898340    2.808495    1.515648
      3          6           0       -9.421721    3.252231   -0.191724
      4          6           0       -9.695125   -1.452238   -0.944616
      5          7           0       -5.182834    0.441504    0.877144
      6          6           0       -4.529125   -0.625744    0.983956
      7          6           0       -3.076316   -0.533433    1.292451
      8          6           0       -3.133211    0.895173    1.858704
      9          6           0       -4.463546    1.400120    1.406469
     10          6           0       -3.046333    0.916105    3.452349
     11          6           0       -2.036101   -0.675896    0.202425
     12          6           0       -0.559860   -0.704304    0.636533
     13          6           0        0.421265   -0.998448   -0.448998
     14          8           0        0.213265   -1.735877   -1.408751
     15          8           0        1.715570   -0.726162   -0.182283
     16          7           0       -7.146426    2.804695    0.453796
     17          6           0       -6.117371    3.456867    1.086867
     18          6           0       -6.362424    4.807451    1.088888
     19          6           0       -7.682576    5.052705    0.496105
     20          6           0       -8.183857    3.666771    0.212640
     21          6           0       -5.421231    5.875074    1.589641
     22          6           0       -8.265408    6.358916    0.225300
     23          6           0       -9.190594    6.703788   -0.610868
     24          7           0       -9.198904    0.915894   -0.500740
     25          6           0       -9.885412    1.994707   -0.551559
     26          6           0      -11.314921    1.774130   -0.980544
     27          6           0      -11.337820    0.459586   -1.327282
     28          6           0      -10.099079   -0.085343   -0.925544
     29          6           0      -12.337126    2.830157   -1.263628
     30          6           0      -12.576319   -0.433820   -1.874789
     31          6           0      -12.509986   -0.677631   -3.361639
     32          7           0       -7.399636   -1.292544   -0.135577
     33          6           0       -8.508207   -2.050264   -0.596688
     34          6           0       -8.094795   -3.525373   -0.622899
     35          6           0       -6.783552   -3.508150   -0.167865
     36          6           0       -6.365203   -2.115768    0.120771
     37          6           0       -8.891715   -4.637011   -1.039327
     38          6           0       -5.628054   -4.329581    0.101389
     39          8           0       -5.538481   -5.451190    0.256019
     40          6           0       -4.407057   -3.345652    0.519000
     41          6           0       -3.829895   -3.866309    1.811696
     42          8           0       -3.996230   -3.362647    2.897342
     43          8           0       -2.942551   -4.926414    1.518889
     44          6           0       -2.362120   -5.512719    2.633004
     45          6           0        2.662673   -1.215613   -1.153632
     46          6           0        3.972976   -0.642101   -0.631976
     47          6           0        4.953271   -0.027598   -1.329131
     48          6           0        4.737603    0.635401   -2.755794
     49          6           0        6.247394    0.434499   -0.521281
     50          6           0        7.552976   -0.230200   -1.157364
     51          6           0        8.704782    0.020452   -0.321969
     52          6           0       10.123297   -0.551831   -0.880909
     53          6           0       10.092305   -2.130226   -0.836470
     54          6           0       11.325748    0.084709   -0.038989
     55          6           0       12.631171   -0.388667   -0.718863
     56          6           0       13.727491    0.212059    0.024127
     57          6           0       15.250631   -0.189640   -0.462662
     58          6           0       15.467603   -1.785576   -0.442528
     59          6           0       16.236448    0.584508    0.407087
     60          6           0       17.707332    0.497939   -0.182756
     61          6           0       18.500173    1.616870    0.550965
     62          6           0       19.945789    1.522164    0.256110
     63          6           0       20.397053    2.067893   -1.145841
     64          6           0       20.760241    2.407645    1.406742
     65          1           0       -4.135659    3.461070    2.063428
     66          1           0       -9.982687    4.193896   -0.354157
     67          1           0      -10.379951   -2.267928   -1.099570
     68          1           0       -2.814850   -1.238337    2.191848
     69          1           0       -2.493232    1.681637    1.429818
     70          1           0       -2.116756    0.480768    3.797254
     71          1           0       -3.085347    1.940519    3.925465
     72          1           0       -3.887412    0.337624    3.795238
     73          1           0       -2.292816   -1.657786   -0.279053
     74          1           0       -2.198409    0.051729   -0.677210
     75          1           0       -0.240478    0.205661    1.255819
     76          1           0       -0.533872   -1.578417    1.269271
     77          1           0       -4.567452    5.812421    0.857980
     78          1           0       -5.802885    6.949817    1.608913
     79          1           0       -5.181894    5.800241    2.673260
     80          1           0       -8.082720    7.131763    1.011202
     81          1           0       -9.675167    6.032551   -1.353580
     82          1           0       -9.438893    7.818742   -0.581309
     83          1           0      -12.685185    3.497682   -0.338815
     84          1           0      -11.974570    3.651102   -1.886808
     85          1           0      -13.374400    2.383190   -1.597219
     86          1           0      -12.488530   -1.437061   -1.411554
     87          1           0      -13.624280    0.026781   -1.480887
     88          1           0      -12.447948    0.245887   -4.103179
     89          1           0      -11.579512   -1.425281   -3.403480
     90          1           0      -13.275963   -1.192649   -3.718266
     91          1           0       -9.779385   -4.727584   -0.438542
     92          1           0       -9.279040   -4.472388   -2.171542
     93          1           0       -8.292755   -5.572831   -1.031591
     94          1           0       -3.655335   -3.295976   -0.491358
     95          1           0       -1.716892   -6.302008    2.160964
     96          1           0       -1.960129   -4.829317    3.376430
     97          1           0       -3.129613   -6.075477    3.153039
     98          1           0        2.609352   -2.337327   -1.043622
     99          1           0        2.477952   -0.882223   -2.270734
    100          1           0        4.277171   -1.082030    0.386400
    101          1           0        4.834416    1.678366   -2.415072
    102          1           0        5.686849    0.304897   -3.531381
    103          1           0        3.750232    0.465634   -3.146092
    104          1           0        6.221198    1.426091   -0.761163
    105          1           0        6.134905    0.238835    0.524522
    106          1           0        7.514288   -1.389773   -1.455456
    107          1           0        7.631691    0.389841   -2.069392
    108          1           0        8.957608    1.161570   -0.143043
    109          1           0        8.526276   -0.473545    0.724589
    110          1           0       10.308251   -0.138741   -1.852697
    111          1           0        9.385986   -2.581267   -1.733084
    112          1           0       11.034442   -2.408103   -1.267378
    113          1           0        9.883655   -2.414154    0.291315
    114          1           0       11.121241    1.212855   -0.234355
    115          1           0       11.354244   -0.258631    0.946782
    116          1           0       12.698608   -1.400255   -0.673971
    117          1           0       12.761413   -0.471439   -1.782923
    118          1           0       13.504077    1.287130    0.161717
    119          1           0       13.732338   -0.315646    0.957854
    120          1           0       15.280476    0.241418   -1.480914
    121          1           0       14.704477   -2.443016   -0.937995
    122          1           0       16.486620   -1.960372   -1.139408
    123          1           0       15.359608   -2.251103    0.583496
    124          1           0       16.014628    1.711924    0.457024
    125          1           0       16.411135    0.267062    1.403474
    126          1           0       18.091281   -0.577565   -0.141955
    127          1           0       17.716086    0.635562   -1.248384
    128          1           0       18.142108    2.664309    0.440733
    129          1           0       18.456428    1.392781    1.573774
    130          1           0       20.212776    0.592862    0.355951
    131          1           0       20.299804    3.164937   -1.150446
    132          1           0       21.367366    2.030948   -1.412666
    133          1           0       19.771089    1.675504   -1.861725
    134          1           0       20.447808    2.234279    2.534005
    135          1           0       21.931822    2.091633    1.302068
    136          1           0       20.793263    3.632357    1.134239
    137          1           0       -7.137213    1.870278    0.285312
    138          1           0       -7.636468   -0.294962    0.062062
 ---------------------------------------------------------------------

 SCF Done:  E(RB3LYP) =  -2733.12544456     A.U. after   16 cycles

 Excitation energies and oscillator strengths:

 Excited State   1:      Singlet-A      2.0236 eV  612.70 nm  f=0.1252  <S**2>=0.000
     235 -> 237        0.14323
     235 -> 238       -0.32634
     236 -> 237        0.59565
     236 -> 238        0.12409
 This state for optimization and/or second-order correction.
 Total Energy, E(TD-HF/TD-DFT) =  -2733.05107915
 Copying the excited state density for this state as the 1-particle RhoCI density.

 The electronic state is 1-A.
 Alpha  occ. eigenvalues --  -19.17097 -19.17008 -19.13665 -19.12828 -19.11344
 Alpha  occ. eigenvalues --  -14.36743 -14.35951 -14.31869 -14.29875 -10.32021
 Alpha  occ. eigenvalues --  -10.31150 -10.27784 -10.25233 -10.23631 -10.23544
 Alpha  occ. eigenvalues --  -10.23504 -10.23338 -10.23324 -10.22985 -10.22703
 Alpha  occ. eigenvalues --  -10.22694 -10.22487 -10.21423 -10.21407 -10.21267
 Alpha  occ. eigenvalues --  -10.20996 -10.20910 -10.20805 -10.20777 -10.20696
 Alpha  occ. eigenvalues --  -10.20599 -10.20567 -10.20494 -10.20473 -10.20453
 Alpha  occ. eigenvalues --  -10.20403 -10.20368 -10.20174 -10.20172 -10.19965
 Alpha  occ. eigenvalues --  -10.19883 -10.19807 -10.19801 -10.19794 -10.19698
 Alpha  occ. eigenvalues --  -10.19536 -10.19068 -10.19037 -10.19011 -10.19008
 Alpha  occ. eigenvalues --  -10.19001 -10.18665 -10.18622 -10.18610 -10.18608
 Alpha  occ. eigenvalues --  -10.18446 -10.18398 -10.18022 -10.17974 -10.17971
 Alpha  occ. eigenvalues --  -10.17159 -10.17028 -10.16020 -10.15984  -1.09217
 Alpha  occ. eigenvalues --   -1.08650  -1.07752  -1.01433  -0.99029  -0.98677
 Alpha  occ. eigenvalues --   -0.98114  -0.96970  -0.94531  -0.83451  -0.81814
 Alpha  occ. eigenvalues --   -0.81694  -0.81578  -0.81393  -0.80985  -0.80514
 Alpha  occ. eigenvalues --   -0.80425  -0.78925  -0.78554  -0.78183  -0.77612
 Alpha  occ. eigenvalues --   -0.76784  -0.76368  -0.75594  -0.74643  -0.73983
 Alpha  occ. eigenvalues --   -0.73536  -0.72523  -0.72173  -0.71105  -0.70805
 Alpha  occ. eigenvalues --   -0.70076  -0.69309  -0.68371  -0.67474  -0.67190
 Alpha  occ. eigenvalues --   -0.66786  -0.65896  -0.65504  -0.65058  -0.64679
 Alpha  occ. eigenvalues --   -0.64145  -0.63088  -0.62521  -0.61647  -0.61403
 Alpha  occ. eigenvalues --   -0.60707  -0.58669  -0.58498  -0.57864  -0.57600
 Alpha  occ. eigenvalues --   -0.57495  -0.57049  -0.55898  -0.55682  -0.55556
 Alpha  occ. eigenvalues --   -0.54851  -0.54486  -0.54386  -0.54055  -0.52811
 Alpha  occ. eigenvalues --   -0.52437  -0.51709  -0.51106  -0.50382  -0.50008
 Alpha  occ. eigenvalues --   -0.49554  -0.49380  -0.48422  -0.48336  -0.47931
 Alpha  occ. eigenvalues --   -0.47800  -0.47673  -0.47255  -0.47033  -0.46944
 Alpha  occ. eigenvalues --   -0.46717  -0.46491  -0.46016  -0.45781  -0.45674
 Alpha  occ. eigenvalues --   -0.45479  -0.45226  -0.44945  -0.44694  -0.44552
 Alpha  occ. eigenvalues --   -0.44282  -0.44246  -0.43910  -0.43724  -0.43420
 Alpha  occ. eigenvalues --   -0.42973  -0.42845  -0.42590  -0.42286  -0.42240
 Alpha  occ. eigenvalues --   -0.42161  -0.41906  -0.41781  -0.41376  -0.41240
 Alpha  occ. eigenvalues --   -0.40976  -0.40907  -0.40824  -0.40573  -0.40424
 Alpha  occ. eigenvalues --   -0.40134  -0.39934  -0.39797  -0.39735  -0.39530
 Alpha  occ. eigenvalues --   -0.39146  -0.38966  -0.38862  -0.38594  -0.38393
 Alpha  occ. eigenvalues --   -0.38356  -0.38292  -0.38112  -0.37843  -0.37747
 Alpha  occ. eigenvalues --   -0.37344  -0.37259  -0.36595  -0.36469  -0.36392
 Alpha  occ. eigenvalues --   -0.36248  -0.36133  -0.35954  -0.35817  -0.35487
 Alpha  occ. eigenvalues --   -0.35398  -0.35295  -0.35245  -0.35064  -0.35018
 Alpha  occ. eigenvalues --   -0.34870  -0.34722  -0.34302  -0.34174  -0.33750
 Alpha  occ. eigenvalues --   -0.33423  -0.33027  -0.32907  -0.32508  -0.32463
 Alpha  occ. eigenvalues --   -0.32300  -0.32205  -0.31751  -0.31639  -0.31584
 Alpha  occ. eigenvalues --   -0.31240  -0.30802  -0.30698  -0.29850  -0.29769
 Alpha  occ. eigenvalues --   -0.29625  -0.28903  -0.28731  -0.28177  -0.27892
 Alpha  occ. eigenvalues --   -0.27301  -0.27187  -0.26735  -0.26318  -0.26017
 Alpha  occ. eigenvalues --   -0.25101  -0.24306  -0.23851  -0.23103  -0.19575
 Alpha  occ. eigenvalues --   -0.18472
 Alpha virt. eigenvalues --   -0.09776  -0.08067  -0.04162  -0.01719  -0.00796
 Alpha virt. eigenvalues --   -0.00694   0.00749   0.01162   0.02653   0.03723
 Alpha virt. eigenvalues --    0.03822   0.04251   0.04603   0.04882   0.04901

 Mulliken charges:
               1
     1  C    0.030803
     2  C   -0.093237
     3  C   -0.056081
     4  C   -0.046894
     5  N   -0.024738
     6  C   -0.129021
     7  C   -0.063632
     8  C   -0.048978
     9  C   -0.058955
    10  C    0.070228
    11  C    0.051036
    12  C    0.073163
    13  C    0.164590
    14  O   -0.264227
    15  O   -0.305883
    16  N   -0.003448
    17  C    0.105434
    18  C   -0.147077
    19  C    0.057015
    20  C    0.001071
    21  C    0.070326
    22  C   -0.046905
    23  C   -0.061757
    24  N   -0.199160
    25  C    0.072916
    26  C   -0.128549
    27  C   -0.061288
    28  C    0.101209
    29  C    0.041204
    30  C    0.021754
    31  C    0.023128
    32  N   -0.061998
    33  C   -0.012475
    34  C   -0.108491
    35  C    0.029847
    36  C    0.043198
    37  C    0.061487
    38  C    0.025986
    39  O   -0.082334
    40  C   -0.157816
    41  C    0.251409
    42  O   -0.210208
    43  O   -0.323243
    44  C    0.200717
    45  C    0.222979
    46  C   -0.089607
    47  C   -0.161455
    48  C    0.019868
    49  C    0.125457
    50  C    0.010137
    51  C   -0.005969
    52  C   -0.107734
    53  C   -0.001401
    54  C    0.056918
    55  C    0.093962
    56  C    0.031426
    57  C   -0.042229
    58  C   -0.051165
    59  C    0.050027
    60  C   -0.017534
    61  C    0.083539
    62  C   -0.015777
    63  C    0.114932
    64  C   -0.116438
    65  H   -0.008843
    66  H   -0.043621
    67  H   -0.046523
    68  H    0.032945
    69  H   -0.000336
    70  H    0.010806
    71  H    0.016450
    72  H    0.022564
    73  H    0.007845
    74  H    0.016497
    75  H    0.038315
    76  H    0.032902
    77  H    0.044088
    78  H    0.014295
    79  H    0.033949
    80  H    0.018178
    81  H    0.033348
    82  H    0.034101
    83  H    0.016372
    84  H    0.020898
    85  H    0.031081
    86  H    0.004822
    87  H    0.023666
    88  H    0.034033
    89  H    0.019267
    90  H   -0.022431
    91  H    0.034881
    92  H    0.047315
    93  H    0.044278
    94  H    0.110365
    95  H    0.033712
    96  H    0.022162
    97  H    0.003664
    98  H    0.029655
    99  H    0.044691
   100  H    0.006560
   101  H    0.030897
   102  H    0.057853
   103  H    0.016135
   104  H   -0.024536
   105  H   -0.003843
   106  H    0.029332
   107  H   -0.011079
   108  H   -0.003590
   109  H   -0.003491
   110  H   -0.019393
   111  H    0.027015
   112  H    0.000749
   113  H    0.042606
   114  H    0.018591
   115  H   -0.016099
   116  H   -0.068110
   117  H   -0.042888
   118  H   -0.003579
   119  H   -0.025535
   120  H   -0.006460
   121  H    0.018538
   122  H    0.042816
   123  H    0.025267
   124  H    0.005538
   125  H   -0.015452
   126  H    0.005292
   127  H   -0.020847
   128  H   -0.000522
   129  H   -0.031845
   130  H   -0.054304
   131  H   -0.015748
   132  H   -0.025524
   133  H   -0.018812
   134  H    0.035899
   135  H    0.020631
   136  H    0.030851
   137  H    0.083394
   138  H    0.158241
 Sum of Mulliken charges =  -0.00000

 Dipole moment (field-independent basis, Debye):
    X=              1.4333    Y=              2.9078    Z=             -0.0515  Tot=              3.2422
 Quadrupole moment (field-independent basis, Debye-Ang):
   XX=           -361.7283   YY=           -378.0284   ZZ=           -393.8259
   XY=            -19.3919   XZ=              5.3268   YZ=              2.1655

 Normal termination of Gaussian 16 at Tue Aug 27 23:53:07 2019.
