 Gaussian 16, Revision A.03,
 Gaussian 16:  ES64L-G16RevA.03 25-Dec-2016

 --------------------------
 # td=(NStates=1) B3LYP/SVP
 --------------------------

 --
 TD
 --
 Symbolic Z-matrix:
 Charge =  0 Multiplicity = 1

                         Standard orientation:
 ---------------------------------------------------------------------
 Center     Atomic      Atomic             Coordinates (Angstroms)
 Number     Number       Type             X           Y           Z
 ---------------------------------------------------------------------
      1          6           0       -5.042111   -1.946630    0.375431
      2          6           0       -4.846293    2.778683    1.385925
      3          6           0       -9.447032    3.171407   -0.141279
      4          6           0       -9.792835   -1.512980   -0.918173
      5          7           0       -5.132314    0.449709    0.715500
      6          6           0       -4.487430   -0.670215    0.650289
      7          6           0       -3.003992   -0.381008    1.049823
      8          6           0       -3.107009    0.964477    1.668861
      9          6           0       -4.474424    1.502557    1.222031
     10          6           0       -2.958875    0.931077    3.376705
     11          6           0       -2.062896   -0.526464   -0.040372
     12          6           0       -0.544858   -0.715339    0.367615
     13          6           0        0.439541   -1.060549   -0.719957
     14          8           0        0.224329   -1.461274   -1.789833
     15          8           0        1.715540   -0.797113   -0.283775
     16          7           0       -7.114453    2.730645    0.512574
     17          6           0       -6.071804    3.497803    0.981747
     18          6           0       -6.401672    4.816866    1.123394
     19          6           0       -7.684176    4.973946    0.532893
     20          6           0       -8.106378    3.624047    0.317413
     21          6           0       -5.476904    5.978559    1.779676
     22          6           0       -8.303220    6.331481    0.193438
     23          6           0       -9.166785    6.579873   -0.746839
     24          7           0       -9.279378    0.764684   -0.436049
     25          6           0       -9.997780    1.914886   -0.426155
     26          6           0      -11.307244    1.749779   -0.921954
     27          6           0      -11.503546    0.433499   -1.184653
     28          6           0      -10.157575   -0.128860   -0.895527
     29          6           0      -12.376483    2.930335   -1.021381
     30          6           0      -12.611566   -0.324631   -1.656924
     31          6           0      -12.501792   -0.712965   -3.196795
     32          7           0       -7.418134   -1.357404   -0.339564
     33          6           0       -8.603674   -2.072410   -0.773328
     34          6           0       -8.092380   -3.437612   -0.589353
     35          6           0       -6.802940   -3.466964   -0.219822
     36          6           0       -6.397047   -2.119089    0.001481
     37          6           0       -8.985879   -4.682208   -0.998708
     38          6           0       -5.611698   -4.244539    0.010402
     39          8           0       -5.529161   -5.553950    0.068240
     40          6           0       -4.462692   -3.350571    0.411173
     41          6           0       -3.951037   -3.745668    1.763272
     42          8           0       -4.189753   -3.273678    2.853083
     43          8           0       -3.162460   -4.836345    1.704351
     44          6           0       -2.545673   -5.261688    2.946662
     45          6           0        2.744758   -0.973305   -1.214994
     46          6           0        4.057970   -0.577329   -0.542205
     47          6           0        5.016283    0.170873   -1.164557
     48          6           0        4.940902    0.614870   -2.597905
     49          6           0        6.301057    0.321223   -0.343926
     50          6           0        7.545037   -0.394704   -0.919309
     51          6           0        8.808726   -0.118505    0.015719
     52          6           0       10.003429   -0.683838   -0.664370
     53          6           0        9.978441   -2.302609   -0.706552
     54          6           0       11.224863   -0.109548    0.090179
     55          6           0       12.597549   -0.620138   -0.416003
     56          6           0       13.853066   -0.116788    0.257860
     57          6           0       15.232353   -0.254295   -0.356013
     58          6           0       15.691928   -1.782690   -0.256024
     59          6           0       16.347714    0.649007    0.364004
     60          6           0       17.791398    0.665326   -0.251339
     61          6           0       18.649911    1.638680    0.424411
     62          6           0       20.077432    1.564639    0.011760
     63          6           0       20.208657    2.229127   -1.362729
     64          6           0       20.963728    2.385374    1.116714
     65          1           0       -3.976744    3.369799    1.714962
     66          1           0      -10.184277    4.062401   -0.045224
     67          1           0      -10.541407   -2.423222   -1.174166
     68          1           0       -2.858845   -1.305774    1.854118
     69          1           0       -2.303683    1.595514    1.140956
     70          1           0       -2.205550    0.342931    3.786254
     71          1           0       -2.919132    2.014831    3.827335
     72          1           0       -3.798342    0.445378    3.646082
     73          1           0       -2.380518   -1.439919   -0.472845
     74          1           0       -2.016666    0.255453   -0.844553
     75          1           0       -0.251888    0.279048    1.021716
     76          1           0       -0.323875   -1.681149    0.999926
     77          1           0       -4.305601    5.809737    1.519748
     78          1           0       -5.867167    6.999521    1.347749
     79          1           0       -5.561219    5.718107    3.020729
     80          1           0       -7.815268    7.259186    0.641369
     81          1           0       -9.662505    5.810150   -1.164410
     82          1           0       -9.478114    7.516964   -0.909453
     83          1           0      -12.632199    3.146386    0.096197
     84          1           0      -11.467210    3.833258   -1.365268
     85          1           0      -13.207218    2.572213   -1.605409
     86          1           0      -12.739800   -1.234986   -1.275013
     87          1           0      -13.525280    0.153461   -1.572473
     88          1           0      -12.414977    0.232925   -3.766311
     89          1           0      -11.654590   -1.260086   -3.341863
     90          1           0      -13.516741   -1.230861   -3.391107
     91          1           0       -9.971369   -4.570372   -0.459157
     92          1           0       -9.086331   -4.493043   -2.044409
     93          1           0       -8.526865   -5.554542   -0.653135
     94          1           0       -3.748771   -3.605036   -0.371537
     95          1           0       -1.704360   -5.984034    2.733018
     96          1           0       -2.048905   -4.323482    3.513542
     97          1           0       -3.188886   -5.664763    3.727971
     98          1           0        2.816288   -1.854539   -1.784499
     99          1           0        2.731998   -0.310989   -1.979484
    100          1           0        4.030530   -0.838028    0.541910
    101          1           0        5.293778    1.703943   -2.635834
    102          1           0        5.797957    0.054627   -3.327861
    103          1           0        3.818112    0.551239   -2.848574
    104          1           0        6.554655    1.338367   -0.391454
    105          1           0        6.140967    0.060162    0.772672
    106          1           0        7.377352   -1.569825   -1.214992
    107          1           0        7.617072    0.019573   -1.877943
    108          1           0        8.944504    0.920397    0.165720
    109          1           0        8.634216   -0.519533    0.992843
    110          1           0       10.117891   -0.338166   -1.704439
    111          1           0        9.013001   -2.580126   -1.083390
    112          1           0       10.977410   -2.566943   -1.129796
    113          1           0        9.999855   -2.613115    0.453452
    114          1           0       11.080689    0.962730    0.137475
    115          1           0       10.860145   -0.569369    1.139884
    116          1           0       12.552966   -1.624638   -0.329372
    117          1           0       12.575265   -0.213063   -1.454283
    118          1           0       13.825727    0.973313    0.436039
    119          1           0       14.015878   -0.288205    1.326147
    120          1           0       15.155824   -0.008610   -1.513069
    121          1           0       14.998075   -2.654605   -0.789761
    122          1           0       16.584586   -1.862201   -0.783418
    123          1           0       15.895466   -2.225796    0.867950
    124          1           0       15.781894    1.711624    0.337071
    125          1           0       16.387570    0.428473    1.423260
    126          1           0       18.157578   -0.352912   -0.073712
    127          1           0       17.577396    1.002624   -1.293773
    128          1           0       18.061007    2.628722    0.508671
    129          1           0       18.615203    1.462104    1.506930
    130          1           0       20.505857    0.598544    0.088826
    131          1           0       19.765270    3.267800   -1.272812
    132          1           0       21.171251    2.328720   -1.815934
    133          1           0       19.660451    1.754036   -2.164622
    134          1           0       21.191742    1.838481    2.193916
    135          1           0       22.031547    2.524598    0.473900
    136          1           0       20.603127    3.398510    1.144896
    137          1           0       -7.068106    1.699530    0.360854
    138          1           0       -7.347947   -0.363560   -0.272875
 ---------------------------------------------------------------------

 SCF Done:  E(RB3LYP) =  -2733.04962005     A.U. after   17 cycles

 Excitation energies and oscillator strengths:

 Excited State   1:      Singlet-A      2.0608 eV  601.64 nm  f=0.1676  <S**2>=0.000
     235 -> 237       -0.12947
     235 -> 238       -0.25644
     236 -> 237        0.63520
 This state for optimization and/or second-order correction.
 Total Energy, E(TD-HF/TD-DFT) =  -2732.97388874
 Copying the excited state density for this state as the 1-particle RhoCI density.

 The electronic state is 1-A.
 Alpha  occ. eigenvalues --  -19.17675 -19.16832 -19.12841 -19.12547 -19.12091
 Alpha  occ. eigenvalues --  -14.37575 -14.36728 -14.31720 -14.30366 -10.31925
 Alpha  occ. eigenvalues --  -10.31278 -10.28635 -10.25363 -10.24414 -10.24308
 Alpha  occ. eigenvalues --  -10.24025 -10.23810 -10.23655 -10.23625 -10.22771
 Alpha  occ. eigenvalues --  -10.22625 -10.22363 -10.22276 -10.22246 -10.22176
 Alpha  occ. eigenvalues --  -10.21948 -10.21818 -10.21577 -10.21553 -10.21549
 Alpha  occ. eigenvalues --  -10.21352 -10.21124 -10.20976 -10.20720 -10.20625
 Alpha  occ. eigenvalues --  -10.20305 -10.20275 -10.20122 -10.19872 -10.19689
 Alpha  occ. eigenvalues --  -10.19566 -10.19456 -10.19399 -10.19261 -10.19226
 Alpha  occ. eigenvalues --  -10.19084 -10.19035 -10.18803 -10.18771 -10.18691
 Alpha  occ. eigenvalues --  -10.18649 -10.18455 -10.18441 -10.18425 -10.18396
 Alpha  occ. eigenvalues --  -10.18365 -10.18229 -10.17977 -10.17738 -10.17725
 Alpha  occ. eigenvalues --  -10.17689 -10.17592 -10.17570 -10.17323  -1.10474
 Alpha  occ. eigenvalues --   -1.09682  -1.02223  -0.99917  -0.99410  -0.99278
 Alpha  occ. eigenvalues --   -0.97633  -0.95884  -0.95239  -0.86064  -0.82256
 Alpha  occ. eigenvalues --   -0.81839  -0.81769  -0.81694  -0.81505  -0.80971
 Alpha  occ. eigenvalues --   -0.80861  -0.80154  -0.79744  -0.79319  -0.77709
 Alpha  occ. eigenvalues --   -0.76941  -0.76674  -0.75583  -0.75091  -0.74114
 Alpha  occ. eigenvalues --   -0.73757  -0.73064  -0.72468  -0.71242  -0.70675
 Alpha  occ. eigenvalues --   -0.69561  -0.69233  -0.68230  -0.67634  -0.67289
 Alpha  occ. eigenvalues --   -0.66863  -0.66577  -0.66440  -0.65476  -0.65176
 Alpha  occ. eigenvalues --   -0.64811  -0.63804  -0.63188  -0.62837  -0.62292
 Alpha  occ. eigenvalues --   -0.61222  -0.58926  -0.58605  -0.58502  -0.58129
 Alpha  occ. eigenvalues --   -0.57450  -0.56765  -0.56497  -0.56215  -0.55830
 Alpha  occ. eigenvalues --   -0.55413  -0.55309  -0.54697  -0.53990  -0.53783
 Alpha  occ. eigenvalues --   -0.53008  -0.52282  -0.51539  -0.51442  -0.50902
 Alpha  occ. eigenvalues --   -0.50214  -0.49959  -0.49179  -0.48802  -0.48350
 Alpha  occ. eigenvalues --   -0.47998  -0.47853  -0.47673  -0.47334  -0.47062
 Alpha  occ. eigenvalues --   -0.47010  -0.46751  -0.46603  -0.46353  -0.46094
 Alpha  occ. eigenvalues --   -0.45670  -0.45445  -0.45170  -0.44970  -0.44664
 Alpha  occ. eigenvalues --   -0.44542  -0.44160  -0.43865  -0.43656  -0.43498
 Alpha  occ. eigenvalues --   -0.43301  -0.43229  -0.43111  -0.42928  -0.42595
 Alpha  occ. eigenvalues --   -0.42187  -0.41792  -0.41515  -0.41397  -0.41261
 Alpha  occ. eigenvalues --   -0.41005  -0.40857  -0.40662  -0.40416  -0.40267
 Alpha  occ. eigenvalues --   -0.40004  -0.39802  -0.39730  -0.39563  -0.39385
 Alpha  occ. eigenvalues --   -0.39003  -0.38795  -0.38585  -0.38425  -0.38335
 Alpha  occ. eigenvalues --   -0.38192  -0.38003  -0.37696  -0.37557  -0.37477
 Alpha  occ. eigenvalues --   -0.37220  -0.37050  -0.37012  -0.36826  -0.36596
 Alpha  occ. eigenvalues --   -0.36573  -0.36448  -0.36137  -0.35950  -0.35828
 Alpha  occ. eigenvalues --   -0.35755  -0.35590  -0.35391  -0.35233  -0.35216
 Alpha  occ. eigenvalues --   -0.35016  -0.34858  -0.34407  -0.34082  -0.33985
 Alpha  occ. eigenvalues --   -0.33391  -0.33249  -0.33030  -0.32888  -0.32475
 Alpha  occ. eigenvalues --   -0.32332  -0.32034  -0.31782  -0.31444  -0.31231
 Alpha  occ. eigenvalues --   -0.30922  -0.30782  -0.30637  -0.30285  -0.30215
 Alpha  occ. eigenvalues --   -0.29803  -0.29152  -0.28646  -0.28508  -0.28190
 Alpha  occ. eigenvalues --   -0.28157  -0.28010  -0.27124  -0.26918  -0.25571
 Alpha  occ. eigenvalues --   -0.25065  -0.24779  -0.23530  -0.23152  -0.20444
 Alpha  occ. eigenvalues --   -0.19634
 Alpha virt. eigenvalues --   -0.11090  -0.08333  -0.05047  -0.01734  -0.00552
 Alpha virt. eigenvalues --    0.00189   0.00266   0.01206   0.02373   0.03236
 Alpha virt. eigenvalues --    0.03427   0.03907   0.04216   0.04446   0.04683

 Mulliken charges:
               1
     1  C    0.007039
     2  C   -0.021392
     3  C   -0.120229
     4  C   -0.072593
     5  N   -0.127807
     6  C   -0.108147
     7  C   -0.125582
     8  C   -0.023726
     9  C   -0.049771
    10  C    0.086502
    11  C    0.138939
    12  C   -0.066345
    13  C    0.163152
    14  O   -0.175778
    15  O   -0.333813
    16  N   -0.044063
    17  C    0.091334
    18  C   -0.135966
    19  C    0.024608
    20  C    0.019455
    21  C   -0.024795
    22  C   -0.055341
    23  C    0.082781
    24  N   -0.193405
    25  C    0.081802
    26  C   -0.160355
    27  C   -0.053244
    28  C    0.027675
    29  C    0.014234
    30  C    0.163133
    31  C   -0.004910
    32  N   -0.046450
    33  C    0.078915
    34  C   -0.231823
    35  C    0.126436
    36  C    0.008518
    37  C    0.135973
    38  C    0.007630
    39  O   -0.258446
    40  C    0.100444
    41  C    0.198543
    42  O   -0.225130
    43  O   -0.290332
    44  C    0.149542
    45  C    0.409882
    46  C   -0.154292
    47  C   -0.134585
    48  C    0.006960
    49  C    0.106878
    50  C   -0.027204
    51  C    0.104466
    52  C   -0.120936
    53  C    0.017143
    54  C   -0.038450
    55  C    0.183988
    56  C    0.079410
    57  C   -0.095079
    58  C   -0.036038
    59  C   -0.073150
    60  C    0.099096
    61  C    0.010998
    62  C   -0.032281
    63  C    0.044666
    64  C   -0.056045
    65  H   -0.030433
    66  H    0.021878
    67  H    0.018870
    68  H    0.042734
    69  H    0.001566
    70  H    0.002844
    71  H    0.028708
    72  H   -0.002132
    73  H   -0.019670
    74  H    0.018804
    75  H    0.063386
    76  H    0.047703
    77  H    0.055575
    78  H    0.058367
    79  H    0.069451
    80  H    0.005877
    81  H   -0.027396
    82  H   -0.011069
    83  H    0.053897
    84  H    0.067804
    85  H    0.030585
    86  H   -0.045867
    87  H   -0.036140
    88  H    0.013128
    89  H   -0.003572
    90  H    0.026136
    91  H    0.030015
    92  H    0.038154
    93  H    0.027026
    94  H    0.053587
    95  H    0.044344
    96  H    0.033561
    97  H    0.038574
    98  H    0.000733
    99  H   -0.087731
   100  H    0.003571
   101  H    0.025211
   102  H    0.061970
   103  H    0.039374
   104  H   -0.030029
   105  H    0.005042
   106  H    0.018404
   107  H   -0.028419
   108  H   -0.027569
   109  H   -0.010683
   110  H   -0.017062
   111  H    0.011977
   112  H    0.035030
   113  H    0.006887
   114  H   -0.009019
   115  H   -0.007838
   116  H   -0.025339
   117  H   -0.006055
   118  H   -0.046485
   119  H   -0.033460
   120  H    0.002586
   121  H    0.019478
   122  H   -0.004519
   123  H    0.020407
   124  H    0.005546
   125  H   -0.006631
   126  H    0.004546
   127  H    0.007997
   128  H   -0.008225
   129  H   -0.031980
   130  H   -0.011042
   131  H    0.004393
   132  H   -0.004300
   133  H    0.000234
   134  H    0.050783
   135  H    0.010926
   136  H    0.009740
   137  H    0.161107
   138  H    0.121510
 Sum of Mulliken charges =  -0.00000

 Dipole moment (field-independent basis, Debye):
    X=             -0.0158    Y=              4.5416    Z=             -0.2220  Tot=              4.5470
 Quadrupole moment (field-independent basis, Debye-Ang):
   XX=           -341.2802   YY=           -391.0754   ZZ=           -395.7303
   XY=            -16.8255   XZ=              7.8340   YZ=             -2.0546

 Normal termination of Gaussian 16 at Tue Aug 27 15:31:59 2019.
