 Gaussian 16, Revision A.03,
 Gaussian 16:  ES64L-G16RevA.03 25-Dec-2016

 --------------------------
 # td=(NStates=1) B3LYP/SVP
 --------------------------

 --
 TD
 --
 Symbolic Z-matrix:
 Charge =  0 Multiplicity = 1

                         Standard orientation:
 ---------------------------------------------------------------------
 Center     Atomic      Atomic             Coordinates (Angstroms)
 Number     Number       Type             X           Y           Z
 ---------------------------------------------------------------------
      1          6           0       -4.989030   -1.926670    0.437944
      2          6           0       -4.752523    2.800142    1.415556
      3          6           0       -9.560218    3.273262   -0.207973
      4          6           0       -9.725958   -1.597679   -1.053597
      5          7           0       -5.148017    0.410619    0.852693
      6          6           0       -4.501764   -0.726392    0.965416
      7          6           0       -3.057413   -0.419514    1.397575
      8          6           0       -3.140919    0.986291    1.970396
      9          6           0       -4.418133    1.451833    1.356031
     10          6           0       -3.115165    1.121008    3.446159
     11          6           0       -2.075022   -0.610053    0.185647
     12          6           0       -0.611140   -0.571065    0.672570
     13          6           0        0.341430   -0.801480   -0.451133
     14          8           0       -0.071170   -1.191595   -1.569288
     15          8           0        1.694672   -0.773530   -0.111875
     16          7           0       -7.206831    2.659074    0.644992
     17          6           0       -6.079806    3.304181    1.050525
     18          6           0       -6.411603    4.753076    1.171939
     19          6           0       -7.759169    4.863432    0.646204
     20          6           0       -8.213475    3.540869    0.377051
     21          6           0       -5.513703    5.744509    1.516936
     22          6           0       -8.418612    6.218120    0.355117
     23          6           0       -9.393508    6.537117   -0.476877
     24          7           0       -9.245110    0.835490   -0.505125
     25          6           0       -9.984233    2.070546   -0.673840
     26          6           0      -11.395542    1.686299   -1.094121
     27          6           0      -11.395808    0.346920   -1.385564
     28          6           0      -10.032004   -0.115547   -0.979857
     29          6           0      -12.520919    2.655210   -1.290504
     30          6           0      -12.523055   -0.453157   -1.977783
     31          6           0      -12.444003   -0.418238   -3.445181
     32          7           0       -7.365763   -1.312952   -0.220679
     33          6           0       -8.563319   -2.078548   -0.688493
     34          6           0       -8.051789   -3.501252   -0.592666
     35          6           0       -6.710940   -3.465904   -0.175121
     36          6           0       -6.299867   -2.177861   -0.015252
     37          6           0       -8.865835   -4.707914   -1.022760
     38          6           0       -5.596821   -4.337736    0.029868
     39          8           0       -5.369586   -5.582965   -0.192345
     40          6           0       -4.328486   -3.295095    0.432982
     41          6           0       -3.785936   -3.783167    1.810482
     42          8           0       -4.063619   -3.310817    2.862444
     43          8           0       -2.942566   -4.835787    1.687939
     44          6           0       -2.437614   -5.427874    2.880178
     45          6           0        2.625747   -1.051876   -1.090451
     46          6           0        3.972719   -0.554450   -0.514773
     47          6           0        4.949805    0.077296   -1.196740
     48          6           0        4.858895    0.708704   -2.581070
     49          6           0        6.286911    0.418401   -0.546579
     50          6           0        7.459596   -0.423816   -0.988600
     51          6           0        8.758856   -0.014588   -0.279083
     52          6           0       10.104933   -0.588749   -0.819078
     53          6           0        9.993133   -2.074902   -0.928715
     54          6           0       11.315614   -0.130295   -0.008667
     55          6           0       12.755238   -0.462237   -0.548141
     56          6           0       13.846094    0.030296    0.396718
     57          6           0       15.295347   -0.224558   -0.224738
     58          6           0       15.677011   -1.761780   -0.261522
     59          6           0       16.362707    0.497063    0.512140
     60          6           0       17.670735    0.688512   -0.284565
     61          6           0       18.648638    1.520934    0.528483
     62          6           0       20.130238    1.573323   -0.049144
     63          6           0       20.193965    2.109115   -1.438474
     64          6           0       21.104459    2.355793    0.860632
     65          1           0       -4.072984    3.559301    1.739035
     66          1           0      -10.157120    4.053162   -0.172835
     67          1           0      -10.493469   -2.129402   -1.454498
     68          1           0       -2.898380   -1.411732    2.065663
     69          1           0       -2.257895    1.637991    1.554760
     70          1           0       -2.242454    0.788005    3.802454
     71          1           0       -3.442800    2.056029    4.058948
     72          1           0       -3.875810    0.387567    3.852506
     73          1           0       -2.257877   -1.576901   -0.163368
     74          1           0       -2.459331    0.166737   -0.610603
     75          1           0       -0.186900    0.417652    1.218370
     76          1           0       -0.406675   -1.162731    1.579464
     77          1           0       -4.591041    5.653033    0.865481
     78          1           0       -5.761770    6.775792    1.572061
     79          1           0       -5.174838    5.786339    2.562999
     80          1           0       -8.135423    6.980288    1.037721
     81          1           0      -10.021301    5.944429   -1.103097
     82          1           0       -9.753356    7.643592   -0.239647
     83          1           0      -12.768428    3.232847   -0.400660
     84          1           0      -12.272376    3.663761   -2.005908
     85          1           0      -13.389995    2.116897   -1.530902
     86          1           0      -12.623637   -1.424641   -1.357434
     87          1           0      -13.460970    0.178779   -1.646399
     88          1           0      -12.373262    0.605989   -3.936689
     89          1           0      -11.444270   -0.848357   -3.819743
     90          1           0      -13.238537   -1.018405   -3.823975
     91          1           0       -9.861015   -4.790889   -0.534297
     92          1           0       -9.233464   -4.562356   -2.142130
     93          1           0       -8.243450   -5.773425   -0.866805
     94          1           0       -3.502559   -3.322883   -0.359004
     95          1           0       -1.907207   -6.160935    2.474679
     96          1           0       -1.630997   -4.831697    3.243383
     97          1           0       -3.146190   -5.776843    3.807852
     98          1           0        2.663934   -2.120568   -1.170742
     99          1           0        2.318068   -0.546475   -2.138464
    100          1           0        4.005785   -0.844477    0.534118
    101          1           0        5.197186    1.777735   -2.656372
    102          1           0        5.489638    0.225666   -3.317365
    103          1           0        3.867891    0.613379   -2.875839
    104          1           0        6.327407    1.560670   -0.753230
    105          1           0        6.199984    0.231406    0.543390
    106          1           0        7.079962   -1.678871   -1.000849
    107          1           0        7.653316   -0.242195   -2.173546
    108          1           0        8.893909    1.069929   -0.197267
    109          1           0        8.796344   -0.271972    0.901501
    110          1           0       10.240796   -0.083924   -1.890160
    111          1           0        9.295152   -2.589229   -1.401355
    112          1           0       10.816974   -2.681276   -1.336426
    113          1           0        9.868126   -2.259306    0.145080
    114          1           0       11.069081    0.995469    0.110822
    115          1           0       10.945416   -0.377365    1.119690
    116          1           0       12.827996   -1.448428   -0.444104
    117          1           0       12.971150   -0.023616   -1.603609
    118          1           0       13.826698    1.112995    0.401344
    119          1           0       13.641385   -0.413554    1.338930
    120          1           0       15.172341    0.150733   -1.295020
    121          1           0       14.862147   -2.339415   -0.796897
    122          1           0       16.725897   -1.715013   -0.686779
    123          1           0       15.803729   -2.089194    0.828960
    124          1           0       15.751984    1.277199    0.748439
    125          1           0       16.686416    0.213164    1.560138
    126          1           0       18.089814   -0.281194   -0.622312
    127          1           0       17.569303    1.373463   -1.191590
    128          1           0       18.180991    2.563630    0.617149
    129          1           0       18.673917    1.096467    1.595287
    130          1           0       20.445555    0.431296    0.235967
    131          1           0       19.404602    2.954927   -1.612780
    132          1           0       21.258596    2.681438   -1.705439
    133          1           0       19.875098    1.181926   -2.179211
    134          1           0       21.168398    2.129350    1.960396
    135          1           0       22.197917    2.187363    0.328570
    136          1           0       20.946629    3.624131    0.979266
    137          1           0       -7.227884    1.588505    0.617546
    138          1           0       -7.590101   -0.258958   -0.355705
 ---------------------------------------------------------------------

 SCF Done:  E(RB3LYP) =  -2733.06812935     A.U. after   18 cycles

 Excitation energies and oscillator strengths:

 Excited State   1:      Singlet-A      1.8951 eV  654.24 nm  f=0.2334  <S**2>=0.000
     235 -> 238       -0.20288
     236 -> 237        0.66928
 This state for optimization and/or second-order correction.
 Total Energy, E(TD-HF/TD-DFT) =  -2732.99848596
 Copying the excited state density for this state as the 1-particle RhoCI density.

 The electronic state is 1-A.
 Alpha  occ. eigenvalues --  -19.17783 -19.17500 -19.12995 -19.12627 -19.12494
 Alpha  occ. eigenvalues --  -14.37911 -14.36596 -14.31849 -14.31317 -10.32277
 Alpha  occ. eigenvalues --  -10.31460 -10.29183 -10.24914 -10.24235 -10.24174
 Alpha  occ. eigenvalues --  -10.23868 -10.23735 -10.23714 -10.23471 -10.22902
 Alpha  occ. eigenvalues --  -10.22836 -10.22370 -10.22348 -10.22163 -10.22138
 Alpha  occ. eigenvalues --  -10.21964 -10.21708 -10.21040 -10.20948 -10.20745
 Alpha  occ. eigenvalues --  -10.20569 -10.20546 -10.20476 -10.20338 -10.20322
 Alpha  occ. eigenvalues --  -10.20256 -10.20198 -10.20168 -10.20160 -10.20098
 Alpha  occ. eigenvalues --  -10.19994 -10.19969 -10.19868 -10.19777 -10.19744
 Alpha  occ. eigenvalues --  -10.19694 -10.19610 -10.19585 -10.19535 -10.19244
 Alpha  occ. eigenvalues --  -10.19210 -10.19070 -10.18927 -10.18916 -10.18857
 Alpha  occ. eigenvalues --  -10.18809 -10.18706 -10.18513 -10.18466 -10.18441
 Alpha  occ. eigenvalues --  -10.18180 -10.17543 -10.17123 -10.16098  -1.09791
 Alpha  occ. eigenvalues --   -1.08606  -1.01358  -0.99641  -0.99261  -0.97805
 Alpha  occ. eigenvalues --   -0.95943  -0.94969  -0.92712  -0.84752  -0.82324
 Alpha  occ. eigenvalues --   -0.81844  -0.81235  -0.81014  -0.80870  -0.80665
 Alpha  occ. eigenvalues --   -0.80390  -0.79703  -0.79518  -0.79414  -0.77882
 Alpha  occ. eigenvalues --   -0.76696  -0.76389  -0.76035  -0.75227  -0.74741
 Alpha  occ. eigenvalues --   -0.74047  -0.73329  -0.72580  -0.71909  -0.71279
 Alpha  occ. eigenvalues --   -0.70257  -0.69204  -0.68755  -0.68204  -0.67450
 Alpha  occ. eigenvalues --   -0.67140  -0.66445  -0.65642  -0.65485  -0.65188
 Alpha  occ. eigenvalues --   -0.64423  -0.62666  -0.62542  -0.61595  -0.61173
 Alpha  occ. eigenvalues --   -0.60828  -0.58697  -0.58506  -0.58194  -0.56978
 Alpha  occ. eigenvalues --   -0.56515  -0.56044  -0.55516  -0.55222  -0.55154
 Alpha  occ. eigenvalues --   -0.54222  -0.54139  -0.53866  -0.53341  -0.52954
 Alpha  occ. eigenvalues --   -0.52648  -0.52063  -0.51372  -0.50953  -0.50250
 Alpha  occ. eigenvalues --   -0.49827  -0.49593  -0.48934  -0.48746  -0.48683
 Alpha  occ. eigenvalues --   -0.47828  -0.47592  -0.47304  -0.47028  -0.46836
 Alpha  occ. eigenvalues --   -0.46817  -0.46499  -0.46371  -0.46244  -0.46061
 Alpha  occ. eigenvalues --   -0.45606  -0.45323  -0.45070  -0.45003  -0.44684
 Alpha  occ. eigenvalues --   -0.44424  -0.44021  -0.43924  -0.43629  -0.43527
 Alpha  occ. eigenvalues --   -0.43369  -0.43301  -0.42699  -0.42556  -0.42279
 Alpha  occ. eigenvalues --   -0.42238  -0.42091  -0.41643  -0.41606  -0.41324
 Alpha  occ. eigenvalues --   -0.41186  -0.40968  -0.40855  -0.40643  -0.40446
 Alpha  occ. eigenvalues --   -0.40296  -0.40235  -0.40065  -0.39915  -0.39708
 Alpha  occ. eigenvalues --   -0.39581  -0.39471  -0.39358  -0.39025  -0.38923
 Alpha  occ. eigenvalues --   -0.38584  -0.38074  -0.37828  -0.37655  -0.37567
 Alpha  occ. eigenvalues --   -0.37510  -0.37150  -0.37095  -0.36965  -0.36489
 Alpha  occ. eigenvalues --   -0.36065  -0.35984  -0.35814  -0.35785  -0.35592
 Alpha  occ. eigenvalues --   -0.35435  -0.35237  -0.35208  -0.34684  -0.34631
 Alpha  occ. eigenvalues --   -0.34288  -0.34247  -0.34050  -0.33514  -0.33459
 Alpha  occ. eigenvalues --   -0.33302  -0.32748  -0.32703  -0.32565  -0.32404
 Alpha  occ. eigenvalues --   -0.32075  -0.31936  -0.31910  -0.31387  -0.31149
 Alpha  occ. eigenvalues --   -0.30595  -0.30389  -0.30252  -0.29994  -0.29687
 Alpha  occ. eigenvalues --   -0.29575  -0.28717  -0.28549  -0.28188  -0.27931
 Alpha  occ. eigenvalues --   -0.27756  -0.27327  -0.26835  -0.26278  -0.25647
 Alpha  occ. eigenvalues --   -0.25104  -0.24846  -0.23446  -0.23247  -0.20628
 Alpha  occ. eigenvalues --   -0.18436
 Alpha virt. eigenvalues --   -0.11040  -0.07812  -0.05276  -0.01830  -0.01623
 Alpha virt. eigenvalues --   -0.00402   0.00455   0.00712   0.02222   0.03367
 Alpha virt. eigenvalues --    0.03714   0.04298   0.04385   0.04534   0.04871

 Mulliken charges:
               1
     1  C    0.052358
     2  C   -0.040686
     3  C    0.003521
     4  C   -0.068135
     5  N   -0.147743
     6  C   -0.069043
     7  C   -0.149178
     8  C    0.003003
     9  C    0.019117
    10  C    0.103819
    11  C    0.131140
    12  C   -0.011651
    13  C    0.226045
    14  O   -0.267795
    15  O   -0.322372
    16  N   -0.044401
    17  C    0.036981
    18  C   -0.107703
    19  C   -0.008343
    20  C    0.045100
    21  C    0.083652
    22  C    0.011146
    23  C   -0.056124
    24  N   -0.270437
    25  C    0.126615
    26  C   -0.107477
    27  C   -0.141248
    28  C    0.014897
    29  C    0.085369
    30  C    0.021540
    31  C    0.042018
    32  N   -0.185479
    33  C    0.197736
    34  C   -0.098994
    35  C    0.067510
    36  C    0.103509
    37  C    0.002854
    38  C    0.076985
    39  O   -0.226940
    40  C   -0.126365
    41  C    0.207873
    42  O   -0.203538
    43  O   -0.301394
    44  C    0.226203
    45  C    0.233321
    46  C   -0.093192
    47  C   -0.133829
    48  C    0.123077
    49  C    0.059423
    50  C   -0.043484
    51  C   -0.004375
    52  C   -0.076745
    53  C    0.112370
    54  C   -0.049608
    55  C    0.128626
    56  C    0.039822
    57  C   -0.133836
    58  C    0.016470
    59  C    0.103179
    60  C    0.028978
    61  C   -0.031609
    62  C   -0.075992
    63  C   -0.047055
    64  C   -0.073658
    65  H   -0.029710
    66  H   -0.092256
    67  H   -0.068099
    68  H    0.030471
    69  H    0.010363
    70  H   -0.028049
    71  H    0.027865
    72  H    0.010961
    73  H   -0.017134
    74  H    0.041397
    75  H    0.036845
    76  H    0.034218
    77  H    0.037764
    78  H   -0.015430
    79  H    0.008310
    80  H   -0.004078
    81  H    0.013610
    82  H    0.030953
    83  H    0.010640
    84  H    0.035538
    85  H   -0.008758
    86  H    0.030718
    87  H    0.011771
    88  H    0.029618
    89  H    0.010519
    90  H    0.010397
    91  H    0.030504
    92  H    0.045970
    93  H    0.082307
    94  H    0.085141
    95  H   -0.016020
    96  H   -0.003448
    97  H    0.066324
    98  H    0.009051
    99  H    0.048980
   100  H   -0.007496
   101  H    0.019662
   102  H    0.013782
   103  H   -0.023739
   104  H    0.017016
   105  H   -0.006021
   106  H    0.039716
   107  H    0.012735
   108  H   -0.005332
   109  H   -0.001450
   110  H   -0.009172
   111  H   -0.039897
   112  H   -0.005775
   113  H   -0.017444
   114  H   -0.013359
   115  H   -0.003823
   116  H   -0.032895
   117  H    0.018120
   118  H   -0.009564
   119  H   -0.010364
   120  H   -0.003750
   121  H    0.026629
   122  H    0.008345
   123  H    0.009317
   124  H   -0.062340
   125  H   -0.009971
   126  H    0.007853
   127  H    0.002445
   128  H    0.002207
   129  H   -0.004347
   130  H    0.023392
   131  H    0.034013
   132  H    0.040668
   133  H    0.042776
   134  H    0.020498
   135  H    0.031831
   136  H    0.013696
   137  H    0.178121
   138  H    0.180845
 Sum of Mulliken charges =  -0.00000

 Dipole moment (field-independent basis, Debye):
    X=              0.0710    Y=              3.6797    Z=              1.0164  Tot=              3.8182
 Quadrupole moment (field-independent basis, Debye-Ang):
   XX=           -345.3695   YY=           -388.8155   ZZ=           -394.3415
   XY=            -14.0129   XZ=              9.7482   YZ=              0.3130

 Normal termination of Gaussian 16 at Mon Aug 26 04:46:05 2019.
