 Gaussian 16, Revision A.03,
 Gaussian 16:  ES64L-G16RevA.03 25-Dec-2016

 --------------------------
 # td=(NStates=1) B3LYP/SVP
 --------------------------

 --
 TD
 --
 Symbolic Z-matrix:
 Charge =  0 Multiplicity = 1

                         Standard orientation:
 ---------------------------------------------------------------------
 Center     Atomic      Atomic             Coordinates (Angstroms)
 Number     Number       Type             X           Y           Z
 ---------------------------------------------------------------------
      1          6           0       -5.135819   -2.011062    0.528198
      2          6           0       -4.776677    2.792403    1.087082
      3          6           0       -9.414489    3.324474   -0.126822
      4          6           0       -9.811549   -1.537282   -0.887078
      5          7           0       -5.177448    0.340381    0.800880
      6          6           0       -4.495637   -0.782997    0.845270
      7          6           0       -3.051505   -0.567963    1.303647
      8          6           0       -3.056062    0.981401    1.662349
      9          6           0       -4.398145    1.371310    1.024184
     10          6           0       -3.078370    1.195873    3.179525
     11          6           0       -2.056121   -0.849211    0.127791
     12          6           0       -0.527040   -0.693990    0.554012
     13          6           0        0.430801   -0.953162   -0.642962
     14          8           0        0.207196   -1.477586   -1.708477
     15          8           0        1.696544   -0.621779   -0.266537
     16          7           0       -7.134077    2.811208    0.395047
     17          6           0       -5.919780    3.357310    0.783430
     18          6           0       -6.221696    4.845069    0.848122
     19          6           0       -7.589172    4.934749    0.454091
     20          6           0       -8.168315    3.696603    0.159749
     21          6           0       -5.290206    5.793913    1.189588
     22          6           0       -8.312796    6.241365    0.438610
     23          6           0       -9.205049    6.592691   -0.579733
     24          7           0       -9.319595    0.810901   -0.386964
     25          6           0       -9.926839    1.991060   -0.461266
     26          6           0      -11.278308    1.766519   -0.799047
     27          6           0      -11.486400    0.358474   -0.963619
     28          6           0      -10.122945   -0.202494   -0.628671
     29          6           0      -12.358858    2.848595   -0.936848
     30          6           0      -12.632975   -0.349780   -1.417888
     31          6           0      -12.958108   -0.545775   -2.916501
     32          7           0       -7.550928   -1.269249   -0.044958
     33          6           0       -8.536424   -2.147764   -0.603288
     34          6           0       -8.115708   -3.483918   -0.703466
     35          6           0       -6.810314   -3.457449   -0.210450
     36          6           0       -6.467718   -2.072711    0.141172
     37          6           0       -8.888651   -4.607999   -1.187041
     38          6           0       -5.701414   -4.365847    0.194078
     39          8           0       -5.620851   -5.616968   -0.050628
     40          6           0       -4.447013   -3.378822    0.452458
     41          6           0       -3.780067   -3.833297    1.737017
     42          8           0       -4.036631   -3.288725    2.756746
     43          8           0       -2.888735   -4.822876    1.493420
     44          6           0       -2.330472   -5.250523    2.651960
     45          6           0        2.666131   -0.876579   -1.214239
     46          6           0        3.997293   -0.475679   -0.575301
     47          6           0        4.983761    0.175169   -1.144577
     48          6           0        4.818849    0.715922   -2.558401
     49          6           0        6.313215    0.313972   -0.464691
     50          6           0        7.583653   -0.407070   -1.016707
     51          6           0        8.906330   -0.064954   -0.178106
     52          6           0       10.116379   -0.629375   -0.797159
     53          6           0       10.007929   -2.197181   -0.897143
     54          6           0       11.363103   -0.402717    0.134224
     55          6           0       12.687374   -0.621354   -0.613626
     56          6           0       13.772125    0.070412    0.181399
     57          6           0       15.162285   -0.151610   -0.412244
     58          6           0       15.649103   -1.570003   -0.693938
     59          6           0       16.162078    0.556695    0.429283
     60          6           0       17.613927    0.727278   -0.215147
     61          6           0       18.693155    1.430313    0.774988
     62          6           0       20.077138    1.527475    0.174445
     63          6           0       20.128172    2.458279   -1.081516
     64          6           0       20.938870    2.126194    1.329039
     65          1           0       -3.891812    3.243158    1.470575
     66          1           0      -10.240797    4.156419   -0.138244
     67          1           0      -10.786409   -2.048905   -1.244259
     68          1           0       -2.804868   -1.209001    2.213761
     69          1           0       -2.206523    1.838163    1.372687
     70          1           0       -2.026250    0.858054    3.533727
     71          1           0       -2.972660    2.285039    3.340765
     72          1           0       -4.024520    0.728189    3.640362
     73          1           0       -2.117926   -1.677884   -0.360068
     74          1           0       -2.129864   -0.115864   -0.797193
     75          1           0       -0.218452    0.337204    0.810235
     76          1           0       -0.161015   -1.279082    1.473983
     77          1           0       -4.575470    6.145097    0.273355
     78          1           0       -5.819778    6.887707    1.511997
     79          1           0       -4.483959    5.530422    2.103354
     80          1           0       -8.172064    6.973031    1.307027
     81          1           0       -9.405847    5.682763   -1.433974
     82          1           0       -9.727575    7.568155   -0.586534
     83          1           0      -12.323453    3.721144    0.099397
     84          1           0      -12.330160    3.592927   -1.585976
     85          1           0      -13.416491    2.536573   -0.950210
     86          1           0      -12.522968   -1.355099   -0.999422
     87          1           0      -13.501010    0.146721   -0.772941
     88          1           0      -13.166425    0.314176   -3.562146
     89          1           0      -12.134860   -1.144158   -3.309764
     90          1           0      -13.908460   -0.983309   -3.016672
     91          1           0       -9.746981   -4.673415   -0.510748
     92          1           0       -9.412037   -4.387082   -2.214573
     93          1           0       -8.449993   -5.637728   -1.293569
     94          1           0       -3.845719   -3.638086   -0.316551
     95          1           0       -1.642059   -6.096605    2.448663
     96          1           0       -1.820861   -4.647967    3.458933
     97          1           0       -3.099037   -5.751515    3.405017
     98          1           0        2.834585   -2.100731   -1.365092
     99          1           0        2.459846   -0.393127   -2.236473
    100          1           0        4.318144   -0.935412    0.488086
    101          1           0        5.116859    1.827593   -2.738330
    102          1           0        5.292800   -0.099852   -3.319372
    103          1           0        3.823319    0.735054   -3.030425
    104          1           0        6.596179    1.522834   -0.319836
    105          1           0        6.005986   -0.005368    0.545957
    106          1           0        7.386152   -1.482198   -1.182580
    107          1           0        7.604451   -0.116275   -2.093232
    108          1           0        9.139501    1.053316   -0.059015
    109          1           0        8.626295   -0.337283    0.721040
    110          1           0       10.255964   -0.058413   -1.577983
    111          1           0        9.368513   -2.452658   -1.661274
    112          1           0       10.963453   -2.680359   -1.228127
    113          1           0        9.620238   -2.659617    0.127949
    114          1           0       11.306538    0.662881    0.589194
    115          1           0       11.285301   -1.249170    1.107701
    116          1           0       12.891419   -1.692094   -0.744528
    117          1           0       12.579306   -0.036273   -1.561589
    118          1           0       13.708282    1.086309    0.334658
    119          1           0       14.131806   -0.382728    1.237753
    120          1           0       15.457849    0.510580   -1.388659
    121          1           0       15.092446   -2.306686   -1.360129
    122          1           0       16.620226   -1.789178   -1.312481
    123          1           0       15.621159   -2.133577    0.289756
    124          1           0       15.709166    1.682542    0.538998
    125          1           0       16.262198    0.211699    1.472688
    126          1           0       18.170079   -0.377427   -0.532688
    127          1           0       17.729188    1.347241   -1.063357
    128          1           0       18.386073    2.479505    0.906111
    129          1           0       18.662012    0.919840    1.721753
    130          1           0       20.324727    0.299030    0.040767
    131          1           0       19.845817    3.532350   -0.560899
    132          1           0       21.192634    2.617465   -1.449124
    133          1           0       19.404673    2.111417   -1.943262
    134          1           0       21.067612    1.316786    2.110305
    135          1           0       21.947205    2.311742    1.016617
    136          1           0       20.503433    3.098683    1.757358
    137          1           0       -7.390380    1.866912    0.522749
    138          1           0       -7.746796   -0.263536   -0.065632
 ---------------------------------------------------------------------

 SCF Done:  E(RB3LYP) =  -2733.02240217     A.U. after   18 cycles

 Excitation energies and oscillator strengths:

 Excited State   1:      Singlet-A      2.1259 eV  583.20 nm  f=0.1288  <S**2>=0.000
     235 -> 238       -0.34887
     236 -> 237        0.61033
 This state for optimization and/or second-order correction.
 Total Energy, E(TD-HF/TD-DFT) =  -2732.94427632
 Copying the excited state density for this state as the 1-particle RhoCI density.

 The electronic state is 1-A.
 Alpha  occ. eigenvalues --  -19.19895 -19.18099 -19.13519 -19.13264 -19.12249
 Alpha  occ. eigenvalues --  -14.37396 -14.36225 -14.32304 -14.29558 -10.32107
 Alpha  occ. eigenvalues --  -10.32012 -10.28466 -10.26239 -10.24995 -10.24393
 Alpha  occ. eigenvalues --  -10.24180 -10.23830 -10.23608 -10.23358 -10.23337
 Alpha  occ. eigenvalues --  -10.23037 -10.22072 -10.21775 -10.21714 -10.21708
 Alpha  occ. eigenvalues --  -10.21695 -10.21587 -10.21537 -10.21523 -10.21168
 Alpha  occ. eigenvalues --  -10.21165 -10.21042 -10.21028 -10.20871 -10.20583
 Alpha  occ. eigenvalues --  -10.20528 -10.20481 -10.20322 -10.20223 -10.20221
 Alpha  occ. eigenvalues --  -10.20197 -10.19955 -10.19797 -10.19792 -10.19729
 Alpha  occ. eigenvalues --  -10.19606 -10.19362 -10.19333 -10.19318 -10.19243
 Alpha  occ. eigenvalues --  -10.19199 -10.19176 -10.18959 -10.18846 -10.18600
 Alpha  occ. eigenvalues --  -10.18535 -10.18475 -10.18431 -10.18357 -10.18267
 Alpha  occ. eigenvalues --  -10.18246 -10.17729 -10.17637 -10.17469  -1.12456
 Alpha  occ. eigenvalues --   -1.10814  -1.03980  -1.01566  -0.99237  -0.98190
 Alpha  occ. eigenvalues --   -0.97645  -0.96494  -0.94601  -0.84621  -0.82628
 Alpha  occ. eigenvalues --   -0.82246  -0.81978  -0.81815  -0.81369  -0.81050
 Alpha  occ. eigenvalues --   -0.80559  -0.79781  -0.79699  -0.78944  -0.77915
 Alpha  occ. eigenvalues --   -0.76632  -0.75921  -0.75546  -0.74408  -0.74054
 Alpha  occ. eigenvalues --   -0.73749  -0.72960  -0.71990  -0.70862  -0.70796
 Alpha  occ. eigenvalues --   -0.70005  -0.69611  -0.68791  -0.67783  -0.67688
 Alpha  occ. eigenvalues --   -0.67004  -0.66425  -0.66256  -0.65804  -0.65287
 Alpha  occ. eigenvalues --   -0.65015  -0.63202  -0.62711  -0.62292  -0.61096
 Alpha  occ. eigenvalues --   -0.60839  -0.59255  -0.58887  -0.58575  -0.57860
 Alpha  occ. eigenvalues --   -0.57622  -0.57005  -0.56148  -0.55584  -0.55535
 Alpha  occ. eigenvalues --   -0.54942  -0.54288  -0.53237  -0.53034  -0.52879
 Alpha  occ. eigenvalues --   -0.52430  -0.52127  -0.51922  -0.51166  -0.50757
 Alpha  occ. eigenvalues --   -0.50174  -0.49715  -0.49507  -0.49172  -0.48956
 Alpha  occ. eigenvalues --   -0.48726  -0.48008  -0.47818  -0.47328  -0.47257
 Alpha  occ. eigenvalues --   -0.47071  -0.46525  -0.46334  -0.46151  -0.45760
 Alpha  occ. eigenvalues --   -0.45645  -0.45534  -0.44983  -0.44905  -0.44208
 Alpha  occ. eigenvalues --   -0.44091  -0.43927  -0.43692  -0.43560  -0.43466
 Alpha  occ. eigenvalues --   -0.43161  -0.43121  -0.43021  -0.42538  -0.41988
 Alpha  occ. eigenvalues --   -0.41924  -0.41742  -0.41625  -0.41457  -0.41049
 Alpha  occ. eigenvalues --   -0.40932  -0.40718  -0.40573  -0.40535  -0.40179
 Alpha  occ. eigenvalues --   -0.40156  -0.39952  -0.39862  -0.39533  -0.39418
 Alpha  occ. eigenvalues --   -0.39182  -0.39037  -0.38955  -0.38780  -0.38238
 Alpha  occ. eigenvalues --   -0.38097  -0.37835  -0.37738  -0.37560  -0.37421
 Alpha  occ. eigenvalues --   -0.37377  -0.37002  -0.36752  -0.36609  -0.36406
 Alpha  occ. eigenvalues --   -0.36313  -0.36089  -0.36051  -0.35873  -0.35850
 Alpha  occ. eigenvalues --   -0.35507  -0.35356  -0.34968  -0.34871  -0.34714
 Alpha  occ. eigenvalues --   -0.34470  -0.34421  -0.34314  -0.34256  -0.34030
 Alpha  occ. eigenvalues --   -0.33931  -0.33488  -0.32998  -0.32912  -0.32792
 Alpha  occ. eigenvalues --   -0.32389  -0.32158  -0.31921  -0.31396  -0.31187
 Alpha  occ. eigenvalues --   -0.30644  -0.30627  -0.30547  -0.30111  -0.30074
 Alpha  occ. eigenvalues --   -0.29944  -0.29131  -0.28989  -0.28595  -0.28394
 Alpha  occ. eigenvalues --   -0.28036  -0.26986  -0.26543  -0.26458  -0.25512
 Alpha  occ. eigenvalues --   -0.24817  -0.24649  -0.23611  -0.21687  -0.20391
 Alpha  occ. eigenvalues --   -0.19192
 Alpha virt. eigenvalues --   -0.10032  -0.08706  -0.05504  -0.02381  -0.00756
 Alpha virt. eigenvalues --   -0.00473  -0.00273   0.00972   0.01434   0.02389
 Alpha virt. eigenvalues --    0.03565   0.03855   0.04093   0.04258   0.04464

 Mulliken charges:
               1
     1  C   -0.015707
     2  C   -0.103732
     3  C   -0.150572
     4  C   -0.092429
     5  N   -0.091344
     6  C   -0.089250
     7  C    0.014642
     8  C   -0.166153
     9  C   -0.052483
    10  C    0.048405
    11  C    0.110509
    12  C   -0.006549
    13  C    0.166242
    14  O   -0.224376
    15  O   -0.281544
    16  N   -0.083914
    17  C    0.257535
    18  C   -0.025117
    19  C    0.024642
    20  C    0.147278
    21  C   -0.105966
    22  C   -0.082733
    23  C   -0.091557
    24  N   -0.193061
    25  C    0.044866
    26  C   -0.090120
    27  C   -0.098755
    28  C    0.009967
    29  C    0.066875
    30  C   -0.009060
    31  C    0.079266
    32  N   -0.054032
    33  C    0.092720
    34  C   -0.097130
    35  C   -0.045884
    36  C    0.169270
    37  C    0.072100
    38  C    0.105701
    39  O   -0.237690
    40  C    0.004985
    41  C    0.176341
    42  O   -0.188217
    43  O   -0.236031
    44  C    0.135393
    45  C    0.196358
    46  C   -0.100104
    47  C   -0.143171
    48  C    0.007974
    49  C    0.038347
    50  C    0.010753
    51  C    0.105105
    52  C    0.025801
    53  C    0.039991
    54  C   -0.083568
    55  C    0.131702
    56  C    0.037749
    57  C   -0.076471
    58  C   -0.015446
    59  C   -0.003898
    60  C   -0.008674
    61  C    0.024036
    62  C   -0.155327
    63  C   -0.033739
    64  C    0.037633
    65  H   -0.048003
    66  H    0.020209
    67  H    0.006600
    68  H    0.044500
    69  H    0.028115
    70  H    0.025298
    71  H    0.001360
    72  H    0.055389
    73  H   -0.040518
    74  H    0.020309
    75  H    0.024009
    76  H    0.049175
    77  H    0.060261
    78  H    0.040994
    79  H    0.056723
    80  H    0.036012
    81  H    0.071315
    82  H    0.037911
    83  H    0.000719
    84  H   -0.020193
    85  H    0.010385
    86  H   -0.005478
    87  H    0.023023
    88  H    0.005002
    89  H    0.012054
    90  H   -0.004625
    91  H    0.023626
    92  H    0.030832
    93  H    0.052177
    94  H    0.023054
    95  H    0.024811
    96  H    0.027409
    97  H    0.015575
    98  H    0.041102
    99  H    0.042008
   100  H    0.013325
   101  H    0.034211
   102  H    0.036486
   103  H   -0.005675
   104  H    0.013084
   105  H   -0.013149
   106  H    0.002170
   107  H   -0.011077
   108  H   -0.008761
   109  H   -0.053805
   110  H   -0.061398
   111  H   -0.013608
   112  H    0.004518
   113  H    0.032419
   114  H    0.000593
   115  H    0.008142
   116  H    0.015721
   117  H   -0.003213
   118  H   -0.030605
   119  H    0.002881
   120  H   -0.006212
   121  H    0.002636
   122  H    0.026897
   123  H    0.001104
   124  H    0.003806
   125  H   -0.006161
   126  H    0.012864
   127  H   -0.015328
   128  H   -0.020223
   129  H   -0.007750
   130  H    0.013554
   131  H    0.022686
   132  H    0.028207
   133  H    0.051686
   134  H    0.012370
   135  H   -0.007198
   136  H    0.021047
   137  H    0.122614
   138  H    0.141618
 Sum of Mulliken charges =  -0.00000

 Dipole moment (field-independent basis, Debye):
    X=              1.5562    Y=              4.4862    Z=              0.5911  Tot=              4.7851
 Quadrupole moment (field-independent basis, Debye-Ang):
   XX=           -362.7888   YY=           -388.3270   ZZ=           -395.6616
   XY=            -20.1259   XZ=              6.5655   YZ=              0.9709

 Normal termination of Gaussian 16 at Sat Aug 17 20:34:29 2019.
