 Gaussian 16, Revision A.03,
 Gaussian 16:  ES64L-G16RevA.03 25-Dec-2016

 --------------------------
 # td=(NStates=1) B3LYP/SVP
 --------------------------

 --
 TD
 --
 Symbolic Z-matrix:
 Charge =  0 Multiplicity = 1

                         Standard orientation:
 ---------------------------------------------------------------------
 Center     Atomic      Atomic             Coordinates (Angstroms)
 Number     Number       Type             X           Y           Z
 ---------------------------------------------------------------------
      1          6           0       -5.079986   -1.892791    0.340246
      2          6           0       -4.850621    2.741757    1.579468
      3          6           0       -9.280896    3.322591   -0.157901
      4          6           0       -9.814332   -1.368966   -0.895817
      5          7           0       -5.168396    0.467084    0.887855
      6          6           0       -4.480423   -0.714871    0.785496
      7          6           0       -2.950110   -0.592232    1.252710
      8          6           0       -3.075807    0.782302    1.852808
      9          6           0       -4.397886    1.324736    1.489796
     10          6           0       -2.865704    0.828328    3.381592
     11          6           0       -2.041799   -0.681228    0.026125
     12          6           0       -0.559447   -0.611186    0.398900
     13          6           0        0.393890   -0.880143   -0.745559
     14          8           0        0.073614   -1.408196   -1.800665
     15          8           0        1.655417   -0.657762   -0.329697
     16          7           0       -7.021930    2.769791    0.610202
     17          6           0       -5.936099    3.446896    1.114714
     18          6           0       -6.182590    4.823745    1.017370
     19          6           0       -7.423393    4.987536    0.481087
     20          6           0       -8.027568    3.594497    0.256151
     21          6           0       -5.222638    5.747179    1.545806
     22          6           0       -8.153754    6.285588    0.332740
     23          6           0       -9.058952    6.728028   -0.643014
     24          7           0       -9.147999    0.885373   -0.521826
     25          6           0       -9.783942    2.087368   -0.536457
     26          6           0      -11.230094    1.971731   -0.909642
     27          6           0      -11.440953    0.616634   -1.091724
     28          6           0      -10.068484   -0.014983   -0.903853
     29          6           0      -12.319835    3.040603   -1.062006
     30          6           0      -12.718071   -0.195458   -1.560958
     31          6           0      -12.741504   -0.690592   -3.041908
     32          7           0       -7.397255   -1.195517   -0.444045
     33          6           0       -8.539565   -1.914382   -0.722707
     34          6           0       -8.164235   -3.323396   -0.718654
     35          6           0       -6.835891   -3.396271   -0.254727
     36          6           0       -6.420380   -2.005836   -0.134689
     37          6           0       -8.995667   -4.569897   -0.996724
     38          6           0       -5.846389   -4.384532    0.022781
     39          8           0       -5.741729   -5.558457    0.088541
     40          6           0       -4.544857   -3.415208    0.485757
     41          6           0       -3.932812   -3.854802    1.836418
     42          8           0       -4.271419   -3.284818    2.856775
     43          8           0       -3.199669   -4.991147    1.616451
     44          6           0       -2.888459   -5.661211    2.768648
     45          6           0        2.673909   -1.102169   -1.311029
     46          6           0        4.086567   -0.683825   -0.691661
     47          6           0        5.035903    0.128055   -1.155102
     48          6           0        4.976226    0.872508   -2.510624
     49          6           0        6.298068    0.316452   -0.385407
     50          6           0        7.483490   -0.525411   -0.996889
     51          6           0        8.716739   -0.324033   -0.089176
     52          6           0       10.003877   -0.814132   -0.767619
     53          6           0       10.076722   -2.396285   -1.032698
     54          6           0       11.257557   -0.457187    0.030439
     55          6           0       12.684124   -0.564367   -0.668687
     56          6           0       13.839961   -0.026410    0.221192
     57          6           0       15.208699   -0.187550   -0.426433
     58          6           0       15.604513   -1.602290   -0.826539
     59          6           0       16.246799    0.505565    0.468736
     60          6           0       17.673785    0.666888   -0.050757
     61          6           0       18.640031    1.482460    0.811244
     62          6           0       20.019964    1.679778    0.187507
     63          6           0       20.132543    2.700245   -1.097292
     64          6           0       20.937597    2.173845    1.320964
     65          1           0       -4.175454    3.325739    2.016932
     66          1           0      -10.041989    4.285068   -0.369158
     67          1           0      -10.642990   -2.134654   -0.861334
     68          1           0       -2.892476   -1.447153    1.905130
     69          1           0       -2.287272    1.319127    1.283859
     70          1           0       -1.783019    0.666262    3.665191
     71          1           0       -2.935151    2.040693    3.625848
     72          1           0       -3.600071    0.089409    3.740302
     73          1           0       -2.322697   -1.532394   -0.259120
     74          1           0       -2.358960    0.048034   -0.714765
     75          1           0       -0.211979    0.311822    0.826066
     76          1           0       -0.168240   -1.239244    1.302609
     77          1           0       -4.162411    5.673667    0.950257
     78          1           0       -5.571795    6.691133    1.126066
     79          1           0       -5.229320    5.562763    2.643909
     80          1           0       -7.623917    6.954467    1.220551
     81          1           0       -9.203690    6.031701   -1.485865
     82          1           0       -9.276940    7.893482   -0.661305
     83          1           0      -12.343841    3.393046   -0.044374
     84          1           0      -12.328565    3.673838   -1.991769
     85          1           0      -13.169427    2.527662   -1.252608
     86          1           0      -12.813536   -1.096580   -0.861044
     87          1           0      -13.485705    0.529598   -1.386365
     88          1           0      -12.791647    0.168579   -3.835541
     89          1           0      -11.961195   -1.416700   -3.260765
     90          1           0      -13.577268   -1.199643   -3.131410
     91          1           0       -9.728623   -4.782531   -0.040963
     92          1           0       -9.748588   -4.272507   -1.870361
     93          1           0       -8.135443   -5.255696   -1.096572
     94          1           0       -3.939405   -3.826138   -0.431324
     95          1           0       -2.284411   -6.412642    2.497607
     96          1           0       -2.283511   -4.884795    3.348298
     97          1           0       -3.776020   -5.907425    3.401293
     98          1           0        2.568183   -2.166669   -1.446731
     99          1           0        2.321101   -0.756490   -2.344948
    100          1           0        4.529204   -1.201872    0.233613
    101          1           0        5.099405    2.015034   -2.459377
    102          1           0        5.552969    0.289869   -3.254537
    103          1           0        4.029495    0.660114   -3.176688
    104          1           0        6.637119    1.435430   -0.700692
    105          1           0        6.253461    0.208993    0.765721
    106          1           0        7.246043   -1.665747   -1.046649
    107          1           0        7.721853   -0.212767   -1.988352
    108          1           0        9.126744    0.733666    0.099474
    109          1           0        8.489221   -0.687653    0.782486
    110          1           0       10.195540   -0.325943   -1.616493
    111          1           0        9.064323   -2.735122   -1.386042
    112          1           0       10.883871   -2.498871   -1.638642
    113          1           0       10.284352   -3.123122   -0.126386
    114          1           0       11.355276    0.709284    0.366585
    115          1           0       11.297491   -1.203904    0.973201
    116          1           0       12.888413   -1.775729   -0.889227
    117          1           0       12.762360   -0.071800   -1.609779
    118          1           0       13.619032    1.095242    0.443618
    119          1           0       13.703982   -0.445784    1.318379
    120          1           0       14.978060    0.695889   -1.305073
    121          1           0       14.976491   -2.065318   -1.633245
    122          1           0       16.589366   -1.707543   -1.316606
    123          1           0       15.893072   -2.252084    0.016630
    124          1           0       15.806048    1.412751    0.818833
    125          1           0       16.280646   -0.086768    1.374771
    126          1           0       17.990529   -0.305186   -0.423294
    127          1           0       17.790654    1.087552   -1.127636
    128          1           0       18.171662    2.617203    0.992132
    129          1           0       18.845183    1.070032    1.807525
    130          1           0       20.441939    0.677213   -0.216067
    131          1           0       19.905037    3.820841   -0.727354
    132          1           0       21.203720    2.746049   -1.510192
    133          1           0       19.517021    2.426650   -1.844703
    134          1           0       20.924390    1.462600    2.079342
    135          1           0       21.995009    2.194837    1.092090
    136          1           0       20.563476    3.193087    1.659084
    137          1           0       -6.860555    1.767283    0.362606
    138          1           0       -7.473191   -0.115334   -0.307820
 ---------------------------------------------------------------------

 SCF Done:  E(RB3LYP) =  -2733.07383241     A.U. after   16 cycles

 Excitation energies and oscillator strengths:

 Excited State   1:      Singlet-A      2.0814 eV  595.68 nm  f=0.1796  <S**2>=0.000
     235 -> 238        0.27614
     236 -> 237        0.63725
 This state for optimization and/or second-order correction.
 Total Energy, E(TD-HF/TD-DFT) =  -2732.99734240
 Copying the excited state density for this state as the 1-particle RhoCI density.

 The electronic state is 1-A.
 Alpha  occ. eigenvalues --  -19.18069 -19.17682 -19.12996 -19.12903 -19.12148
 Alpha  occ. eigenvalues --  -14.37376 -14.36219 -14.32448 -14.30115 -10.31817
 Alpha  occ. eigenvalues --  -10.31084 -10.28078 -10.25875 -10.23522 -10.23380
 Alpha  occ. eigenvalues --  -10.23301 -10.23283 -10.22804 -10.22795 -10.22690
 Alpha  occ. eigenvalues --  -10.22564 -10.21671 -10.21354 -10.21329 -10.21062
 Alpha  occ. eigenvalues --  -10.21056 -10.21036 -10.20853 -10.20765 -10.20741
 Alpha  occ. eigenvalues --  -10.20602 -10.20517 -10.20511 -10.20481 -10.20475
 Alpha  occ. eigenvalues --  -10.20428 -10.20126 -10.20018 -10.19937 -10.19879
 Alpha  occ. eigenvalues --  -10.19716 -10.19696 -10.19638 -10.19614 -10.19563
 Alpha  occ. eigenvalues --  -10.19443 -10.19432 -10.19416 -10.19400 -10.18700
 Alpha  occ. eigenvalues --  -10.18675 -10.18670 -10.18613 -10.18612 -10.18437
 Alpha  occ. eigenvalues --  -10.18414 -10.18381 -10.18376 -10.18047 -10.17975
 Alpha  occ. eigenvalues --  -10.17949 -10.17537 -10.17494 -10.17124  -1.09808
 Alpha  occ. eigenvalues --   -1.08584  -1.04887  -1.01720  -0.99729  -0.99138
 Alpha  occ. eigenvalues --   -0.98356  -0.95625  -0.93312  -0.82924  -0.82671
 Alpha  occ. eigenvalues --   -0.82409  -0.81974  -0.81588  -0.80770  -0.80509
 Alpha  occ. eigenvalues --   -0.79753  -0.79270  -0.78800  -0.78325  -0.77393
 Alpha  occ. eigenvalues --   -0.75958  -0.75441  -0.75164  -0.74547  -0.74103
 Alpha  occ. eigenvalues --   -0.73453  -0.73245  -0.71933  -0.71185  -0.70527
 Alpha  occ. eigenvalues --   -0.69508  -0.69016  -0.68072  -0.67828  -0.67638
 Alpha  occ. eigenvalues --   -0.67542  -0.67305  -0.66248  -0.65371  -0.65291
 Alpha  occ. eigenvalues --   -0.64234  -0.63567  -0.62808  -0.62021  -0.61764
 Alpha  occ. eigenvalues --   -0.61504  -0.59166  -0.57953  -0.57776  -0.57712
 Alpha  occ. eigenvalues --   -0.57448  -0.55921  -0.55856  -0.55389  -0.54770
 Alpha  occ. eigenvalues --   -0.54596  -0.54178  -0.53832  -0.53379  -0.52789
 Alpha  occ. eigenvalues --   -0.52157  -0.51379  -0.51021  -0.50458  -0.49439
 Alpha  occ. eigenvalues --   -0.49133  -0.48938  -0.48831  -0.48654  -0.47990
 Alpha  occ. eigenvalues --   -0.47681  -0.47359  -0.47283  -0.46780  -0.46701
 Alpha  occ. eigenvalues --   -0.46455  -0.46348  -0.46021  -0.45924  -0.45860
 Alpha  occ. eigenvalues --   -0.45558  -0.45251  -0.45181  -0.44894  -0.44560
 Alpha  occ. eigenvalues --   -0.44348  -0.44285  -0.44035  -0.43935  -0.43726
 Alpha  occ. eigenvalues --   -0.43371  -0.43071  -0.43047  -0.42825  -0.42699
 Alpha  occ. eigenvalues --   -0.42382  -0.42185  -0.41784  -0.41723  -0.41521
 Alpha  occ. eigenvalues --   -0.41427  -0.41082  -0.40596  -0.40393  -0.40314
 Alpha  occ. eigenvalues --   -0.39894  -0.39680  -0.39531  -0.39359  -0.39113
 Alpha  occ. eigenvalues --   -0.38923  -0.38886  -0.38693  -0.38504  -0.38424
 Alpha  occ. eigenvalues --   -0.38316  -0.38046  -0.37709  -0.37583  -0.37370
 Alpha  occ. eigenvalues --   -0.37280  -0.37159  -0.36990  -0.36825  -0.36793
 Alpha  occ. eigenvalues --   -0.36372  -0.36248  -0.36121  -0.35759  -0.35633
 Alpha  occ. eigenvalues --   -0.35485  -0.35296  -0.35251  -0.34787  -0.34512
 Alpha  occ. eigenvalues --   -0.34391  -0.34195  -0.34007  -0.33874  -0.33793
 Alpha  occ. eigenvalues --   -0.33786  -0.33162  -0.33100  -0.32809  -0.32704
 Alpha  occ. eigenvalues --   -0.32618  -0.31901  -0.31781  -0.31372  -0.31246
 Alpha  occ. eigenvalues --   -0.30875  -0.30371  -0.30299  -0.30190  -0.29981
 Alpha  occ. eigenvalues --   -0.29424  -0.29125  -0.28877  -0.28380  -0.28013
 Alpha  occ. eigenvalues --   -0.27613  -0.27435  -0.26856  -0.26242  -0.26025
 Alpha  occ. eigenvalues --   -0.25154  -0.24273  -0.24158  -0.22906  -0.19766
 Alpha  occ. eigenvalues --   -0.18231
 Alpha virt. eigenvalues --   -0.09564  -0.07221  -0.04594  -0.02291  -0.00728
 Alpha virt. eigenvalues --   -0.00038   0.00299   0.00987   0.02615   0.03928
 Alpha virt. eigenvalues --    0.03945   0.04142   0.04458   0.04702   0.04986

 Mulliken charges:
               1
     1  C    0.054037
     2  C   -0.009760
     3  C   -0.190445
     4  C   -0.112257
     5  N   -0.146260
     6  C   -0.167178
     7  C   -0.070251
     8  C    0.033919
     9  C   -0.032212
    10  C    0.027433
    11  C    0.277719
    12  C    0.016380
    13  C    0.177646
    14  O   -0.252447
    15  O   -0.320880
    16  N   -0.062771
    17  C    0.074472
    18  C   -0.108451
    19  C   -0.034543
    20  C    0.138491
    21  C    0.077323
    22  C   -0.092714
    23  C   -0.050394
    24  N   -0.233996
    25  C    0.065102
    26  C   -0.212289
    27  C   -0.091534
    28  C    0.077624
    29  C    0.194539
    30  C    0.057203
    31  C    0.068171
    32  N   -0.002955
    33  C    0.061947
    34  C   -0.136080
    35  C   -0.053238
    36  C    0.054627
    37  C    0.020478
    38  C    0.048919
    39  O   -0.127700
    40  C   -0.137919
    41  C    0.235416
    42  O   -0.228686
    43  O   -0.280122
    44  C    0.216706
    45  C    0.250683
    46  C   -0.053847
    47  C   -0.132334
    48  C    0.016692
    49  C    0.010849
    50  C    0.009801
    51  C    0.099414
    52  C    0.023822
    53  C    0.020625
    54  C   -0.076687
    55  C   -0.004009
    56  C   -0.043861
    57  C   -0.092511
    58  C    0.058187
    59  C    0.089786
    60  C    0.053812
    61  C    0.031643
    62  C   -0.154344
    63  C    0.017614
    64  C    0.076098
    65  H   -0.106229
    66  H    0.036730
    67  H   -0.000522
    68  H   -0.006684
    69  H   -0.007309
    70  H    0.020512
    71  H    0.025730
    72  H    0.055011
    73  H   -0.078639
    74  H    0.004239
    75  H    0.001378
    76  H    0.040716
    77  H    0.045306
    78  H    0.009745
    79  H    0.059460
    80  H    0.038372
    81  H    0.051147
    82  H    0.064567
    83  H    0.031412
    84  H    0.032081
    85  H   -0.058928
    86  H    0.016722
    87  H   -0.011108
    88  H    0.024907
    89  H    0.008464
    90  H   -0.027966
    91  H    0.058955
    92  H    0.045609
    93  H    0.063528
    94  H    0.065657
    95  H   -0.001692
    96  H    0.010560
    97  H    0.035514
    98  H    0.014480
    99  H    0.040627
   100  H    0.002612
   101  H    0.053148
   102  H    0.027428
   103  H    0.002107
   104  H    0.015315
   105  H    0.032786
   106  H    0.020559
   107  H   -0.008370
   108  H   -0.003399
   109  H   -0.056762
   110  H   -0.049960
   111  H    0.010327
   112  H   -0.008031
   113  H    0.013268
   114  H    0.008902
   115  H    0.015963
   116  H    0.021000
   117  H   -0.013890
   118  H    0.003219
   119  H   -0.003742
   120  H    0.007502
   121  H    0.023674
   122  H   -0.006169
   123  H    0.007958
   124  H   -0.031721
   125  H   -0.025172
   126  H   -0.030747
   127  H   -0.021325
   128  H    0.011095
   129  H   -0.003549
   130  H    0.003537
   131  H    0.016853
   132  H    0.017827
   133  H   -0.009483
   134  H   -0.015841
   135  H   -0.006919
   136  H    0.014467
   137  H    0.152771
   138  H    0.185903
 Sum of Mulliken charges =  -0.00000

 Dipole moment (field-independent basis, Debye):
    X=              2.7815    Y=              3.5968    Z=             -0.2328  Tot=              4.5528
 Quadrupole moment (field-independent basis, Debye-Ang):
   XX=           -343.5502   YY=           -384.1938   ZZ=           -395.6179
   XY=            -29.4738   XZ=              8.0176   YZ=             -4.0515

 Normal termination of Gaussian 16 at Sun Aug 18 16:10:35 2019.
