 Gaussian 16, Revision A.03,
 Gaussian 16:  ES64L-G16RevA.03 25-Dec-2016

 --------------------------
 # td=(NStates=1) B3LYP/SVP
 --------------------------

 --
 TD
 --
 Symbolic Z-matrix:
 Charge =  0 Multiplicity = 1

                         Standard orientation:
 ---------------------------------------------------------------------
 Center     Atomic      Atomic             Coordinates (Angstroms)
 Number     Number       Type             X           Y           Z
 ---------------------------------------------------------------------
      1          6           0       -5.098469   -1.918435    0.537787
      2          6           0       -4.804629    2.779345    1.284871
      3          6           0       -9.325752    3.332007   -0.341533
      4          6           0       -9.736878   -1.562552   -0.866210
      5          7           0       -5.166782    0.441332    0.850575
      6          6           0       -4.461252   -0.721833    0.911082
      7          6           0       -3.074888   -0.473517    1.309574
      8          6           0       -3.069808    0.892265    1.819371
      9          6           0       -4.357729    1.478926    1.255392
     10          6           0       -3.021982    0.967208    3.426206
     11          6           0       -1.997896   -0.666048    0.163259
     12          6           0       -0.615063   -0.564488    0.506560
     13          6           0        0.362522   -1.022811   -0.573382
     14          8           0        0.086216   -1.633643   -1.520710
     15          8           0        1.622299   -0.479486   -0.328404
     16          7           0       -7.049400    2.752873    0.380154
     17          6           0       -5.971957    3.384435    1.001779
     18          6           0       -6.245346    4.841391    1.083933
     19          6           0       -7.566218    5.054144    0.480766
     20          6           0       -8.087202    3.705762    0.171156
     21          6           0       -5.289905    5.801622    1.593835
     22          6           0       -8.246104    6.267816    0.283420
     23          6           0       -9.177234    6.534758   -0.688424
     24          7           0       -9.218091    0.843077   -0.382200
     25          6           0       -9.830841    2.067048   -0.469062
     26          6           0      -11.210388    1.856172   -1.018294
     27          6           0      -11.448015    0.508909   -1.086841
     28          6           0      -10.113095   -0.085803   -0.843903
     29          6           0      -12.349042    3.007534   -1.194910
     30          6           0      -12.726740   -0.221683   -1.574455
     31          6           0      -12.659808   -0.536894   -3.063653
     32          7           0       -7.582980   -1.314240   -0.002372
     33          6           0       -8.600041   -2.158118   -0.503650
     34          6           0       -8.184154   -3.500058   -0.461458
     35          6           0       -6.838220   -3.454642   -0.071755
     36          6           0       -6.518547   -2.027838    0.181934
     37          6           0       -9.042484   -4.602277   -1.000272
     38          6           0       -5.724654   -4.331562    0.068530
     39          8           0       -5.671357   -5.609917   -0.196203
     40          6           0       -4.427708   -3.332496    0.423550
     41          6           0       -3.781240   -3.782278    1.703250
     42          8           0       -3.969786   -3.387326    2.803595
     43          8           0       -3.046778   -4.877120    1.511839
     44          6           0       -2.504345   -5.526592    2.607231
     45          6           0        2.734166   -0.887468   -1.265454
     46          6           0        4.013292   -0.614146   -0.691570
     47          6           0        5.115175    0.145016   -1.097792
     48          6           0        5.169389    0.738041   -2.480453
     49          6           0        6.349032    0.218761   -0.305975
     50          6           0        7.539616   -0.443589   -1.002450
     51          6           0        8.803607   -0.241915   -0.166034
     52          6           0       10.114475   -0.779556   -0.915352
     53          6           0       10.109410   -2.345581   -1.102242
     54          6           0       11.310229   -0.271187   -0.152121
     55          6           0       12.703900   -0.724603   -0.815715
     56          6           0       13.777545   -0.140315    0.184439
     57          6           0       15.169755   -0.229564   -0.524461
     58          6           0       15.642296   -1.707326   -0.667736
     59          6           0       16.179876    0.485610    0.419608
     60          6           0       17.585721    0.756695   -0.145696
     61          6           0       18.542727    1.543375    0.947371
     62          6           0       19.930535    1.724921    0.336238
     63          6           0       20.132490    2.601119   -1.114111
     64          6           0       20.872586    2.365569    1.401091
     65          1           0       -4.076613    3.431817    1.588448
     66          1           0      -10.139531    4.021734   -0.552603
     67          1           0      -10.586794   -2.088810   -1.202296
     68          1           0       -2.930065   -1.316657    2.343318
     69          1           0       -2.334261    1.491146    1.450227
     70          1           0       -2.083153    0.522088    3.638293
     71          1           0       -3.187360    2.088352    3.627378
     72          1           0       -4.045374    0.284423    3.718223
     73          1           0       -2.227946   -1.718330   -0.337342
     74          1           0       -2.249692   -0.165069   -0.755958
     75          1           0       -0.110805    0.429329    0.828683
     76          1           0       -0.449076   -1.177800    1.294199
     77          1           0       -4.390604    5.604447    0.999804
     78          1           0       -5.599181    6.866485    1.306677
     79          1           0       -5.147732    5.600214    2.658986
     80          1           0       -7.740471    7.079771    1.052247
     81          1           0       -9.339861    5.786051   -1.524737
     82          1           0       -9.455276    7.547655   -0.868997
     83          1           0      -12.338816    3.380722   -0.187713
     84          1           0      -11.958435    3.748335   -1.907630
     85          1           0      -13.252348    2.512664   -1.483574
     86          1           0      -12.562375   -1.199358   -0.887291
     87          1           0      -13.679482    0.361189   -1.476956
     88          1           0      -12.919958    0.535238   -3.548348
     89          1           0      -11.734798   -0.986682   -3.368053
     90          1           0      -13.598310   -1.165315   -3.280259
     91          1           0       -9.918122   -4.609088   -0.430671
     92          1           0       -9.237625   -4.584155   -2.024105
     93          1           0       -8.444619   -5.466075   -0.935125
     94          1           0       -3.750336   -3.350612   -0.543369
     95          1           0       -1.795489   -6.273141    2.269619
     96          1           0       -1.835433   -4.896643    3.222521
     97          1           0       -3.230329   -6.085533    3.354419
     98          1           0        2.521494   -2.043431   -1.542759
     99          1           0        2.762839   -0.408454   -2.216557
    100          1           0        4.019266   -1.067334    0.290820
    101          1           0        5.578594    1.808111   -2.737273
    102          1           0        5.810421   -0.042372   -3.159986
    103          1           0        4.086125    0.898502   -2.975482
    104          1           0        6.454762    1.426610   -0.187223
    105          1           0        6.142118   -0.230640    0.619742
    106          1           0        7.225884   -1.462533   -1.061321
    107          1           0        7.747713    0.171596   -1.945979
    108          1           0        9.167836    0.752748    0.022238
    109          1           0        8.653489   -0.817880    0.883526
    110          1           0       10.095717   -0.268265   -1.661551
    111          1           0        9.295596   -2.700644   -1.778552
    112          1           0       10.935658   -2.540627   -1.832151
    113          1           0       10.132116   -2.797815   -0.179969
    114          1           0       11.202126    0.913240   -0.329111
    115          1           0       11.270099   -0.533648    0.884621
    116          1           0       12.641989   -1.848662   -0.363955
    117          1           0       12.860374   -0.391800   -1.807234
    118          1           0       13.571537    1.093617    0.373581
    119          1           0       13.719059   -0.600681    1.165740
    120          1           0       15.247216    0.319469   -1.559128
    121          1           0       14.928806   -2.201339   -1.286747
    122          1           0       16.701530   -1.998331   -1.135871
    123          1           0       15.621852   -2.135737    0.357073
    124          1           0       15.787680    1.416789    0.688973
    125          1           0       16.479360   -0.112574    1.341900
    126          1           0       18.054603   -0.141018   -0.268229
    127          1           0       17.414968    1.300955   -1.264637
    128          1           0       18.058278    2.567810    1.220461
    129          1           0       18.353533    0.966556    1.730833
    130          1           0       20.193175    0.699670   -0.061631
    131          1           0       19.512341    3.619403   -1.132545
    132          1           0       21.161803    2.949151   -1.427167
    133          1           0       19.679581    1.926658   -1.935262
    134          1           0       20.604664    1.773403    2.380708
    135          1           0       21.926533    2.375271    1.071886
    136          1           0       20.485398    3.383698    1.395389
    137          1           0       -7.344045    1.789923    0.028327
    138          1           0       -7.760049   -0.278780   -0.111163
 ---------------------------------------------------------------------

 SCF Done:  E(RB3LYP) =  -2733.03959259     A.U. after   17 cycles

 Excitation energies and oscillator strengths:

 Excited State   1:      Singlet-A      1.9333 eV  641.32 nm  f=0.1632  <S**2>=0.000
     235 -> 238       -0.25295
     236 -> 237        0.64136
     236 -> 238       -0.10678
 This state for optimization and/or second-order correction.
 Total Energy, E(TD-HF/TD-DFT) =  -2732.96854676
 Copying the excited state density for this state as the 1-particle RhoCI density.

 The electronic state is 1-A.
 Alpha  occ. eigenvalues --  -19.17213 -19.16725 -19.13004 -19.12216 -19.12047
 Alpha  occ. eigenvalues --  -14.37040 -14.36849 -14.31406 -14.30957 -10.31227
 Alpha  occ. eigenvalues --  -10.31083 -10.28547 -10.24678 -10.24635 -10.24207
 Alpha  occ. eigenvalues --  -10.24200 -10.23585 -10.22998 -10.22863 -10.22766
 Alpha  occ. eigenvalues --  -10.22598 -10.22342 -10.21836 -10.21782 -10.21728
 Alpha  occ. eigenvalues --  -10.21454 -10.21298 -10.21209 -10.21207 -10.20981
 Alpha  occ. eigenvalues --  -10.20954 -10.20908 -10.20826 -10.20609 -10.20336
 Alpha  occ. eigenvalues --  -10.20287 -10.20126 -10.20087 -10.19912 -10.19907
 Alpha  occ. eigenvalues --  -10.19862 -10.19857 -10.19744 -10.19708 -10.19624
 Alpha  occ. eigenvalues --  -10.19586 -10.19492 -10.19455 -10.19425 -10.18992
 Alpha  occ. eigenvalues --  -10.18984 -10.18897 -10.18874 -10.18759 -10.18557
 Alpha  occ. eigenvalues --  -10.18433 -10.18382 -10.18371 -10.18363 -10.18116
 Alpha  occ. eigenvalues --  -10.18040 -10.17823 -10.17200 -10.16887  -1.11002
 Alpha  occ. eigenvalues --   -1.09104  -1.01385  -1.00494  -0.99594  -0.97390
 Alpha  occ. eigenvalues --   -0.95878  -0.94211  -0.93000  -0.83421  -0.83200
 Alpha  occ. eigenvalues --   -0.82021  -0.81907  -0.81696  -0.81560  -0.81015
 Alpha  occ. eigenvalues --   -0.80377  -0.79088  -0.78842  -0.78487  -0.77933
 Alpha  occ. eigenvalues --   -0.77001  -0.76465  -0.76269  -0.74452  -0.74039
 Alpha  occ. eigenvalues --   -0.73749  -0.73048  -0.72496  -0.71063  -0.70869
 Alpha  occ. eigenvalues --   -0.70483  -0.69034  -0.68454  -0.67880  -0.67487
 Alpha  occ. eigenvalues --   -0.66575  -0.66448  -0.66365  -0.65476  -0.64644
 Alpha  occ. eigenvalues --   -0.64249  -0.63289  -0.62891  -0.61802  -0.60764
 Alpha  occ. eigenvalues --   -0.60442  -0.58973  -0.58294  -0.58008  -0.57453
 Alpha  occ. eigenvalues --   -0.57096  -0.56309  -0.56108  -0.55661  -0.55418
 Alpha  occ. eigenvalues --   -0.55204  -0.55101  -0.54175  -0.53156  -0.52829
 Alpha  occ. eigenvalues --   -0.52403  -0.51931  -0.51665  -0.51069  -0.50518
 Alpha  occ. eigenvalues --   -0.49496  -0.49274  -0.48931  -0.48807  -0.48381
 Alpha  occ. eigenvalues --   -0.47653  -0.47543  -0.47219  -0.47167  -0.46939
 Alpha  occ. eigenvalues --   -0.46733  -0.46670  -0.46437  -0.46111  -0.45884
 Alpha  occ. eigenvalues --   -0.45677  -0.45569  -0.45326  -0.44856  -0.44502
 Alpha  occ. eigenvalues --   -0.44067  -0.43922  -0.43702  -0.43494  -0.43448
 Alpha  occ. eigenvalues --   -0.43193  -0.43175  -0.42753  -0.42561  -0.42466
 Alpha  occ. eigenvalues --   -0.42253  -0.42080  -0.41888  -0.41825  -0.41799
 Alpha  occ. eigenvalues --   -0.41526  -0.41314  -0.41110  -0.41038  -0.40821
 Alpha  occ. eigenvalues --   -0.40664  -0.40334  -0.39991  -0.39936  -0.39712
 Alpha  occ. eigenvalues --   -0.39266  -0.39200  -0.38965  -0.38555  -0.38426
 Alpha  occ. eigenvalues --   -0.38015  -0.37993  -0.37648  -0.37646  -0.37297
 Alpha  occ. eigenvalues --   -0.37096  -0.36986  -0.36732  -0.36484  -0.36396
 Alpha  occ. eigenvalues --   -0.36085  -0.36015  -0.35894  -0.35834  -0.35815
 Alpha  occ. eigenvalues --   -0.35572  -0.35466  -0.35312  -0.35036  -0.34709
 Alpha  occ. eigenvalues --   -0.34368  -0.34310  -0.34000  -0.33829  -0.33823
 Alpha  occ. eigenvalues --   -0.33752  -0.33416  -0.33203  -0.32717  -0.32448
 Alpha  occ. eigenvalues --   -0.32238  -0.31959  -0.31763  -0.31455  -0.31324
 Alpha  occ. eigenvalues --   -0.31071  -0.30987  -0.30824  -0.30224  -0.29870
 Alpha  occ. eigenvalues --   -0.29459  -0.28514  -0.28360  -0.28272  -0.28019
 Alpha  occ. eigenvalues --   -0.27635  -0.27184  -0.26664  -0.26575  -0.25950
 Alpha  occ. eigenvalues --   -0.24709  -0.23887  -0.23045  -0.22995  -0.19998
 Alpha  occ. eigenvalues --   -0.18564
 Alpha virt. eigenvalues --   -0.10547  -0.08243  -0.05238  -0.02753  -0.01838
 Alpha virt. eigenvalues --   -0.00199   0.00485   0.01386   0.02249   0.03451
 Alpha virt. eigenvalues --    0.03484   0.03911   0.04181   0.04621   0.04758

 Mulliken charges:
               1
     1  C   -0.069425
     2  C   -0.055671
     3  C   -0.072018
     4  C   -0.066212
     5  N   -0.190851
     6  C   -0.027257
     7  C   -0.136848
     8  C    0.086241
     9  C   -0.059666
    10  C    0.033100
    11  C    0.026368
    12  C    0.135089
    13  C    0.135390
    14  O   -0.167873
    15  O   -0.372499
    16  N   -0.135030
    17  C    0.205916
    18  C   -0.168711
    19  C    0.045434
    20  C    0.109263
    21  C    0.108392
    22  C   -0.095982
    23  C   -0.034017
    24  N   -0.284130
    25  C    0.043183
    26  C   -0.196353
    27  C   -0.068469
    28  C   -0.015463
    29  C    0.117256
    30  C    0.000757
    31  C   -0.001152
    32  N   -0.004007
    33  C    0.130310
    34  C   -0.140986
    35  C   -0.002946
    36  C    0.117756
    37  C    0.201232
    38  C    0.084509
    39  O   -0.253781
    40  C   -0.095140
    41  C    0.207294
    42  O   -0.202593
    43  O   -0.260791
    44  C    0.165613
    45  C    0.292096
    46  C   -0.116172
    47  C   -0.099404
    48  C   -0.076594
    49  C    0.095549
    50  C    0.049821
    51  C   -0.016944
    52  C    0.076535
    53  C    0.060459
    54  C   -0.054240
    55  C    0.053570
    56  C   -0.036481
    57  C   -0.075452
    58  C    0.008565
    59  C    0.045181
    60  C   -0.025850
    61  C    0.067058
    62  C   -0.106429
    63  C   -0.075293
    64  C    0.046123
    65  H   -0.085568
    66  H   -0.036223
    67  H   -0.050603
    68  H    0.072278
    69  H   -0.048983
    70  H    0.026444
    71  H    0.029202
    72  H    0.062663
    73  H    0.016003
    74  H   -0.007276
    75  H    0.042927
    76  H   -0.017586
    77  H    0.034150
    78  H    0.027480
    79  H    0.042374
    80  H    0.028588
    81  H    0.052255
    82  H    0.021737
    83  H    0.036507
    84  H    0.032071
    85  H    0.004865
    86  H    0.029519
    87  H    0.017682
    88  H    0.022577
    89  H    0.024602
    90  H    0.024598
    91  H    0.013963
    92  H    0.011996
    93  H    0.009414
    94  H    0.098502
    95  H    0.014649
    96  H    0.010638
    97  H    0.042599
    98  H    0.043650
    99  H   -0.015673
   100  H   -0.023162
   101  H    0.037420
   102  H    0.060441
   103  H    0.036052
   104  H    0.019830
   105  H   -0.022235
   106  H    0.006419
   107  H    0.015762
   108  H   -0.016912
   109  H   -0.002817
   110  H   -0.126606
   111  H    0.001979
   112  H    0.011576
   113  H    0.002866
   114  H    0.003329
   115  H   -0.006375
   116  H    0.040832
   117  H    0.002800
   118  H    0.009267
   119  H    0.003557
   120  H    0.009017
   121  H   -0.000411
   122  H    0.030904
   123  H    0.004319
   124  H   -0.027104
   125  H   -0.011058
   126  H   -0.028125
   127  H    0.012145
   128  H    0.002159
   129  H   -0.038731
   130  H    0.004468
   131  H    0.018091
   132  H    0.028552
   133  H    0.029287
   134  H    0.024506
   135  H    0.017412
   136  H    0.010988
   137  H    0.174636
   138  H    0.165569
 Sum of Mulliken charges =  -0.00000

 Dipole moment (field-independent basis, Debye):
    X=              2.4417    Y=              4.7723    Z=             -0.8365  Tot=              5.4256
 Quadrupole moment (field-independent basis, Debye-Ang):
   XX=           -359.2341   YY=           -391.3331   ZZ=           -394.9990
   XY=            -32.0522   XZ=             12.2060   YZ=             -4.1554

 Normal termination of Gaussian 16 at Fri Aug  9 23:58:00 2019.
