 Gaussian 16, Revision A.03,
 Gaussian 16:  ES64L-G16RevA.03 25-Dec-2016

 --------------------------
 # td=(NStates=1) B3LYP/SVP
 --------------------------

 --
 TD
 --
 Symbolic Z-matrix:
 Charge =  0 Multiplicity = 1

                         Standard orientation:
 ---------------------------------------------------------------------
 Center     Atomic      Atomic             Coordinates (Angstroms)
 Number     Number       Type             X           Y           Z
 ---------------------------------------------------------------------
      1          6           0       -5.081619   -2.070931    0.511884
      2          6           0       -4.790021    2.683696    1.467899
      3          6           0       -9.253350    3.380225   -0.273950
      4          6           0       -9.776312   -1.510336   -1.010601
      5          7           0       -5.101461    0.387288    0.744371
      6          6           0       -4.512491   -0.876956    0.870608
      7          6           0       -3.055326   -0.725473    1.278535
      8          6           0       -3.101231    0.721758    2.026228
      9          6           0       -4.422049    1.267488    1.443746
     10          6           0       -3.149221    0.691941    3.525099
     11          6           0       -2.079607   -0.599608    0.067485
     12          6           0       -0.596147   -0.647368    0.521145
     13          6           0        0.275813   -0.729321   -0.613942
     14          8           0       -0.002394   -1.028332   -1.699746
     15          8           0        1.679626   -0.676935   -0.207163
     16          7           0       -7.103132    2.827453    0.480673
     17          6           0       -5.977393    3.320306    1.088602
     18          6           0       -6.299703    4.765998    1.243393
     19          6           0       -7.483673    5.010393    0.665076
     20          6           0       -7.937934    3.796264    0.052539
     21          6           0       -5.296777    5.750529    1.542341
     22          6           0       -8.169113    6.294994    0.395807
     23          6           0       -9.133699    6.580300   -0.449248
     24          7           0       -9.126449    0.897496   -0.570844
     25          6           0       -9.744990    2.071170   -0.562125
     26          6           0      -11.163194    1.900232   -0.926959
     27          6           0      -11.336466    0.480011   -1.200706
     28          6           0      -10.021885   -0.130239   -0.933178
     29          6           0      -12.117708    2.930722   -1.089759
     30          6           0      -12.613072   -0.185794   -1.501973
     31          6           0      -12.778508   -0.631648   -3.023464
     32          7           0       -7.427753   -1.240349   -0.277650
     33          6           0       -8.526130   -2.032788   -0.739167
     34          6           0       -8.186503   -3.443830   -0.709830
     35          6           0       -6.852615   -3.452284   -0.202837
     36          6           0       -6.429056   -2.157242    0.001852
     37          6           0       -9.069132   -4.611716   -1.178382
     38          6           0       -5.797998   -4.403985    0.051147
     39          8           0       -5.698623   -5.574903    0.004737
     40          6           0       -4.513475   -3.415645    0.460504
     41          6           0       -3.887293   -3.916150    1.799522
     42          8           0       -4.078460   -3.543380    2.878646
     43          8           0       -2.976177   -4.952745    1.529854
     44          6           0       -2.622768   -5.740860    2.608318
     45          6           0        2.594035   -0.733540   -1.233983
     46          6           0        4.015020   -0.385391   -0.654070
     47          6           0        4.955495    0.391770   -1.072698
     48          6           0        4.808089    1.161309   -2.392758
     49          6           0        6.294666    0.450915   -0.386085
     50          6           0        7.485376   -0.043815   -1.158890
     51          6           0        8.821287   -0.036893   -0.233450
     52          6           0       10.080615   -0.590649   -1.029502
     53          6           0        9.980077   -2.111113   -1.331361
     54          6           0       11.319168   -0.247208   -0.125621
     55          6           0       12.664010   -0.516141   -0.744627
     56          6           0       13.838565   -0.135216    0.205208
     57          6           0       15.287376   -0.092911   -0.488179
     58          6           0       15.551464   -1.619431   -0.930877
     59          6           0       16.239561    0.411036    0.550189
     60          6           0       17.676280    0.598983   -0.057349
     61          6           0       18.601855    1.194264    0.912331
     62          6           0       20.068319    1.439661    0.318152
     63          6           0       20.053781    2.372352   -0.935167
     64          6           0       21.107452    1.886031    1.418195
     65          1           0       -3.978732    3.253201    2.000529
     66          1           0      -10.018550    4.071372   -0.485199
     67          1           0      -10.696273   -2.112293   -1.300234
     68          1           0       -2.783544   -1.540416    1.795168
     69          1           0       -2.247267    1.471701    1.943930
     70          1           0       -2.269267    0.269660    4.027158
     71          1           0       -3.208155    1.777501    4.050000
     72          1           0       -4.000701    0.143271    3.692873
     73          1           0       -2.230502   -1.461619   -0.533058
     74          1           0       -2.348417    0.322540   -0.577041
     75          1           0       -0.470695    0.339567    0.936200
     76          1           0       -0.346014   -1.295077    1.513002
     77          1           0       -4.453152    5.636558    0.791439
     78          1           0       -5.786656    6.761386    1.841347
     79          1           0       -4.662243    5.290535    2.547784
     80          1           0       -7.709843    7.057655    0.954952
     81          1           0       -9.415512    5.854461   -1.146058
     82          1           0       -9.516827    7.610289   -0.484614
     83          1           0      -12.405895    3.496764   -0.030195
     84          1           0      -12.169940    3.832419   -1.859410
     85          1           0      -13.132480    2.396628   -1.331721
     86          1           0      -12.657263   -1.045005   -0.828411
     87          1           0      -13.551349    0.248267   -1.262381
     88          1           0      -12.590553    0.323087   -3.591567
     89          1           0      -11.913396   -1.352477   -3.393651
     90          1           0      -13.674584   -1.131136   -3.104921
     91          1           0       -9.901625   -4.662711   -0.493712
     92          1           0       -9.377173   -4.421821   -2.317706
     93          1           0       -8.399916   -5.491569   -1.023043
     94          1           0       -3.818236   -3.271777   -0.421646
     95          1           0       -1.892410   -6.506687    2.069849
     96          1           0       -2.211249   -5.219985    3.582224
     97          1           0       -3.561381   -6.354250    2.905094
     98          1           0        2.734426   -1.899589   -1.621608
     99          1           0        2.267646   -0.119924   -1.951978
    100          1           0        4.294778   -0.902278    0.223872
    101          1           0        5.265998    2.176024   -2.286936
    102          1           0        5.416201    1.074927   -3.473436
    103          1           0        3.879836    1.222196   -2.803459
    104          1           0        6.218949    1.478437   -0.011018
    105          1           0        6.431429   -0.395840    0.421912
    106          1           0        7.271814   -1.058663   -1.495628
    107          1           0        7.553690    0.616746   -2.081309
    108          1           0        9.081000    1.031422   -0.124532
    109          1           0        8.537378   -0.544944    0.810674
    110          1           0       10.219572   -0.019481   -2.027521
    111          1           0        9.227594   -2.403889   -1.995165
    112          1           0       10.850575   -2.601255   -1.856746
    113          1           0       10.057306   -2.469755   -0.199730
    114          1           0       11.141498    0.741750    0.290096
    115          1           0       11.195269   -0.778470    0.859240
    116          1           0       12.858695   -1.543214   -1.008557
    117          1           0       12.739419    0.040078   -1.648931
    118          1           0       13.933779    0.785330    0.573837
    119          1           0       13.772482   -0.746881    1.015610
    120          1           0       15.026286    0.706625   -1.277669
    121          1           0       15.001670   -2.129955   -1.894920
    122          1           0       16.443411   -1.532048   -1.463582
    123          1           0       15.491222   -2.412601   -0.138849
    124          1           0       16.017530    1.328875    0.941529
    125          1           0       16.357910   -0.146939    1.419836
    126          1           0       18.040737   -0.375784   -0.531745
    127          1           0       17.649199    1.237875   -0.993155
    128          1           0       18.009786    2.240199    1.281499
    129          1           0       18.767835    0.780127    1.938690
    130          1           0       20.556392    0.375052   -0.056266
    131          1           0       19.832174    3.445823   -0.816788
    132          1           0       21.124297    2.462731   -1.438665
    133          1           0       19.402276    1.995884   -1.857433
    134          1           0       21.027061    1.269618    2.389141
    135          1           0       22.142681    1.777745    1.056206
    136          1           0       20.839997    2.945107    1.534185
    137          1           0       -7.430711    1.853276    0.117179
    138          1           0       -7.580551   -0.234442    0.018265
 ---------------------------------------------------------------------

 SCF Done:  E(RB3LYP) =  -2733.08453871     A.U. after   16 cycles

 Excitation energies and oscillator strengths:

 Excited State   1:      Singlet-A      2.0906 eV  593.04 nm  f=0.1424  <S**2>=0.000
     235 -> 237       -0.23002
     235 -> 238        0.25698
     236 -> 237        0.58485
     236 -> 238        0.18189
 This state for optimization and/or second-order correction.
 Total Energy, E(TD-HF/TD-DFT) =  -2733.00770913
 Copying the excited state density for this state as the 1-particle RhoCI density.

 The electronic state is 1-A.
 Alpha  occ. eigenvalues --  -19.16361 -19.15319 -19.14117 -19.13927 -19.13495
 Alpha  occ. eigenvalues --  -14.37457 -14.37150 -14.32405 -14.30753 -10.31913
 Alpha  occ. eigenvalues --  -10.31633 -10.28649 -10.25125 -10.25086 -10.23970
 Alpha  occ. eigenvalues --  -10.23890 -10.23863 -10.23554 -10.23438 -10.22872
 Alpha  occ. eigenvalues --  -10.22198 -10.22190 -10.22137 -10.21754 -10.21655
 Alpha  occ. eigenvalues --  -10.21461 -10.21398 -10.21371 -10.21228 -10.21012
 Alpha  occ. eigenvalues --  -10.20788 -10.20638 -10.20636 -10.20398 -10.20326
 Alpha  occ. eigenvalues --  -10.20301 -10.20066 -10.19850 -10.19828 -10.19756
 Alpha  occ. eigenvalues --  -10.19732 -10.19675 -10.19620 -10.19519 -10.19424
 Alpha  occ. eigenvalues --  -10.19279 -10.19260 -10.19245 -10.18961 -10.18939
 Alpha  occ. eigenvalues --  -10.18920 -10.18820 -10.18752 -10.18701 -10.18672
 Alpha  occ. eigenvalues --  -10.18567 -10.18564 -10.18131 -10.18113 -10.17555
 Alpha  occ. eigenvalues --  -10.16952 -10.16939 -10.16827 -10.15290  -1.10475
 Alpha  occ. eigenvalues --   -1.09953  -1.05689  -1.02361  -1.01658  -0.99120
 Alpha  occ. eigenvalues --   -0.97161  -0.94424  -0.92981  -0.85518  -0.82940
 Alpha  occ. eigenvalues --   -0.82014  -0.81674  -0.81477  -0.81158  -0.80209
 Alpha  occ. eigenvalues --   -0.79804  -0.79620  -0.79193  -0.78289  -0.78121
 Alpha  occ. eigenvalues --   -0.76950  -0.75769  -0.75597  -0.75045  -0.74016
 Alpha  occ. eigenvalues --   -0.73583  -0.72561  -0.72005  -0.71328  -0.70835
 Alpha  occ. eigenvalues --   -0.69758  -0.68958  -0.68309  -0.67337  -0.67208
 Alpha  occ. eigenvalues --   -0.66609  -0.66505  -0.66312  -0.66240  -0.65071
 Alpha  occ. eigenvalues --   -0.63757  -0.62715  -0.62516  -0.62042  -0.61262
 Alpha  occ. eigenvalues --   -0.60722  -0.58871  -0.58339  -0.58071  -0.57511
 Alpha  occ. eigenvalues --   -0.57172  -0.56256  -0.55857  -0.55436  -0.54836
 Alpha  occ. eigenvalues --   -0.54542  -0.54400  -0.53803  -0.53651  -0.53503
 Alpha  occ. eigenvalues --   -0.53039  -0.52258  -0.51938  -0.51432  -0.50795
 Alpha  occ. eigenvalues --   -0.50129  -0.49804  -0.49178  -0.48589  -0.48312
 Alpha  occ. eigenvalues --   -0.48065  -0.47757  -0.47643  -0.47496  -0.47399
 Alpha  occ. eigenvalues --   -0.46988  -0.46558  -0.46297  -0.45867  -0.45399
 Alpha  occ. eigenvalues --   -0.45284  -0.45190  -0.45023  -0.44989  -0.44718
 Alpha  occ. eigenvalues --   -0.44642  -0.44426  -0.44380  -0.43921  -0.43738
 Alpha  occ. eigenvalues --   -0.43677  -0.43499  -0.43384  -0.43189  -0.42884
 Alpha  occ. eigenvalues --   -0.42645  -0.42157  -0.42087  -0.41864  -0.41523
 Alpha  occ. eigenvalues --   -0.41136  -0.41061  -0.40891  -0.40694  -0.40432
 Alpha  occ. eigenvalues --   -0.40300  -0.40246  -0.39928  -0.39722  -0.39697
 Alpha  occ. eigenvalues --   -0.39492  -0.39340  -0.39105  -0.38542  -0.38384
 Alpha  occ. eigenvalues --   -0.38108  -0.38090  -0.38009  -0.37862  -0.37589
 Alpha  occ. eigenvalues --   -0.37424  -0.37322  -0.37046  -0.36763  -0.36612
 Alpha  occ. eigenvalues --   -0.36548  -0.36530  -0.36297  -0.36098  -0.36041
 Alpha  occ. eigenvalues --   -0.35761  -0.35208  -0.35160  -0.35040  -0.34893
 Alpha  occ. eigenvalues --   -0.34615  -0.34402  -0.34175  -0.34145  -0.33645
 Alpha  occ. eigenvalues --   -0.33552  -0.33008  -0.32790  -0.32633  -0.32372
 Alpha  occ. eigenvalues --   -0.32072  -0.32039  -0.31801  -0.31470  -0.31051
 Alpha  occ. eigenvalues --   -0.30766  -0.30479  -0.30436  -0.29813  -0.29538
 Alpha  occ. eigenvalues --   -0.29436  -0.29349  -0.29096  -0.28247  -0.28010
 Alpha  occ. eigenvalues --   -0.27014  -0.26828  -0.26491  -0.26457  -0.26087
 Alpha  occ. eigenvalues --   -0.25539  -0.24406  -0.24261  -0.21932  -0.20402
 Alpha  occ. eigenvalues --   -0.19306
 Alpha virt. eigenvalues --   -0.10599  -0.08307  -0.04798  -0.01855  -0.01295
 Alpha virt. eigenvalues --   -0.00675   0.00204   0.01331   0.01857   0.03054
 Alpha virt. eigenvalues --    0.03564   0.04429   0.04508   0.04646   0.04843

 Mulliken charges:
               1
     1  C   -0.009803
     2  C   -0.090365
     3  C   -0.032153
     4  C   -0.119065
     5  N   -0.145611
     6  C   -0.077892
     7  C    0.058180
     8  C   -0.084079
     9  C   -0.035683
    10  C    0.062412
    11  C    0.048305
    12  C    0.033751
    13  C    0.185901
    14  O   -0.157987
    15  O   -0.373853
    16  N   -0.100560
    17  C    0.182870
    18  C   -0.123553
    19  C    0.026380
    20  C    0.051792
    21  C    0.007792
    22  C   -0.001299
    23  C    0.022896
    24  N   -0.278737
    25  C    0.037195
    26  C   -0.070546
    27  C   -0.052847
    28  C    0.063384
    29  C   -0.062344
    30  C    0.034867
    31  C   -0.004671
    32  N   -0.103927
    33  C    0.135847
    34  C   -0.170000
    35  C   -0.020750
    36  C    0.102651
    37  C    0.093839
    38  C    0.054206
    39  O   -0.114519
    40  C   -0.075913
    41  C    0.212424
    42  O   -0.151687
    43  O   -0.319910
    44  C    0.106037
    45  C    0.330139
    46  C   -0.091571
    47  C   -0.086666
    48  C    0.032413
    49  C    0.037215
    50  C    0.016429
    51  C   -0.003390
    52  C   -0.091337
    53  C    0.027242
    54  C    0.021458
    55  C    0.148291
    56  C    0.082314
    57  C   -0.098456
    58  C    0.012799
    59  C    0.130287
    60  C    0.005984
    61  C   -0.002535
    62  C   -0.121632
    63  C   -0.044027
    64  C    0.020562
    65  H   -0.015062
    66  H   -0.045012
    67  H    0.012495
    68  H   -0.066693
    69  H    0.011143
    70  H    0.017288
    71  H    0.020669
    72  H    0.002958
    73  H   -0.000319
    74  H    0.032685
    75  H    0.011661
    76  H    0.080832
    77  H    0.054117
    78  H    0.058319
    79  H    0.027085
    80  H   -0.049139
    81  H    0.012283
    82  H    0.027042
    83  H    0.032084
    84  H    0.051113
    85  H    0.011688
    86  H   -0.003811
    87  H   -0.009321
    88  H    0.030629
    89  H    0.019822
    90  H    0.006003
    91  H    0.033505
    92  H    0.060681
    93  H    0.046800
    94  H    0.076282
    95  H    0.046472
    96  H    0.047630
    97  H    0.029504
    98  H    0.023523
    99  H   -0.039483
   100  H   -0.035730
   101  H   -0.002434
   102  H    0.021716
   103  H   -0.021839
   104  H    0.015162
   105  H    0.004991
   106  H    0.002619
   107  H   -0.002026
   108  H    0.003945
   109  H    0.025636
   110  H   -0.000077
   111  H    0.001744
   112  H    0.006063
   113  H    0.019074
   114  H   -0.027953
   115  H   -0.025410
   116  H   -0.010030
   117  H   -0.033257
   118  H   -0.065285
   119  H   -0.046057
   120  H    0.009745
   121  H    0.014885
   122  H   -0.012085
   123  H    0.033106
   124  H   -0.044711
   125  H   -0.032856
   126  H    0.000879
   127  H   -0.004099
   128  H   -0.004594
   129  H   -0.003026
   130  H    0.015457
   131  H    0.013994
   132  H    0.008247
   133  H    0.033563
   134  H    0.024734
   135  H    0.015088
   136  H    0.012481
   137  H    0.186965
   138  H    0.177408
 Sum of Mulliken charges =  -0.00000

 Dipole moment (field-independent basis, Debye):
    X=             -0.1296    Y=              4.1097    Z=              0.5082  Tot=              4.1430
 Quadrupole moment (field-independent basis, Debye-Ang):
   XX=           -337.7491   YY=           -383.6726   ZZ=           -396.2653
   XY=            -12.3647   XZ=              9.5961   YZ=              0.4638

 Normal termination of Gaussian 16 at Sat Aug 10 23:54:06 2019.
