 Gaussian 16, Revision A.03,
 Gaussian 16:  ES64L-G16RevA.03 25-Dec-2016

 --------------------------
 # td=(NStates=1) B3LYP/SVP
 --------------------------

 --
 TD
 --
 Symbolic Z-matrix:
 Charge =  0 Multiplicity = 1

                         Standard orientation:
 ---------------------------------------------------------------------
 Center     Atomic      Atomic             Coordinates (Angstroms)
 Number     Number       Type             X           Y           Z
 ---------------------------------------------------------------------
      1          6           0       -5.115458   -1.896726    0.428487
      2          6           0       -4.741305    2.776586    1.279614
      3          6           0       -9.420587    3.216032   -0.051780
      4          6           0       -9.851533   -1.564292   -0.884106
      5          7           0       -5.249767    0.555326    0.824619
      6          6           0       -4.552213   -0.629122    0.758068
      7          6           0       -3.080184   -0.556286    1.195180
      8          6           0       -3.036569    0.981105    1.799051
      9          6           0       -4.418275    1.457784    1.308399
     10          6           0       -2.947743    0.927619    3.366092
     11          6           0       -2.117217   -0.649517    0.028889
     12          6           0       -0.687290   -0.684700    0.534104
     13          6           0        0.286761   -1.008082   -0.631484
     14          8           0        0.059266   -1.399964   -1.691377
     15          8           0        1.571615   -0.632688   -0.210239
     16          7           0       -7.119802    2.812521    0.542386
     17          6           0       -5.915467    3.436015    0.934323
     18          6           0       -6.227513    4.824277    0.861405
     19          6           0       -7.520063    4.956307    0.385782
     20          6           0       -8.096298    3.660695    0.174353
     21          6           0       -5.352233    5.831091    1.278668
     22          6           0       -8.363382    6.148265    0.238487
     23          6           0       -9.253452    6.526918   -0.669900
     24          7           0       -9.211419    0.781525   -0.506485
     25          6           0       -9.886599    1.909759   -0.427171
     26          6           0      -11.365140    1.721693   -0.885943
     27          6           0      -11.511698    0.392952   -1.027772
     28          6           0      -10.177711   -0.160815   -0.837690
     29          6           0      -12.318530    2.884031   -1.033260
     30          6           0      -12.695765   -0.415096   -1.432841
     31          6           0      -12.799499   -0.736372   -2.977425
     32          7           0       -7.465869   -1.312157   -0.318378
     33          6           0       -8.541507   -2.127365   -0.554632
     34          6           0       -8.124504   -3.444291   -0.548077
     35          6           0       -6.746186   -3.371998   -0.196884
     36          6           0       -6.414325   -2.057627    0.021666
     37          6           0       -8.973425   -4.806631   -0.902231
     38          6           0       -5.612198   -4.217163    0.014394
     39          8           0       -5.523571   -5.421753    0.046973
     40          6           0       -4.486371   -3.255530    0.335065
     41          6           0       -3.665985   -3.688388    1.696085
     42          8           0       -3.963598   -3.161332    2.748464
     43          8           0       -2.893301   -4.668584    1.535083
     44          6           0       -2.390698   -5.317534    2.807183
     45          6           0        2.543307   -0.882431   -1.208375
     46          6           0        3.915580   -0.605851   -0.544423
     47          6           0        4.852736    0.044711   -1.034094
     48          6           0        4.931484    0.759839   -2.377439
     49          6           0        6.235819    0.241817   -0.410098
     50          6           0        7.500214   -0.316670   -1.041676
     51          6           0        8.814853   -0.185610   -0.229284
     52          6           0       10.139448   -0.676981   -0.857293
     53          6           0       10.000433   -2.289395   -1.023145
     54          6           0       11.366568   -0.366001    0.081752
     55          6           0       12.689295   -0.311687   -0.696231
     56          6           0       13.856604    0.003528    0.155991
     57          6           0       15.219681   -0.184674   -0.437064
     58          6           0       15.762940   -1.708984   -0.612689
     59          6           0       16.246950    0.620888    0.385277
     60          6           0       17.685812    0.643219   -0.104332
     61          6           0       18.499815    1.660675    0.585912
     62          6           0       20.059930    1.566166    0.273799
     63          6           0       20.492175    2.083304   -1.194554
     64          6           0       20.939167    2.234528    1.350540
     65          1           0       -3.831513    3.445559    1.416021
     66          1           0      -10.148402    3.956578   -0.056089
     67          1           0      -10.732593   -2.197444   -0.937609
     68          1           0       -2.784923   -1.361663    1.922620
     69          1           0       -2.254035    1.428463    1.239986
     70          1           0       -1.905386    0.580181    3.735301
     71          1           0       -3.070380    1.795800    3.662613
     72          1           0       -3.691327    0.323705    3.738661
     73          1           0       -2.443953   -1.591082   -0.646271
     74          1           0       -2.171344    0.120345   -0.652860
     75          1           0       -0.481217    0.346927    0.982166
     76          1           0       -0.388122   -1.416570    1.388219
     77          1           0       -4.193980    5.591550    1.185770
     78          1           0       -5.658357    6.929361    0.898276
     79          1           0       -5.402638    5.798610    2.439655
     80          1           0       -7.853259    6.995125    0.844239
     81          1           0       -9.629875    5.861641   -1.580659
     82          1           0       -9.668800    7.524141   -0.592532
     83          1           0      -12.753042    3.144615   -0.079032
     84          1           0      -11.936497    3.600594   -1.814754
     85          1           0      -13.401745    2.463512   -1.533262
     86          1           0      -12.694734   -1.392227   -0.996767
     87          1           0      -13.562360    0.190588   -1.171080
     88          1           0      -12.865672    0.235431   -3.520525
     89          1           0      -11.800734   -1.065907   -3.073992
     90          1           0      -13.552389   -1.573917   -3.416826
     91          1           0       -9.897873   -4.787469   -0.387566
     92          1           0       -9.271946   -4.813744   -1.854500
     93          1           0       -8.327246   -5.687429   -0.571377
     94          1           0       -3.704276   -3.257624   -0.350334
     95          1           0       -1.491341   -5.928590    2.666552
     96          1           0       -2.254968   -4.335329    3.625281
     97          1           0       -3.392236   -5.810273    3.279232
     98          1           0        2.659401   -1.976408   -1.374097
     99          1           0        2.289446   -0.525474   -2.184539
    100          1           0        3.976099   -1.116055    0.486968
    101          1           0        5.142256    1.905819   -2.350838
    102          1           0        5.524359    0.362260   -3.131072
    103          1           0        4.121382    0.706714   -3.048178
    104          1           0        6.412117    1.327388   -0.378720
    105          1           0        6.184170    0.000309    0.710239
    106          1           0        7.081989   -1.371858   -1.236293
    107          1           0        7.641130    0.053587   -2.019365
    108          1           0        8.925358    0.868430    0.026500
    109          1           0        8.644896   -0.670682    0.759131
    110          1           0       10.139555   -0.268693   -1.931779
    111          1           0        9.008333   -2.619331   -1.463066
    112          1           0       10.802921   -2.673864   -1.410484
    113          1           0       10.135287   -2.830887   -0.031688
    114          1           0       11.129812    0.683864    0.632283
    115          1           0       11.523430   -1.156802    0.993502
    116          1           0       12.880230   -1.329830   -1.428823
    117          1           0       12.858627    0.561283   -1.478006
    118          1           0       14.059555    1.127607    0.539408
    119          1           0       13.892097   -0.531189    1.086953
    120          1           0       15.279022    0.110914   -1.400419
    121          1           0       14.846075   -2.125601   -1.107742
    122          1           0       16.574056   -1.900738   -1.342713
    123          1           0       15.815979   -2.322521    0.267079
    124          1           0       15.767826    1.645654    0.588221
    125          1           0       16.240616    0.209913    1.416964
    126          1           0       18.236659   -0.224448    0.293093
    127          1           0       17.629156    0.763211   -1.248748
    128          1           0       18.256855    2.825988    0.522435
    129          1           0       18.376769    1.703226    1.773902
    130          1           0       20.324989    0.520067    0.385739
    131          1           0       20.056516    2.956664   -1.339673
    132          1           0       21.580372    1.943960   -1.274244
    133          1           0       20.161888    1.411585   -2.032454
    134          1           0       20.890197    1.707379    2.238834
    135          1           0       21.977972    2.383640    1.014657
    136          1           0       20.681239    3.303085    1.666488
    137          1           0       -7.375482    1.763019    0.500214
    138          1           0       -7.607174   -0.264498   -0.384488
 ---------------------------------------------------------------------

 SCF Done:  E(RB3LYP) =  -2733.09659254     A.U. after   17 cycles

 Excitation energies and oscillator strengths:

 Excited State   1:      Singlet-A      2.0590 eV  602.17 nm  f=0.1915  <S**2>=0.000
     235 -> 237       -0.21347
     235 -> 238       -0.28264
     236 -> 237        0.59967
     236 -> 238       -0.11177
 This state for optimization and/or second-order correction.
 Total Energy, E(TD-HF/TD-DFT) =  -2733.02092669
 Copying the excited state density for this state as the 1-particle RhoCI density.

 The electronic state is 1-A.
 Alpha  occ. eigenvalues --  -19.19783 -19.16817 -19.14135 -19.11625 -19.11017
 Alpha  occ. eigenvalues --  -14.36484 -14.36124 -14.32520 -14.30923 -10.31593
 Alpha  occ. eigenvalues --  -10.31565 -10.28280 -10.26340 -10.23998 -10.23885
 Alpha  occ. eigenvalues --  -10.23151 -10.22940 -10.22801 -10.22373 -10.22318
 Alpha  occ. eigenvalues --  -10.22007 -10.21775 -10.21632 -10.21594 -10.21236
 Alpha  occ. eigenvalues --  -10.21079 -10.20779 -10.20723 -10.20678 -10.20653
 Alpha  occ. eigenvalues --  -10.20470 -10.20447 -10.20320 -10.20241 -10.20168
 Alpha  occ. eigenvalues --  -10.19859 -10.19770 -10.19691 -10.19555 -10.19491
 Alpha  occ. eigenvalues --  -10.19473 -10.19456 -10.19370 -10.19201 -10.19100
 Alpha  occ. eigenvalues --  -10.18907 -10.18898 -10.18830 -10.18727 -10.18621
 Alpha  occ. eigenvalues --  -10.18517 -10.18440 -10.18393 -10.18378 -10.18113
 Alpha  occ. eigenvalues --  -10.18103 -10.17966 -10.17900 -10.17662 -10.17394
 Alpha  occ. eigenvalues --  -10.17371 -10.17164 -10.17146 -10.17133  -1.12050
 Alpha  occ. eigenvalues --   -1.10796  -1.02504  -1.02130  -1.00510  -0.99053
 Alpha  occ. eigenvalues --   -0.97868  -0.94600  -0.94170  -0.85740  -0.82524
 Alpha  occ. eigenvalues --   -0.82398  -0.82076  -0.81427  -0.80803  -0.80279
 Alpha  occ. eigenvalues --   -0.80038  -0.79010  -0.78953  -0.78166  -0.77132
 Alpha  occ. eigenvalues --   -0.76548  -0.76007  -0.74990  -0.74801  -0.74297
 Alpha  occ. eigenvalues --   -0.73228  -0.73055  -0.72315  -0.71486  -0.70658
 Alpha  occ. eigenvalues --   -0.70077  -0.69784  -0.69075  -0.68169  -0.67849
 Alpha  occ. eigenvalues --   -0.67656  -0.67128  -0.66730  -0.66247  -0.65511
 Alpha  occ. eigenvalues --   -0.63821  -0.62661  -0.62318  -0.61713  -0.61235
 Alpha  occ. eigenvalues --   -0.60799  -0.58792  -0.58281  -0.57887  -0.57386
 Alpha  occ. eigenvalues --   -0.56427  -0.56282  -0.56210  -0.55803  -0.55162
 Alpha  occ. eigenvalues --   -0.55130  -0.54969  -0.54778  -0.53250  -0.52734
 Alpha  occ. eigenvalues --   -0.52576  -0.51898  -0.51633  -0.50744  -0.50532
 Alpha  occ. eigenvalues --   -0.49909  -0.49501  -0.49299  -0.48840  -0.48186
 Alpha  occ. eigenvalues --   -0.47511  -0.47382  -0.47297  -0.47169  -0.46857
 Alpha  occ. eigenvalues --   -0.46619  -0.46231  -0.46074  -0.45967  -0.45503
 Alpha  occ. eigenvalues --   -0.45206  -0.45041  -0.44897  -0.44844  -0.44605
 Alpha  occ. eigenvalues --   -0.44387  -0.44257  -0.43967  -0.43798  -0.43749
 Alpha  occ. eigenvalues --   -0.43252  -0.43157  -0.42943  -0.42894  -0.42665
 Alpha  occ. eigenvalues --   -0.42495  -0.42336  -0.42212  -0.42116  -0.41986
 Alpha  occ. eigenvalues --   -0.41441  -0.40956  -0.40949  -0.40749  -0.40457
 Alpha  occ. eigenvalues --   -0.40280  -0.40022  -0.39838  -0.39675  -0.39352
 Alpha  occ. eigenvalues --   -0.39315  -0.38984  -0.38929  -0.38626  -0.38520
 Alpha  occ. eigenvalues --   -0.38333  -0.38247  -0.37725  -0.37656  -0.37487
 Alpha  occ. eigenvalues --   -0.37287  -0.37210  -0.37050  -0.36787  -0.36755
 Alpha  occ. eigenvalues --   -0.36589  -0.36164  -0.36104  -0.35936  -0.35898
 Alpha  occ. eigenvalues --   -0.35430  -0.35411  -0.35295  -0.35010  -0.34910
 Alpha  occ. eigenvalues --   -0.34625  -0.34494  -0.34053  -0.33946  -0.33704
 Alpha  occ. eigenvalues --   -0.33512  -0.33209  -0.32760  -0.32686  -0.32268
 Alpha  occ. eigenvalues --   -0.31965  -0.31759  -0.31600  -0.31206  -0.31072
 Alpha  occ. eigenvalues --   -0.30914  -0.30803  -0.30652  -0.30011  -0.29797
 Alpha  occ. eigenvalues --   -0.29637  -0.29385  -0.29185  -0.28739  -0.28184
 Alpha  occ. eigenvalues --   -0.27897  -0.27528  -0.26948  -0.26193  -0.26085
 Alpha  occ. eigenvalues --   -0.25539  -0.24409  -0.23882  -0.23409  -0.19476
 Alpha  occ. eigenvalues --   -0.18973
 Alpha virt. eigenvalues --   -0.10416  -0.07235  -0.03944  -0.01718   0.00274
 Alpha virt. eigenvalues --    0.00523   0.01428   0.02294   0.02649   0.03714
 Alpha virt. eigenvalues --    0.03897   0.04273   0.04427   0.04803   0.05228

 Mulliken charges:
               1
     1  C   -0.033775
     2  C   -0.065375
     3  C   -0.061553
     4  C   -0.049772
     5  N   -0.134742
     6  C   -0.025326
     7  C   -0.111142
     8  C   -0.011034
     9  C   -0.073697
    10  C    0.225263
    11  C    0.050597
    12  C   -0.015512
    13  C    0.168804
    14  O   -0.155603
    15  O   -0.343344
    16  N   -0.119437
    17  C    0.144487
    18  C   -0.045725
    19  C    0.006635
    20  C    0.079372
    21  C   -0.022145
    22  C   -0.054595
    23  C   -0.053161
    24  N   -0.221388
    25  C    0.034467
    26  C   -0.159468
    27  C   -0.083656
    28  C    0.026277
    29  C    0.056069
    30  C    0.098020
    31  C   -0.016215
    32  N   -0.024625
    33  C    0.060509
    34  C   -0.160154
    35  C   -0.035762
    36  C    0.100976
    37  C    0.171043
    38  C    0.066840
    39  O   -0.171599
    40  C    0.020064
    41  C    0.142775
    42  O   -0.254906
    43  O   -0.225977
    44  C    0.072799
    45  C    0.262872
    46  C   -0.114363
    47  C   -0.045433
    48  C    0.084802
    49  C    0.047901
    50  C    0.023069
    51  C    0.049964
    52  C   -0.070417
    53  C    0.072460
    54  C   -0.009109
    55  C   -0.025466
    56  C    0.035793
    57  C   -0.037840
    58  C    0.016779
    59  C   -0.020712
    60  C    0.132552
    61  C   -0.080817
    62  C   -0.094242
    63  C    0.074008
    64  C    0.041982
    65  H   -0.016273
    66  H   -0.050406
    67  H   -0.025067
    68  H    0.031408
    69  H   -0.018963
    70  H    0.019148
    71  H   -0.076014
    72  H    0.008656
    73  H    0.033322
    74  H   -0.022284
    75  H    0.043688
    76  H    0.045875
    77  H    0.039456
    78  H    0.054742
    79  H    0.039345
    80  H    0.005991
    81  H    0.051805
    82  H    0.025600
    83  H    0.038386
    84  H    0.054125
    85  H    0.012041
    86  H   -0.002956
    87  H   -0.002972
    88  H    0.012676
    89  H   -0.005075
    90  H    0.043495
    91  H   -0.004084
    92  H   -0.012238
    93  H    0.057561
    94  H    0.013391
    95  H    0.072681
    96  H    0.083402
    97  H    0.082203
    98  H    0.006899
    99  H    0.008121
   100  H    0.006697
   101  H    0.026835
   102  H   -0.003932
   103  H   -0.041806
   104  H   -0.017955
   105  H   -0.012015
   106  H    0.003306
   107  H   -0.020109
   108  H   -0.014604
   109  H   -0.008793
   110  H    0.012312
   111  H    0.028795
   112  H   -0.053361
   113  H   -0.011803
   114  H    0.020886
   115  H    0.031684
   116  H    0.038596
   117  H    0.015019
   118  H    0.005757
   119  H   -0.028431
   120  H   -0.051933
   121  H   -0.023168
   122  H    0.023283
   123  H   -0.001079
   124  H   -0.004591
   125  H   -0.018215
   126  H    0.003760
   127  H    0.017864
   128  H   -0.007941
   129  H   -0.001428
   130  H   -0.015759
   131  H   -0.015823
   132  H    0.010952
   133  H   -0.000989
   134  H   -0.009259
   135  H   -0.000708
   136  H   -0.003284
   137  H    0.174168
   138  H    0.160295
 Sum of Mulliken charges =  -0.00000

 Dipole moment (field-independent basis, Debye):
    X=              1.5861    Y=              3.3159    Z=              0.9124  Tot=              3.7873
 Quadrupole moment (field-independent basis, Debye-Ang):
   XX=           -364.3151   YY=           -382.8036   ZZ=           -391.3380
   XY=            -28.0738   XZ=              4.3126   YZ=             -6.0782

 Normal termination of Gaussian 16 at Mon Aug 19 00:57:43 2019.
