 Gaussian 16, Revision A.03,
 Gaussian 16:  ES64L-G16RevA.03 25-Dec-2016

 --------------------------
 # td=(NStates=1) B3LYP/SVP
 --------------------------

 --
 TD
 --
 Symbolic Z-matrix:
 Charge =  0 Multiplicity = 1

                         Standard orientation:
 ---------------------------------------------------------------------
 Center     Atomic      Atomic             Coordinates (Angstroms)
 Number     Number       Type             X           Y           Z
 ---------------------------------------------------------------------
      1          6           0       -5.194199   -1.978294    0.403270
      2          6           0       -4.713565    2.747658    1.485317
      3          6           0       -9.258855    3.476648   -0.156143
      4          6           0       -9.887999   -1.285494   -0.985663
      5          7           0       -5.182650    0.429271    0.819507
      6          6           0       -4.695236   -0.726961    0.768555
      7          6           0       -3.187151   -0.713408    1.364626
      8          6           0       -3.094540    0.760994    1.899773
      9          6           0       -4.399422    1.385572    1.405686
     10          6           0       -2.931292    0.681453    3.417131
     11          6           0       -2.097212   -0.871428    0.211188
     12          6           0       -0.650593   -0.879712    0.676763
     13          6           0        0.438954   -1.318875   -0.412302
     14          8           0        0.159107   -1.864977   -1.493490
     15          8           0        1.634919   -0.974746   -0.074767
     16          7           0       -6.964663    2.762283    0.730673
     17          6           0       -5.831870    3.404775    1.241267
     18          6           0       -6.103200    4.817868    0.963991
     19          6           0       -7.259903    5.051168    0.501754
     20          6           0       -7.909392    3.751614    0.274994
     21          6           0       -4.921079    5.801085    1.521516
     22          6           0       -7.825928    6.311273    0.318392
     23          6           0       -8.804257    6.793432   -0.444742
     24          7           0       -9.216753    1.016641   -0.447454
     25          6           0       -9.824156    2.271055   -0.545203
     26          6           0      -11.172739    2.129387   -1.119703
     27          6           0      -11.414521    0.831935   -1.314364
     28          6           0      -10.144207    0.209272   -0.902853
     29          6           0      -12.023076    3.224506   -1.394177
     30          6           0      -12.598821    0.222240   -1.730960
     31          6           0      -12.646047   -0.317799   -3.215209
     32          7           0       -7.569222   -1.156650   -0.294522
     33          6           0       -8.653249   -1.856260   -0.672972
     34          6           0       -8.253880   -3.288986   -0.784856
     35          6           0       -6.960370   -3.325457   -0.242799
     36          6           0       -6.533666   -2.026802    0.019576
     37          6           0       -9.268556   -4.452817   -1.064031
     38          6           0       -5.930942   -4.377326   -0.035576
     39          8           0       -5.908086   -5.600586   -0.286319
     40          6           0       -4.630424   -3.452084    0.352719
     41          6           0       -4.109861   -3.931417    1.609838
     42          8           0       -4.368572   -3.565636    2.740106
     43          8           0       -3.306382   -5.002740    1.354271
     44          6           0       -2.780043   -5.662050    2.573627
     45          6           0        2.641768   -1.316274   -1.042132
     46          6           0        4.038496   -0.943247   -0.415376
     47          6           0        4.970956   -0.214570   -0.994385
     48          6           0        4.866770    0.519199   -2.342327
     49          6           0        6.227293    0.058645   -0.177276
     50          6           0        7.535768   -0.472734   -0.800828
     51          6           0        8.701423   -0.323560    0.088850
     52          6           0       10.048025   -0.734332   -0.639289
     53          6           0        9.968025   -2.272436   -0.935375
     54          6           0       11.250956   -0.306585    0.238777
     55          6           0       12.641111   -0.452829   -0.526972
     56          6           0       13.906047   -0.017758    0.375458
     57          6           0       15.165698    0.052400   -0.459792
     58          6           0       15.737868   -1.475158   -0.699599
     59          6           0       16.253286    0.852954    0.387650
     60          6           0       17.578782    1.019632   -0.313285
     61          6           0       18.667397    1.713772    0.495279
     62          6           0       20.108775    1.712386   -0.040557
     63          6           0       20.382504    2.028992   -1.456836
     64          6           0       21.115837    2.380157    0.969113
     65          1           0       -3.694833    3.427328    1.675491
     66          1           0       -9.984607    4.266317   -0.234793
     67          1           0      -10.748675   -1.867515   -1.312397
     68          1           0       -3.145192   -1.507466    2.131286
     69          1           0       -1.989115    1.241099    1.511471
     70          1           0       -1.770624    0.489210    3.419003
     71          1           0       -2.944588    1.652258    3.785217
     72          1           0       -3.691767    0.303918    4.029953
     73          1           0       -2.281333   -1.765208   -0.450373
     74          1           0       -2.165979   -0.023766   -0.492485
     75          1           0       -0.342237    0.106488    1.130317
     76          1           0       -0.731339   -1.707925    1.371509
     77          1           0       -3.830589    5.588091    1.019029
     78          1           0       -5.186679    6.912751    1.391423
     79          1           0       -4.845395    5.565707    2.629725
     80          1           0       -7.661079    7.181770    0.998065
     81          1           0       -9.167624    6.032982   -1.177824
     82          1           0       -9.259108    7.639388   -0.249277
     83          1           0      -12.308368    3.767224   -0.401415
     84          1           0      -11.447132    3.989428   -2.135349
     85          1           0      -13.053836    3.016623   -1.792289
     86          1           0      -12.740069   -0.698998   -1.025998
     87          1           0      -13.301784    0.709640   -1.504382
     88          1           0      -12.727389    0.527326   -3.895697
     89          1           0      -11.732409   -1.083231   -3.455898
     90          1           0      -13.683355   -0.910864   -3.440130
     91          1           0      -10.053294   -4.558323   -0.290310
     92          1           0       -9.647817   -4.384607   -1.964631
     93          1           0       -8.583222   -5.295400   -1.178937
     94          1           0       -3.757551   -3.698162   -0.461501
     95          1           0       -2.002800   -6.437506    2.453000
     96          1           0       -2.339085   -4.873611    3.257808
     97          1           0       -3.422761   -6.177355    3.148176
     98          1           0        2.613450   -2.284793   -1.304924
     99          1           0        2.246924   -0.862630   -1.960302
    100          1           0        4.074626   -1.663651    0.519372
    101          1           0        5.092238    1.506341   -2.435576
    102          1           0        5.348496   -0.257843   -3.032073
    103          1           0        3.867013    0.520502   -2.752560
    104          1           0        6.156803    1.104325    0.085944
    105          1           0        6.083807   -0.344587    0.953739
    106          1           0        7.299096   -1.554812   -1.145090
    107          1           0        7.871748    0.091700   -1.854368
    108          1           0        8.986005    0.684322    0.196365
    109          1           0        8.658365   -0.884021    0.914889
    110          1           0       10.159814   -0.244180   -1.592789
    111          1           0        9.119146   -2.540512   -1.550718
    112          1           0       10.735037   -2.428872   -1.496915
    113          1           0        9.933656   -2.869399    0.137312
    114          1           0       11.051970    0.629944    0.527890
    115          1           0       11.269284   -0.827171    1.338403
    116          1           0       12.767547   -1.643870   -0.781149
    117          1           0       12.517285    0.203855   -1.502760
    118          1           0       13.838246    0.933684    0.466340
    119          1           0       13.689864   -0.477226    1.350500
    120          1           0       15.107802    0.370724   -1.484785
    121          1           0       14.942654   -2.068020   -1.180012
    122          1           0       16.646113   -1.467776   -1.461044
    123          1           0       15.950496   -1.944358    0.370365
    124          1           0       15.873995    1.782249    0.512930
    125          1           0       16.508022    0.301280    1.305381
    126          1           0       18.052751    0.044507   -0.773158
    127          1           0       17.454650    1.409568   -1.363567
    128          1           0       18.387192    2.949927    0.624175
    129          1           0       18.843488    1.470748    1.535639
    130          1           0       20.412236    0.537033    0.351675
    131          1           0       19.877380    3.108840   -1.765383
    132          1           0       21.413013    2.047363   -1.756298
    133          1           0       19.839777    1.344016   -2.167705
    134          1           0       20.918410    2.123688    2.083596
    135          1           0       22.095444    2.019741    0.682112
    136          1           0       20.919177    3.509995    0.871399
    137          1           0       -6.957273    1.730728    0.478004
    138          1           0       -7.791911   -0.072808   -0.205646
 ---------------------------------------------------------------------

 SCF Done:  E(RB3LYP) =  -2732.95179116     A.U. after   16 cycles

 Excitation energies and oscillator strengths:

 Excited State   1:      Singlet-A      1.9944 eV  621.66 nm  f=0.1480  <S**2>=0.000
     235 -> 238        0.29966
     236 -> 237        0.62973
 This state for optimization and/or second-order correction.
 Total Energy, E(TD-HF/TD-DFT) =  -2732.87849832
 Copying the excited state density for this state as the 1-particle RhoCI density.

 The electronic state is 1-A.
 Alpha  occ. eigenvalues --  -19.18524 -19.17638 -19.13938 -19.12100 -19.11297
 Alpha  occ. eigenvalues --  -14.37228 -14.36780 -14.32212 -14.30948 -10.31236
 Alpha  occ. eigenvalues --  -10.31149 -10.29747 -10.24799 -10.23697 -10.23656
 Alpha  occ. eigenvalues --  -10.23643 -10.23408 -10.23396 -10.23165 -10.23105
 Alpha  occ. eigenvalues --  -10.22785 -10.22131 -10.22050 -10.22018 -10.21443
 Alpha  occ. eigenvalues --  -10.21072 -10.20908 -10.20885 -10.20708 -10.20588
 Alpha  occ. eigenvalues --  -10.20480 -10.20459 -10.20345 -10.20308 -10.20240
 Alpha  occ. eigenvalues --  -10.20206 -10.20203 -10.20172 -10.19748 -10.19693
 Alpha  occ. eigenvalues --  -10.19691 -10.19690 -10.19673 -10.19670 -10.19425
 Alpha  occ. eigenvalues --  -10.19226 -10.19214 -10.19196 -10.19013 -10.18925
 Alpha  occ. eigenvalues --  -10.18861 -10.18833 -10.18748 -10.18675 -10.18534
 Alpha  occ. eigenvalues --  -10.18343 -10.18174 -10.17972 -10.17846 -10.17667
 Alpha  occ. eigenvalues --  -10.17649 -10.17360 -10.17132 -10.16633  -1.11230
 Alpha  occ. eigenvalues --   -1.08368  -1.01776  -0.99527  -0.98683  -0.98319
 Alpha  occ. eigenvalues --   -0.96714  -0.95542  -0.94695  -0.85042  -0.83338
 Alpha  occ. eigenvalues --   -0.82446  -0.82298  -0.81516  -0.80787  -0.80592
 Alpha  occ. eigenvalues --   -0.79868  -0.79569  -0.79314  -0.78649  -0.77259
 Alpha  occ. eigenvalues --   -0.76715  -0.76472  -0.75973  -0.75208  -0.74557
 Alpha  occ. eigenvalues --   -0.73654  -0.73361  -0.72541  -0.70807  -0.70196
 Alpha  occ. eigenvalues --   -0.69570  -0.69256  -0.68618  -0.68560  -0.67714
 Alpha  occ. eigenvalues --   -0.67375  -0.67175  -0.66201  -0.65916  -0.65453
 Alpha  occ. eigenvalues --   -0.64716  -0.63561  -0.63101  -0.62445  -0.61614
 Alpha  occ. eigenvalues --   -0.60498  -0.58842  -0.58736  -0.57815  -0.57509
 Alpha  occ. eigenvalues --   -0.56841  -0.56245  -0.55954  -0.55618  -0.55381
 Alpha  occ. eigenvalues --   -0.54978  -0.54320  -0.53899  -0.53317  -0.53209
 Alpha  occ. eigenvalues --   -0.52702  -0.52244  -0.51408  -0.50805  -0.50163
 Alpha  occ. eigenvalues --   -0.49977  -0.49626  -0.48963  -0.48604  -0.48538
 Alpha  occ. eigenvalues --   -0.47824  -0.47654  -0.47503  -0.47422  -0.47097
 Alpha  occ. eigenvalues --   -0.46932  -0.46353  -0.46058  -0.45724  -0.45521
 Alpha  occ. eigenvalues --   -0.45375  -0.45246  -0.45092  -0.44938  -0.44682
 Alpha  occ. eigenvalues --   -0.44409  -0.44244  -0.44241  -0.43997  -0.43945
 Alpha  occ. eigenvalues --   -0.43766  -0.43543  -0.43337  -0.43110  -0.42876
 Alpha  occ. eigenvalues --   -0.42773  -0.42274  -0.42166  -0.41918  -0.41856
 Alpha  occ. eigenvalues --   -0.41657  -0.41486  -0.41198  -0.40342  -0.40278
 Alpha  occ. eigenvalues --   -0.39719  -0.39471  -0.39076  -0.38889  -0.38753
 Alpha  occ. eigenvalues --   -0.38650  -0.38434  -0.38352  -0.38116  -0.37973
 Alpha  occ. eigenvalues --   -0.37909  -0.37832  -0.37517  -0.37457  -0.37360
 Alpha  occ. eigenvalues --   -0.37332  -0.36858  -0.36777  -0.36521  -0.36473
 Alpha  occ. eigenvalues --   -0.36462  -0.36390  -0.36154  -0.36036  -0.35916
 Alpha  occ. eigenvalues --   -0.35704  -0.35494  -0.35311  -0.35276  -0.35143
 Alpha  occ. eigenvalues --   -0.34918  -0.34717  -0.34055  -0.34005  -0.33715
 Alpha  occ. eigenvalues --   -0.33699  -0.33503  -0.33298  -0.32792  -0.32621
 Alpha  occ. eigenvalues --   -0.32534  -0.32177  -0.31834  -0.30949  -0.30932
 Alpha  occ. eigenvalues --   -0.30570  -0.30427  -0.30350  -0.30089  -0.29794
 Alpha  occ. eigenvalues --   -0.29261  -0.28795  -0.28309  -0.28125  -0.27783
 Alpha  occ. eigenvalues --   -0.27048  -0.26922  -0.26461  -0.26425  -0.25863
 Alpha  occ. eigenvalues --   -0.25542  -0.25184  -0.24957  -0.23557  -0.20298
 Alpha  occ. eigenvalues --   -0.18520
 Alpha virt. eigenvalues --   -0.10137  -0.08412  -0.05158  -0.02325  -0.00930
 Alpha virt. eigenvalues --    0.00064   0.00915   0.01075   0.02781   0.03388
 Alpha virt. eigenvalues --    0.03828   0.04144   0.04464   0.04568   0.05043

 Mulliken charges:
               1
     1  C   -0.012854
     2  C   -0.074158
     3  C   -0.077668
     4  C   -0.069732
     5  N   -0.082350
     6  C   -0.101678
     7  C   -0.080380
     8  C   -0.135042
     9  C    0.009372
    10  C    0.146118
    11  C    0.001790
    12  C    0.051105
    13  C    0.153019
    14  O   -0.283502
    15  O   -0.252618
    16  N   -0.160339
    17  C    0.107992
    18  C   -0.107007
    19  C    0.180156
    20  C    0.116250
    21  C    0.002272
    22  C   -0.169244
    23  C    0.017314
    24  N   -0.227786
    25  C    0.052697
    26  C   -0.079897
    27  C   -0.063703
    28  C    0.001498
    29  C    0.000898
    30  C    0.190835
    31  C   -0.051561
    32  N   -0.094546
    33  C    0.074077
    34  C   -0.177306
    35  C   -0.044610
    36  C    0.175249
    37  C    0.185363
    38  C    0.138552
    39  O   -0.181637
    40  C   -0.108409
    41  C    0.215959
    42  O   -0.235018
    43  O   -0.324532
    44  C    0.223120
    45  C    0.257439
    46  C   -0.096562
    47  C   -0.127291
    48  C    0.133511
    49  C    0.060442
    50  C   -0.055077
    51  C    0.170791
    52  C   -0.148325
    53  C    0.095550
    54  C    0.067888
    55  C   -0.094763
    56  C    0.191437
    57  C   -0.114874
    58  C   -0.052195
    59  C    0.138153
    60  C   -0.012290
    61  C    0.035730
    62  C   -0.178093
    63  C    0.045471
    64  C    0.000048
    65  H    0.029659
    66  H   -0.033382
    67  H   -0.021969
    68  H    0.035236
    69  H    0.026542
    70  H    0.019447
    71  H   -0.042907
    72  H    0.009550
    73  H    0.019966
    74  H   -0.002092
    75  H    0.034656
    76  H    0.019069
    77  H    0.054145
    78  H    0.034956
    79  H    0.045419
    80  H    0.002921
    81  H    0.017189
    82  H   -0.023950
    83  H    0.036184
    84  H    0.049873
    85  H    0.015766
    86  H    0.002489
    87  H   -0.133538
    88  H    0.019066
    89  H    0.047586
    90  H    0.023054
    91  H    0.049756
    92  H   -0.031741
    93  H    0.023915
    94  H    0.109200
    95  H    0.025137
    96  H    0.029741
    97  H   -0.000923
    98  H   -0.012326
    99  H    0.004682
   100  H    0.028365
   101  H    0.006973
   102  H    0.037017
   103  H   -0.014216
   104  H   -0.001445
   105  H    0.003981
   106  H    0.021990
   107  H    0.010185
   108  H   -0.022222
   109  H   -0.038877
   110  H   -0.021684
   111  H   -0.005562
   112  H   -0.049399
   113  H    0.023025
   114  H   -0.052191
   115  H   -0.006066
   116  H    0.039655
   117  H    0.016084
   118  H   -0.071197
   119  H    0.009362
   120  H   -0.004201
   121  H    0.006101
   122  H    0.028582
   123  H    0.023151
   124  H   -0.024991
   125  H    0.001898
   126  H   -0.002845
   127  H   -0.015261
   128  H   -0.019851
   129  H   -0.012578
   130  H   -0.002656
   131  H    0.017806
   132  H    0.010095
   133  H    0.015618
   134  H    0.019639
   135  H    0.019246
   136  H    0.013568
   137  H    0.169100
   138  H    0.196375
 Sum of Mulliken charges =  -0.00000

 Dipole moment (field-independent basis, Debye):
    X=              1.1687    Y=              4.6062    Z=              0.2384  Tot=              4.7581
 Quadrupole moment (field-independent basis, Debye-Ang):
   XX=           -337.0310   YY=           -389.5911   ZZ=           -393.6578
   XY=            -22.3035   XZ=              3.6897   YZ=             -4.0966

 Normal termination of Gaussian 16 at Wed Aug 14 01:28:17 2019.
