 Gaussian 16, Revision A.03,
 Gaussian 16:  ES64L-G16RevA.03 25-Dec-2016

 --------------------------
 # td=(NStates=1) B3LYP/SVP
 --------------------------

 --
 TD
 --
 Symbolic Z-matrix:
 Charge =  0 Multiplicity = 1

                         Standard orientation:
 ---------------------------------------------------------------------
 Center     Atomic      Atomic             Coordinates (Angstroms)
 Number     Number       Type             X           Y           Z
 ---------------------------------------------------------------------
      1          6           0       -5.107161   -1.889679    0.610463
      2          6           0       -4.619266    2.833378    1.551421
      3          6           0       -9.265726    3.375218   -0.044472
      4          6           0       -9.864194   -1.372604   -0.939302
      5          7           0       -5.022065    0.480843    0.895822
      6          6           0       -4.485591   -0.648552    0.920765
      7          6           0       -2.980257   -0.668139    1.209517
      8          6           0       -2.948949    0.772683    1.830043
      9          6           0       -4.306212    1.458516    1.309551
     10          6           0       -2.906058    0.795921    3.368896
     11          6           0       -1.993591   -0.785256   -0.043308
     12          6           0       -0.553808   -0.907144    0.419647
     13          6           0        0.386550   -1.222469   -0.721020
     14          8           0       -0.007559   -1.618734   -1.766790
     15          8           0        1.614324   -0.812825   -0.363713
     16          7           0       -7.002672    2.759747    0.620728
     17          6           0       -5.839345    3.413434    1.129012
     18          6           0       -6.074218    4.840264    1.030709
     19          6           0       -7.377624    5.059578    0.470243
     20          6           0       -7.829585    3.710809    0.213749
     21          6           0       -5.222094    5.937853    1.520177
     22          6           0       -8.066336    6.285885    0.330965
     23          6           0       -8.942494    6.694065   -0.748716
     24          7           0       -9.153530    0.958037   -0.437753
     25          6           0       -9.849050    2.189350   -0.385925
     26          6           0      -11.210930    1.929696   -0.925383
     27          6           0      -11.414803    0.610614   -1.131718
     28          6           0      -10.040394   -0.034007   -0.762270
     29          6           0      -12.178959    3.050619   -1.043951
     30          6           0      -12.531892   -0.175031   -1.605078
     31          6           0      -12.353108   -0.559221   -3.080611
     32          7           0       -7.531873   -1.241726   -0.160199
     33          6           0       -8.643372   -1.958442   -0.585612
     34          6           0       -8.197584   -3.389155   -0.718187
     35          6           0       -6.904073   -3.405853   -0.155787
     36          6           0       -6.511615   -2.049105    0.163347
     37          6           0       -9.083469   -4.437307   -1.135058
     38          6           0       -5.732420   -4.284855    0.064588
     39          8           0       -5.696075   -5.452106   -0.018106
     40          6           0       -4.557461   -3.306524    0.425269
     41          6           0       -4.136995   -3.899878    1.734671
     42          8           0       -4.265479   -3.410271    2.852918
     43          8           0       -3.280920   -4.955838    1.562877
     44          6           0       -2.778613   -5.738632    2.717871
     45          6           0        2.632233   -1.154011   -1.400777
     46          6           0        3.964351   -0.630036   -0.766645
     47          6           0        4.918107    0.061611   -1.321132
     48          6           0        4.832314    0.581403   -2.686736
     49          6           0        6.275312    0.252638   -0.495938
     50          6           0        7.538117   -0.379575   -1.172094
     51          6           0        8.775913   -0.121499   -0.358164
     52          6           0       10.023219   -0.787890   -0.823739
     53          6           0        9.996708   -2.377269   -0.821367
     54          6           0       11.211248   -0.208572    0.042238
     55          6           0       12.560939   -0.547586   -0.541658
     56          6           0       13.756496   -0.095786    0.412761
     57          6           0       15.102044   -0.160476   -0.260586
     58          6           0       15.697977   -1.604453   -0.292028
     59          6           0       16.155282    0.756224    0.471580
     60          6           0       17.574753    0.769022   -0.108225
     61          6           0       18.568714    1.624233    0.656826
     62          6           0       20.031813    1.617563    0.274495
     63          6           0       20.282778    2.063184   -1.212606
     64          6           0       20.763304    2.543692    1.228383
     65          1           0       -4.014839    3.479322    1.997628
     66          1           0      -10.025850    4.104629   -0.214952
     67          1           0      -10.749257   -2.075121   -0.961360
     68          1           0       -2.700258   -1.295978    1.869369
     69          1           0       -2.029410    1.306656    1.622644
     70          1           0       -2.030233    0.277542    3.608705
     71          1           0       -2.916367    2.022509    3.720888
     72          1           0       -3.825790    0.353246    3.764953
     73          1           0       -2.431093   -1.532255   -0.758415
     74          1           0       -1.911037    0.124688   -0.644717
     75          1           0       -0.263808    0.069534    0.670618
     76          1           0       -0.290836   -1.607490    1.381174
     77          1           0       -4.288571    5.766773    0.909085
     78          1           0       -5.563442    6.914500    1.068583
     79          1           0       -4.834954    5.858180    2.536451
     80          1           0       -7.981483    7.212131    1.118608
     81          1           0       -9.221385    5.984486   -1.641311
     82          1           0       -9.396098    7.680672   -0.904690
     83          1           0      -12.187919    3.738073   -0.257189
     84          1           0      -11.705791    3.747286   -1.901590
     85          1           0      -13.284859    2.751353   -1.421564
     86          1           0      -12.821353   -1.075141   -0.734424
     87          1           0      -13.350096    0.445595   -1.406281
     88          1           0      -11.818655    0.233824   -3.714008
     89          1           0      -11.672841   -1.419338   -3.300537
     90          1           0      -13.436817   -0.821087   -3.580508
     91          1           0      -10.152858   -4.367858   -0.729329
     92          1           0       -9.181406   -4.343085   -2.250697
     93          1           0       -8.890073   -5.445841   -1.022035
     94          1           0       -3.788265   -3.367623   -0.502512
     95          1           0       -1.986630   -6.493639    2.360904
     96          1           0       -2.474313   -5.112867    3.764350
     97          1           0       -3.713804   -6.456629    2.938938
     98          1           0        2.698668   -2.091704   -1.644784
     99          1           0        2.385258   -0.522264   -2.236017
    100          1           0        4.217734   -1.085586    0.166192
    101          1           0        5.081768    1.691949   -2.741767
    102          1           0        5.551169    0.083392   -3.299989
    103          1           0        3.842098    0.348658   -3.046156
    104          1           0        6.396296    1.145751   -0.304588
    105          1           0        6.151430   -0.280830    0.492300
    106          1           0        7.351355   -1.547038   -1.319709
    107          1           0        7.702713   -0.003412   -2.048594
    108          1           0        8.715288    0.951341   -0.333643
    109          1           0        8.526329   -0.487128    0.368806
    110          1           0       10.186566   -0.327911   -1.906880
    111          1           0        9.477533   -2.879030   -1.694483
    112          1           0       11.059565   -2.844188   -1.006270
    113          1           0        9.747218   -2.862012    0.168920
    114          1           0       10.975479    0.874592    0.116829
    115          1           0       10.815046   -0.718979    0.872486
    116          1           0       12.874415   -1.490770   -0.597626
    117          1           0       12.611875   -0.393040   -1.602479
    118          1           0       13.575461    0.922715    0.797751
    119          1           0       13.953889   -0.624246    1.379498
    120          1           0       15.071488    0.205547   -1.415279
    121          1           0       14.784847   -2.385210   -0.620438
    122          1           0       16.423700   -1.616333   -1.371038
    123          1           0       16.370055   -2.030764    0.728704
    124          1           0       15.904634    1.854406    0.620589
    125          1           0       16.084946    0.310549    1.620894
    126          1           0       18.030652   -0.246651   -0.004191
    127          1           0       17.473179    1.037503   -1.300202
    128          1           0       18.362595    2.720770    0.270607
    129          1           0       18.385681    1.610778    1.809924
    130          1           0       20.344040    0.526051    0.267711
    131          1           0       19.711175    3.068702   -1.175159
    132          1           0       21.190972    1.913529   -1.765358
    133          1           0       19.491981    1.373135   -1.737879
    134          1           0       20.623885    2.208055    2.303461
    135          1           0       21.808956    2.525110    0.936962
    136          1           0       20.287352    3.622528    0.991262
    137          1           0       -6.988505    1.771837    0.249921
    138          1           0       -7.507286   -0.257667    0.140688
 ---------------------------------------------------------------------

 SCF Done:  E(RB3LYP) =  -2732.92440653     A.U. after   17 cycles

 Excitation energies and oscillator strengths:

 Excited State   1:      Singlet-A      1.9564 eV  633.73 nm  f=0.2209  <S**2>=0.000
     235 -> 237       -0.13831
     235 -> 238       -0.25251
     236 -> 237        0.63811
 This state for optimization and/or second-order correction.
 Total Energy, E(TD-HF/TD-DFT) =  -2732.85250971
 Copying the excited state density for this state as the 1-particle RhoCI density.

 The electronic state is 1-A.
 Alpha  occ. eigenvalues --  -19.17888 -19.16661 -19.12771 -19.12417 -19.11717
 Alpha  occ. eigenvalues --  -14.37502 -14.37198 -14.31671 -14.29805 -10.31374
 Alpha  occ. eigenvalues --  -10.30749 -10.27971 -10.26817 -10.24413 -10.24304
 Alpha  occ. eigenvalues --  -10.23877 -10.23647 -10.23403 -10.22868 -10.22700
 Alpha  occ. eigenvalues --  -10.22624 -10.22620 -10.22602 -10.21963 -10.21404
 Alpha  occ. eigenvalues --  -10.21177 -10.21159 -10.21105 -10.20653 -10.20517
 Alpha  occ. eigenvalues --  -10.20426 -10.20354 -10.20324 -10.20119 -10.20042
 Alpha  occ. eigenvalues --  -10.20031 -10.19982 -10.19851 -10.19814 -10.19639
 Alpha  occ. eigenvalues --  -10.19531 -10.19519 -10.19461 -10.19448 -10.19416
 Alpha  occ. eigenvalues --  -10.19339 -10.19167 -10.19083 -10.18946 -10.18932
 Alpha  occ. eigenvalues --  -10.18930 -10.18809 -10.18780 -10.18690 -10.18652
 Alpha  occ. eigenvalues --  -10.18437 -10.18138 -10.18121 -10.18069 -10.17980
 Alpha  occ. eigenvalues --  -10.17856 -10.17635 -10.17459 -10.15218  -1.09407
 Alpha  occ. eigenvalues --   -1.07253  -1.05521  -1.01631  -0.98519  -0.98255
 Alpha  occ. eigenvalues --   -0.98050  -0.97591  -0.91338  -0.84097  -0.83579
 Alpha  occ. eigenvalues --   -0.82013  -0.81800  -0.81455  -0.80936  -0.80620
 Alpha  occ. eigenvalues --   -0.80152  -0.79996  -0.79627  -0.79156  -0.77564
 Alpha  occ. eigenvalues --   -0.76777  -0.75984  -0.75238  -0.74548  -0.73641
 Alpha  occ. eigenvalues --   -0.73377  -0.72845  -0.72641  -0.71523  -0.70551
 Alpha  occ. eigenvalues --   -0.70033  -0.69034  -0.68194  -0.67967  -0.66947
 Alpha  occ. eigenvalues --   -0.66841  -0.66733  -0.66030  -0.65699  -0.64727
 Alpha  occ. eigenvalues --   -0.63611  -0.62852  -0.62385  -0.61900  -0.61699
 Alpha  occ. eigenvalues --   -0.61180  -0.59993  -0.58695  -0.57983  -0.57487
 Alpha  occ. eigenvalues --   -0.57027  -0.56347  -0.56248  -0.55962  -0.55109
 Alpha  occ. eigenvalues --   -0.54058  -0.53823  -0.53613  -0.52920  -0.52603
 Alpha  occ. eigenvalues --   -0.52110  -0.51902  -0.51504  -0.50717  -0.50532
 Alpha  occ. eigenvalues --   -0.50346  -0.50069  -0.49560  -0.48749  -0.48287
 Alpha  occ. eigenvalues --   -0.47958  -0.47586  -0.47442  -0.47219  -0.47065
 Alpha  occ. eigenvalues --   -0.46639  -0.46265  -0.46093  -0.45926  -0.45704
 Alpha  occ. eigenvalues --   -0.45252  -0.45018  -0.44959  -0.44861  -0.44588
 Alpha  occ. eigenvalues --   -0.44500  -0.44294  -0.43781  -0.43563  -0.43466
 Alpha  occ. eigenvalues --   -0.43376  -0.42879  -0.42803  -0.42776  -0.42445
 Alpha  occ. eigenvalues --   -0.42292  -0.42156  -0.41789  -0.41682  -0.41556
 Alpha  occ. eigenvalues --   -0.41202  -0.40930  -0.40857  -0.40763  -0.40407
 Alpha  occ. eigenvalues --   -0.39985  -0.39900  -0.39754  -0.39594  -0.39562
 Alpha  occ. eigenvalues --   -0.39485  -0.39198  -0.38960  -0.38714  -0.38549
 Alpha  occ. eigenvalues --   -0.38108  -0.37938  -0.37926  -0.37829  -0.37794
 Alpha  occ. eigenvalues --   -0.37447  -0.37327  -0.37073  -0.36966  -0.36606
 Alpha  occ. eigenvalues --   -0.36451  -0.36201  -0.36132  -0.35879  -0.35688
 Alpha  occ. eigenvalues --   -0.35492  -0.35309  -0.35176  -0.34825  -0.34518
 Alpha  occ. eigenvalues --   -0.34367  -0.34340  -0.34023  -0.33703  -0.33603
 Alpha  occ. eigenvalues --   -0.33355  -0.33235  -0.33089  -0.33012  -0.32429
 Alpha  occ. eigenvalues --   -0.32291  -0.31825  -0.31594  -0.31204  -0.31067
 Alpha  occ. eigenvalues --   -0.30723  -0.30624  -0.30511  -0.29633  -0.29403
 Alpha  occ. eigenvalues --   -0.28917  -0.28868  -0.28016  -0.27774  -0.27745
 Alpha  occ. eigenvalues --   -0.27234  -0.26405  -0.25857  -0.25790  -0.25534
 Alpha  occ. eigenvalues --   -0.25205  -0.24969  -0.23361  -0.22522  -0.19651
 Alpha  occ. eigenvalues --   -0.18414
 Alpha virt. eigenvalues --   -0.10556  -0.07005  -0.04516  -0.03111  -0.00957
 Alpha virt. eigenvalues --    0.00836   0.01045   0.01707   0.02375   0.03260
 Alpha virt. eigenvalues --    0.03891   0.04227   0.04430   0.04475   0.04754

 Mulliken charges:
               1
     1  C    0.051442
     2  C    0.008324
     3  C   -0.016480
     4  C   -0.112600
     5  N    0.004305
     6  C   -0.129691
     7  C    0.075152
     8  C   -0.113214
     9  C    0.005273
    10  C    0.052238
    11  C    0.067633
    12  C    0.024097
    13  C    0.144211
    14  O   -0.209445
    15  O   -0.331514
    16  N   -0.062757
    17  C    0.084207
    18  C   -0.168751
    19  C    0.095845
    20  C    0.059701
    21  C    0.113038
    22  C   -0.137688
    23  C   -0.093651
    24  N   -0.291631
    25  C    0.038492
    26  C   -0.070348
    27  C   -0.140778
    28  C    0.088577
    29  C    0.041349
    30  C    0.085385
    31  C   -0.035502
    32  N   -0.028416
    33  C    0.063550
    34  C   -0.108092
    35  C   -0.007108
    36  C    0.005174
    37  C    0.094793
    38  C    0.027811
    39  O   -0.109642
    40  C   -0.093458
    41  C    0.238082
    42  O   -0.238478
    43  O   -0.329192
    44  C    0.092828
    45  C    0.368034
    46  C   -0.106342
    47  C   -0.168714
    48  C    0.128568
    49  C    0.164932
    50  C    0.009155
    51  C    0.238032
    52  C   -0.109584
    53  C   -0.021885
    54  C    0.081351
    55  C    0.150780
    56  C    0.060637
    57  C   -0.099096
    58  C   -0.119204
    59  C   -0.038097
    60  C    0.026855
    61  C   -0.049723
    62  C   -0.110628
    63  C   -0.005112
    64  C    0.047120
    65  H   -0.090015
    66  H   -0.057415
    67  H    0.017842
    68  H   -0.085457
    69  H   -0.024733
    70  H    0.008995
    71  H    0.022854
    72  H    0.025536
    73  H    0.019962
    74  H   -0.005750
    75  H    0.007428
    76  H    0.052899
    77  H    0.013968
    78  H    0.027498
    79  H    0.036405
    80  H    0.049748
    81  H    0.048995
    82  H    0.035682
    83  H    0.018962
    84  H    0.020577
    85  H    0.036984
    86  H    0.028292
    87  H   -0.029120
    88  H    0.035149
    89  H    0.023697
    90  H    0.029807
    91  H    0.032798
    92  H    0.026923
    93  H    0.001627
    94  H    0.110573
    95  H    0.055845
    96  H    0.079221
    97  H    0.050152
    98  H   -0.007688
    99  H    0.010474
   100  H   -0.025833
   101  H    0.021622
   102  H    0.016465
   103  H   -0.013849
   104  H   -0.077872
   105  H   -0.004571
   106  H    0.003223
   107  H   -0.060198
   108  H   -0.016970
   109  H   -0.163380
   110  H   -0.015154
   111  H    0.029233
   112  H    0.010149
   113  H    0.023300
   114  H    0.000034
   115  H   -0.022938
   116  H   -0.068296
   117  H   -0.022747
   118  H   -0.015265
   119  H   -0.003576
   120  H    0.011720
   121  H    0.037420
   122  H    0.035604
   123  H    0.058291
   124  H    0.006534
   125  H   -0.001335
   126  H   -0.000608
   127  H    0.031227
   128  H   -0.012855
   129  H    0.021471
   130  H   -0.008353
   131  H    0.007917
   132  H    0.027945
   133  H    0.004435
   134  H    0.020331
   135  H    0.006195
   136  H    0.018017
   137  H    0.181232
   138  H    0.152566
 Sum of Mulliken charges =  -0.00000

 Dipole moment (field-independent basis, Debye):
    X=              2.5394    Y=              2.6688    Z=             -0.7436  Tot=              3.7582
 Quadrupole moment (field-independent basis, Debye-Ang):
   XX=           -358.1888   YY=           -378.8328   ZZ=           -396.9395
   XY=            -23.3665   XZ=              9.3947   YZ=             -1.0494

 Normal termination of Gaussian 16 at Sun Sep  1 08:04:09 2019.
