 Gaussian 16, Revision A.03,
 Gaussian 16:  ES64L-G16RevA.03 25-Dec-2016

 --------------------------
 # td=(NStates=1) B3LYP/SVP
 --------------------------

 --
 TD
 --
 Symbolic Z-matrix:
 Charge =  0 Multiplicity = 1

                         Standard orientation:
 ---------------------------------------------------------------------
 Center     Atomic      Atomic             Coordinates (Angstroms)
 Number     Number       Type             X           Y           Z
 ---------------------------------------------------------------------
      1          6           0       -5.259531   -1.872038    0.415450
      2          6           0       -4.680218    2.811292    1.224111
      3          6           0       -9.258403    3.417405   -0.306661
      4          6           0       -9.901271   -1.425796   -0.931188
      5          7           0       -5.114052    0.478779    0.772062
      6          6           0       -4.550732   -0.694778    0.816628
      7          6           0       -3.090830   -0.647361    1.213696
      8          6           0       -3.133634    0.819577    1.744923
      9          6           0       -4.288972    1.408187    1.328350
     10          6           0       -2.954487    0.945283    3.363146
     11          6           0       -2.121794   -0.910363    0.117425
     12          6           0       -0.623894   -0.929427    0.459734
     13          6           0        0.332344   -1.075543   -0.660586
     14          8           0        0.028208   -1.260415   -1.844146
     15          8           0        1.556504   -0.981219   -0.188675
     16          7           0       -7.010092    2.831149    0.319094
     17          6           0       -5.801150    3.406047    0.783103
     18          6           0       -6.094019    4.901937    0.890726
     19          6           0       -7.428463    5.073542    0.492135
     20          6           0       -7.958207    3.781905    0.123503
     21          6           0       -5.161434    5.803110    1.297826
     22          6           0       -8.091778    6.371191    0.261880
     23          6           0       -9.199680    6.590477   -0.528338
     24          7           0       -9.264662    0.891198   -0.513904
     25          6           0       -9.784160    2.162550   -0.485854
     26          6           0      -11.287563    1.944100   -0.860399
     27          6           0      -11.410019    0.614250   -1.022338
     28          6           0      -10.139195   -0.040237   -0.873532
     29          6           0      -12.440181    2.987128   -0.831919
     30          6           0      -12.610765   -0.151423   -1.445720
     31          6           0      -12.681243   -0.690656   -2.894158
     32          7           0       -7.614128   -1.196094   -0.161334
     33          6           0       -8.727820   -2.034432   -0.612832
     34          6           0       -8.274106   -3.362449   -0.620916
     35          6           0       -6.984879   -3.307519   -0.204573
     36          6           0       -6.622207   -1.968387    0.058220
     37          6           0       -9.166665   -4.545299   -0.881972
     38          6           0       -5.800034   -4.266721    0.059318
     39          8           0       -5.681479   -5.420259   -0.195968
     40          6           0       -4.610058   -3.247881    0.514791
     41          6           0       -3.986437   -3.758912    1.772909
     42          8           0       -4.072335   -3.343065    2.889038
     43          8           0       -3.079655   -4.723681    1.433471
     44          6           0       -2.466482   -5.430061    2.568926
     45          6           0        2.764810   -1.105473   -1.177815
     46          6           0        4.043308   -0.733035   -0.524471
     47          6           0        5.003364   -0.110187   -1.071080
     48          6           0        5.078873    0.429941   -2.553657
     49          6           0        6.348943    0.100185   -0.307844
     50          6           0        7.583816   -0.616650   -0.887026
     51          6           0        8.800725   -0.324890   -0.069578
     52          6           0       10.111637   -1.070286   -0.719662
     53          6           0       10.118010   -2.574112   -0.732458
     54          6           0       11.350021   -0.445067   -0.030986
     55          6           0       12.701212   -0.732649   -0.509019
     56          6           0       13.889390    0.098687    0.157849
     57          6           0       15.302157   -0.219145   -0.388651
     58          6           0       15.767623   -1.712047   -0.506565
     59          6           0       16.229355    0.633216    0.436184
     60          6           0       17.706936    0.861289   -0.249345
     61          6           0       18.490731    1.825900    0.675221
     62          6           0       20.027764    1.954183    0.220169
     63          6           0       20.239729    2.343650   -1.267336
     64          6           0       20.905797    2.757558    1.204494
     65          1           0       -4.029362    3.487579    1.686930
     66          1           0       -9.961685    4.253613   -0.327770
     67          1           0      -10.762180   -2.096608   -1.135735
     68          1           0       -2.864035   -1.466032    2.197035
     69          1           0       -2.525417    1.490806    1.206665
     70          1           0       -2.127592    0.270425    3.647620
     71          1           0       -2.697543    1.986498    3.702039
     72          1           0       -3.865312    0.480522    3.737851
     73          1           0       -2.295606   -1.651123   -0.496578
     74          1           0       -2.215107   -0.263827   -0.742454
     75          1           0       -0.260855   -0.083928    1.120997
     76          1           0       -0.517130   -1.991890    0.949383
     77          1           0       -3.794148    5.271777    1.000375
     78          1           0       -5.245750    6.904365    0.566866
     79          1           0       -5.324655    6.277483    2.745964
     80          1           0       -7.726987    7.261555    0.862110
     81          1           0       -9.717678    5.770657   -1.147142
     82          1           0       -9.680958    7.552994   -0.828451
     83          1           0      -12.708130    3.292570    0.307731
     84          1           0      -12.198327    3.954434   -1.409018
     85          1           0      -13.367461    2.649074   -1.241713
     86          1           0      -12.558434   -0.947091   -0.619601
     87          1           0      -13.486499    0.483855   -1.560929
     88          1           0      -12.694455    0.221305   -3.479812
     89          1           0      -11.721975   -1.325772   -3.182788
     90          1           0      -13.496807   -1.378805   -2.953272
     91          1           0      -10.198965   -4.499793   -0.412608
     92          1           0       -9.490264   -4.611910   -1.971350
     93          1           0       -8.675364   -5.539423   -0.700308
     94          1           0       -3.934713   -3.633385   -0.370949
     95          1           0       -1.721113   -6.105242    2.177899
     96          1           0       -2.180507   -4.569241    3.162856
     97          1           0       -3.089800   -6.186846    3.225773
     98          1           0        2.803763   -2.171748   -1.541518
     99          1           0        2.547415   -0.548108   -2.180370
    100          1           0        4.333250   -1.015865    0.457761
    101          1           0        5.550344    1.544904   -2.686583
    102          1           0        5.505938   -0.388122   -3.312939
    103          1           0        4.092254    0.488187   -2.800745
    104          1           0        6.576551    1.105443   -0.160582
    105          1           0        6.232956   -0.533544    0.623747
    106          1           0        7.433878   -1.674825   -1.024994
    107          1           0        7.622820   -0.158518   -1.896472
    108          1           0        9.233718    0.721665    0.119312
    109          1           0        8.520031   -0.928579    0.910155
    110          1           0       10.152928   -0.722496   -1.782843
    111          1           0        9.174239   -2.974705   -1.129971
    112          1           0       11.110300   -2.910053   -1.061012
    113          1           0       10.041740   -2.707306    0.382071
    114          1           0       11.256956    0.747440   -0.194212
    115          1           0       11.202803   -0.707571    1.122715
    116          1           0       12.964888   -1.795325   -0.535967
    117          1           0       12.736522   -0.539542   -1.455102
    118          1           0       13.645578    1.061332    0.024379
    119          1           0       13.818197   -0.148016    1.202551
    120          1           0       15.225953    0.087816   -1.407573
    121          1           0       15.025455   -2.458828   -1.107855
    122          1           0       16.705922   -2.022189   -1.049401
    123          1           0       15.500149   -2.140173    0.690838
    124          1           0       15.797663    1.721223    0.496463
    125          1           0       16.240954    0.009589    1.503067
    126          1           0       18.133473   -0.094785   -0.202742
    127          1           0       17.578920    1.095680   -1.259600
    128          1           0       18.039589    2.876027    0.712224
    129          1           0       18.388532    1.451995    1.547386
    130          1           0       20.363920    0.806117    0.291067
    131          1           0       19.820236    3.563730   -1.431381
    132          1           0       21.403623    2.258842   -1.579924
    133          1           0       19.571663    1.844516   -2.195095
    134          1           0       20.825724    2.273512    2.214335
    135          1           0       21.885262    2.812126    0.891668
    136          1           0       20.527863    3.804039    1.220488
    137          1           0       -7.079347    1.788523    0.125781
    138          1           0       -7.604629   -0.125726   -0.183346
 ---------------------------------------------------------------------

 SCF Done:  E(RB3LYP) =  -2732.95965144     A.U. after   17 cycles

 Excitation energies and oscillator strengths:

 Excited State   1:      Singlet-A      1.9619 eV  631.96 nm  f=0.2237  <S**2>=0.000
     235 -> 238       -0.26670
     236 -> 237        0.64770
 This state for optimization and/or second-order correction.
 Total Energy, E(TD-HF/TD-DFT) =  -2732.88755320
 Copying the excited state density for this state as the 1-particle RhoCI density.

 The electronic state is 1-A.
 Alpha  occ. eigenvalues --  -19.18076 -19.17169 -19.13536 -19.12594 -19.11371
 Alpha  occ. eigenvalues --  -14.37457 -14.36575 -14.31790 -14.29746 -10.31516
 Alpha  occ. eigenvalues --  -10.31028 -10.28962 -10.27211 -10.26112 -10.24687
 Alpha  occ. eigenvalues --  -10.24239 -10.23875 -10.23095 -10.22989 -10.22902
 Alpha  occ. eigenvalues --  -10.22720 -10.21881 -10.21877 -10.21873 -10.21857
 Alpha  occ. eigenvalues --  -10.21835 -10.21302 -10.21141 -10.21132 -10.20902
 Alpha  occ. eigenvalues --  -10.20882 -10.20827 -10.20805 -10.20773 -10.20600
 Alpha  occ. eigenvalues --  -10.20496 -10.20401 -10.20280 -10.20222 -10.20096
 Alpha  occ. eigenvalues --  -10.20061 -10.20034 -10.19934 -10.19638 -10.19624
 Alpha  occ. eigenvalues --  -10.19450 -10.19253 -10.19137 -10.18993 -10.18945
 Alpha  occ. eigenvalues --  -10.18859 -10.18668 -10.18665 -10.18576 -10.18542
 Alpha  occ. eigenvalues --  -10.18439 -10.18233 -10.17981 -10.17829 -10.17573
 Alpha  occ. eigenvalues --  -10.17569 -10.17352 -10.16966 -10.16320  -1.09057
 Alpha  occ. eigenvalues --   -1.08216  -1.04963  -1.00406  -0.99182  -0.98572
 Alpha  occ. eigenvalues --   -0.97391  -0.96646  -0.93298  -0.83895  -0.83603
 Alpha  occ. eigenvalues --   -0.82226  -0.81998  -0.81774  -0.81461  -0.80864
 Alpha  occ. eigenvalues --   -0.80624  -0.79817  -0.79093  -0.78948  -0.78085
 Alpha  occ. eigenvalues --   -0.77549  -0.75887  -0.75416  -0.74835  -0.73842
 Alpha  occ. eigenvalues --   -0.73507  -0.73091  -0.72561  -0.71921  -0.70409
 Alpha  occ. eigenvalues --   -0.69970  -0.68788  -0.68655  -0.68295  -0.67171
 Alpha  occ. eigenvalues --   -0.67033  -0.66441  -0.66193  -0.65618  -0.65230
 Alpha  occ. eigenvalues --   -0.64816  -0.64000  -0.62119  -0.61787  -0.61365
 Alpha  occ. eigenvalues --   -0.60654  -0.59615  -0.59268  -0.58064  -0.57792
 Alpha  occ. eigenvalues --   -0.56994  -0.55855  -0.55642  -0.55382  -0.54977
 Alpha  occ. eigenvalues --   -0.54287  -0.54243  -0.53638  -0.53400  -0.52665
 Alpha  occ. eigenvalues --   -0.52631  -0.52020  -0.51565  -0.50825  -0.50378
 Alpha  occ. eigenvalues --   -0.49717  -0.48875  -0.48746  -0.48507  -0.48403
 Alpha  occ. eigenvalues --   -0.48016  -0.47767  -0.47522  -0.47248  -0.47002
 Alpha  occ. eigenvalues --   -0.46716  -0.46670  -0.46224  -0.45923  -0.45770
 Alpha  occ. eigenvalues --   -0.45548  -0.45170  -0.45083  -0.44881  -0.44592
 Alpha  occ. eigenvalues --   -0.44254  -0.44206  -0.44051  -0.43918  -0.43796
 Alpha  occ. eigenvalues --   -0.43620  -0.43496  -0.43345  -0.43206  -0.43025
 Alpha  occ. eigenvalues --   -0.42572  -0.42083  -0.41689  -0.41479  -0.41257
 Alpha  occ. eigenvalues --   -0.41136  -0.41062  -0.40933  -0.40500  -0.40433
 Alpha  occ. eigenvalues --   -0.40182  -0.40006  -0.39820  -0.39580  -0.39397
 Alpha  occ. eigenvalues --   -0.39310  -0.39064  -0.38670  -0.38567  -0.38414
 Alpha  occ. eigenvalues --   -0.38306  -0.38039  -0.37815  -0.37693  -0.37596
 Alpha  occ. eigenvalues --   -0.37363  -0.37258  -0.37071  -0.36871  -0.36797
 Alpha  occ. eigenvalues --   -0.36535  -0.36423  -0.36347  -0.35969  -0.35869
 Alpha  occ. eigenvalues --   -0.35745  -0.35380  -0.35330  -0.34805  -0.34742
 Alpha  occ. eigenvalues --   -0.34639  -0.34519  -0.34008  -0.33455  -0.33435
 Alpha  occ. eigenvalues --   -0.33361  -0.33238  -0.32922  -0.32728  -0.32443
 Alpha  occ. eigenvalues --   -0.32190  -0.32035  -0.31534  -0.31437  -0.31007
 Alpha  occ. eigenvalues --   -0.30775  -0.30563  -0.30390  -0.30306  -0.30040
 Alpha  occ. eigenvalues --   -0.29942  -0.29565  -0.28498  -0.28208  -0.28019
 Alpha  occ. eigenvalues --   -0.27354  -0.27186  -0.26967  -0.26575  -0.25914
 Alpha  occ. eigenvalues --   -0.25205  -0.24701  -0.23401  -0.22394  -0.20173
 Alpha  occ. eigenvalues --   -0.18200
 Alpha virt. eigenvalues --   -0.10140  -0.07732  -0.05145  -0.02383  -0.01294
 Alpha virt. eigenvalues --   -0.00625  -0.00049   0.00220   0.01066   0.02284
 Alpha virt. eigenvalues --    0.03439   0.03479   0.03875   0.04264   0.04332

 Mulliken charges:
               1
     1  C    0.010662
     2  C   -0.069421
     3  C   -0.086830
     4  C   -0.115144
     5  N   -0.143978
     6  C   -0.096148
     7  C   -0.108762
     8  C    0.049752
     9  C   -0.033077
    10  C    0.068844
    11  C    0.184800
    12  C   -0.002265
    13  C    0.166427
    14  O   -0.274093
    15  O   -0.325024
    16  N   -0.106355
    17  C    0.152017
    18  C    0.044846
    19  C    0.063843
    20  C    0.066988
    21  C   -0.249538
    22  C   -0.034616
    23  C   -0.085301
    24  N   -0.232106
    25  C    0.085543
    26  C   -0.143909
    27  C   -0.069050
    28  C    0.063052
    29  C    0.040426
    30  C    0.037902
    31  C    0.008772
    32  N   -0.037086
    33  C    0.108991
    34  C   -0.108681
    35  C   -0.078551
    36  C    0.104663
    37  C    0.062526
    38  C    0.090982
    39  O   -0.124939
    40  C   -0.128876
    41  C    0.220855
    42  O   -0.208399
    43  O   -0.335141
    44  C    0.164368
    45  C    0.236200
    46  C   -0.013189
    47  C   -0.174506
    48  C    0.054129
    49  C    0.092368
    50  C    0.016578
    51  C   -0.001772
    52  C   -0.105952
    53  C    0.065605
    54  C   -0.050248
    55  C    0.136725
    56  C    0.079764
    57  C   -0.024493
    58  C   -0.077019
    59  C   -0.061826
    60  C    0.072320
    61  C    0.127033
    62  C   -0.131115
    63  C   -0.107601
    64  C    0.088632
    65  H   -0.055801
    66  H   -0.017282
    67  H   -0.012350
    68  H    0.064875
    69  H   -0.018177
    70  H    0.017806
    71  H    0.035090
    72  H    0.030611
    73  H   -0.066321
    74  H   -0.023551
    75  H    0.046828
    76  H    0.047318
    77  H    0.054602
    78  H    0.069480
    79  H    0.048059
    80  H    0.021684
    81  H    0.041632
    82  H    0.035149
    83  H    0.042443
    84  H    0.024713
    85  H   -0.000399
    86  H    0.019490
    87  H   -0.013284
    88  H    0.018871
    89  H    0.011871
    90  H    0.015187
    91  H    0.032643
    92  H    0.023065
    93  H    0.044607
    94  H    0.092234
    95  H    0.030499
    96  H    0.039820
    97  H    0.043514
    98  H    0.045019
    99  H    0.060252
   100  H   -0.027567
   101  H    0.047505
   102  H    0.053158
   103  H   -0.032121
   104  H   -0.005440
   105  H   -0.011175
   106  H   -0.006462
   107  H   -0.010299
   108  H    0.019100
   109  H    0.002640
   110  H   -0.018191
   111  H    0.015973
   112  H    0.024265
   113  H   -0.008422
   114  H    0.002422
   115  H    0.003954
   116  H   -0.020928
   117  H   -0.078882
   118  H   -0.039865
   119  H   -0.018878
   120  H   -0.027670
   121  H    0.020091
   122  H    0.043012
   123  H    0.020582
   124  H    0.015402
   125  H    0.021214
   126  H   -0.023979
   127  H   -0.014453
   128  H   -0.002891
   129  H   -0.064590
   130  H    0.003129
   131  H    0.014291
   132  H    0.042024
   133  H    0.043908
   134  H    0.017197
   135  H   -0.011312
   136  H    0.005913
   137  H    0.167178
   138  H    0.169364
 Sum of Mulliken charges =  -0.00000

 Dipole moment (field-independent basis, Debye):
    X=              3.3989    Y=              2.2477    Z=             -0.1013  Tot=              4.0762
 Quadrupole moment (field-independent basis, Debye-Ang):
   XX=           -350.4159   YY=           -383.4273   ZZ=           -400.2907
   XY=            -17.8993   XZ=              1.2713   YZ=             -2.8464

 Normal termination of Gaussian 16 at Thu Aug 22 19:56:50 2019.
