 Gaussian 16, Revision A.03,
 Gaussian 16:  ES64L-G16RevA.03 25-Dec-2016

 --------------------------
 # td=(NStates=1) B3LYP/SVP
 --------------------------

 --
 TD
 --
 Symbolic Z-matrix:
 Charge =  0 Multiplicity = 1

                         Standard orientation:
 ---------------------------------------------------------------------
 Center     Atomic      Atomic             Coordinates (Angstroms)
 Number     Number       Type             X           Y           Z
 ---------------------------------------------------------------------
      1          6           0       -5.149869   -2.012054    0.585170
      2          6           0       -4.731183    2.718305    1.450225
      3          6           0       -9.309556    3.383090   -0.179129
      4          6           0       -9.720066   -1.543644   -1.078423
      5          7           0       -5.121927    0.359798    0.944412
      6          6           0       -4.465539   -0.830515    0.935852
      7          6           0       -3.059070   -0.659275    1.308348
      8          6           0       -3.006465    0.851991    1.938469
      9          6           0       -4.411677    1.351931    1.447308
     10          6           0       -2.984405    0.728929    3.512197
     11          6           0       -2.036623   -0.755421    0.174822
     12          6           0       -0.600185   -0.659826    0.578554
     13          6           0        0.314119   -0.952692   -0.547644
     14          8           0       -0.004762   -1.268338   -1.638633
     15          8           0        1.593320   -0.842453   -0.243103
     16          7           0       -7.024415    2.802585    0.616791
     17          6           0       -5.913799    3.350264    1.008564
     18          6           0       -6.164205    4.856126    1.103347
     19          6           0       -7.432638    4.954381    0.558182
     20          6           0       -7.900496    3.686644    0.235494
     21          6           0       -5.246029    5.885985    1.608399
     22          6           0       -8.108846    6.281809    0.390406
     23          6           0       -9.271722    6.586753   -0.306049
     24          7           0       -9.140690    0.937362   -0.531129
     25          6           0       -9.744821    2.155458   -0.553946
     26          6           0      -11.145474    1.894485   -1.017426
     27          6           0      -11.316194    0.529667   -1.302838
     28          6           0      -10.034541   -0.047967   -0.951309
     29          6           0      -12.186063    2.987695   -1.270204
     30          6           0      -12.547013   -0.100848   -1.830189
     31          6           0      -12.493572   -0.263590   -3.371785
     32          7           0       -7.508488   -1.354387   -0.259832
     33          6           0       -8.508515   -2.077837   -0.756717
     34          6           0       -8.059769   -3.493705   -0.800142
     35          6           0       -6.743289   -3.414590   -0.308113
     36          6           0       -6.416516   -2.092221   -0.017165
     37          6           0       -8.916683   -4.616037   -1.415460
     38          6           0       -5.675251   -4.363562    0.017409
     39          8           0       -5.721770   -5.570994    0.080172
     40          6           0       -4.524796   -3.405395    0.504033
     41          6           0       -4.059321   -3.985875    1.852792
     42          8           0       -4.331619   -3.629462    2.962358
     43          8           0       -3.286241   -4.977494    1.580368
     44          6           0       -2.547142   -5.650574    2.675432
     45          6           0        2.711184   -1.049667   -1.175796
     46          6           0        4.004428   -0.700717   -0.507376
     47          6           0        4.870383    0.192789   -0.892383
     48          6           0        4.750670    1.181001   -2.127519
     49          6           0        6.160274    0.277856   -0.198085
     50          6           0        7.395900   -0.251871   -0.865197
     51          6           0        8.693545   -0.157331   -0.119364
     52          6           0        9.991744   -0.681451   -0.784962
     53          6           0        9.929042   -2.152906   -1.161805
     54          6           0       11.238792   -0.197117    0.070001
     55          6           0       12.625422   -0.407563   -0.704757
     56          6           0       13.763107   -0.076125    0.278806
     57          6           0       15.105830   -0.128338   -0.454033
     58          6           0       15.538004   -1.561970   -0.804760
     59          6           0       16.235568    0.632939    0.413149
     60          6           0       17.638208    0.789200   -0.274133
     61          6           0       18.601742    1.535125    0.596878
     62          6           0       20.102742    1.508541    0.119324
     63          6           0       20.401864    2.007050   -1.326467
     64          6           0       20.911066    2.194797    1.199094
     65          1           0       -4.112967    3.527413    1.837417
     66          1           0      -10.006050    4.211855   -0.217188
     67          1           0      -10.620472   -2.027534   -1.396150
     68          1           0       -2.868195   -1.169250    2.077011
     69          1           0       -2.091695    1.503158    1.522584
     70          1           0       -1.924360    0.386272    3.941214
     71          1           0       -3.221704    1.811781    3.898717
     72          1           0       -3.768186    0.077569    3.958132
     73          1           0       -1.916920   -1.641676   -0.341135
     74          1           0       -2.272079    0.084083   -0.570311
     75          1           0       -0.008899    0.333956    0.965408
     76          1           0       -0.332638   -1.308021    1.331003
     77          1           0       -4.311456    5.853673    1.036061
     78          1           0       -5.797588    6.839775    1.444516
     79          1           0       -4.923178    5.755665    2.674632
     80          1           0       -7.594713    7.120737    0.896772
     81          1           0       -9.712731    5.891328   -0.994163
     82          1           0       -9.527146    7.774965   -0.384829
     83          1           0      -12.265104    3.404960   -0.297078
     84          1           0      -11.774786    3.735079   -1.913993
     85          1           0      -13.029423    2.750858   -1.814357
     86          1           0      -12.803546   -1.157769   -1.396687
     87          1           0      -13.376251    0.505543   -1.707488
     88          1           0      -12.171036    0.662022   -3.729772
     89          1           0      -11.782232   -1.125154   -3.566138
     90          1           0      -13.368506   -0.755190   -3.932462
     91          1           0       -9.839390   -4.651806   -0.812826
     92          1           0       -8.970156   -4.622507   -2.557050
     93          1           0       -8.373487   -5.598985   -1.260218
     94          1           0       -3.722755   -3.465510   -0.263261
     95          1           0       -1.988931   -6.513692    2.125187
     96          1           0       -1.924999   -4.812036    3.037989
     97          1           0       -3.315366   -6.003764    3.549326
     98          1           0        2.680315   -2.027334   -1.681646
     99          1           0        2.339515   -0.317185   -2.079909
    100          1           0        4.505752   -1.470405    0.146991
    101          1           0        4.556215    2.277159   -1.741543
    102          1           0        5.597225    1.078229   -2.828258
    103          1           0        3.834949    1.157412   -2.765687
    104          1           0        6.362755    1.400332    0.024560
    105          1           0        6.045088   -0.226164    0.650877
    106          1           0        7.182793   -1.397673   -1.020706
    107          1           0        7.620933    0.253852   -1.895182
    108          1           0        8.794870    0.970582    0.121209
    109          1           0        8.306733   -0.775024    0.894945
    110          1           0       10.000078    0.001279   -1.722862
    111          1           0        8.938289   -2.444006   -1.575549
    112          1           0       10.755720   -2.426105   -1.812595
    113          1           0       10.114046   -2.892225   -0.354631
    114          1           0       11.212344    0.720508    0.246323
    115          1           0       11.219745   -0.817976    1.104829
    116          1           0       12.731380   -1.586034   -1.279458
    117          1           0       12.636723    0.312237   -1.630482
    118          1           0       13.586365    0.904702    0.776286
    119          1           0       13.805825   -0.757424    1.123945
    120          1           0       15.095770    0.477036   -1.567865
    121          1           0       14.793188   -2.100554   -1.358976
    122          1           0       16.402484   -1.837021   -1.077541
    123          1           0       15.475030   -2.220854    0.116157
    124          1           0       15.878992    1.584903    0.742147
    125          1           0       16.395065    0.029911    1.444388
    126          1           0       18.170901   -0.196720   -0.415676
    127          1           0       17.379837    1.256599   -1.325920
    128          1           0       18.320359    2.666542    0.543690
    129          1           0       18.586842    1.211408    1.657738
    130          1           0       20.363255    0.380866    0.123511
    131          1           0       20.047905    3.044293   -1.694635
    132          1           0       21.386859    1.986913   -1.803779
    133          1           0       19.962070    1.287340   -1.944052
    134          1           0       20.718199    1.891128    2.339673
    135          1           0       22.101334    1.849971    0.982327
    136          1           0       20.852768    3.510012    0.997561
    137          1           0       -7.236319    1.910608    0.329473
    138          1           0       -7.541855   -0.349249   -0.006008
 ---------------------------------------------------------------------

 SCF Done:  E(RB3LYP) =  -2733.10205345     A.U. after   16 cycles

 Excitation energies and oscillator strengths:

 Excited State   1:      Singlet-A      2.0228 eV  612.94 nm  f=0.1771  <S**2>=0.000
     235 -> 237       -0.18000
     235 -> 238       -0.26219
     236 -> 237        0.61003
     236 -> 238       -0.15058
 This state for optimization and/or second-order correction.
 Total Energy, E(TD-HF/TD-DFT) =  -2733.02771750
 Copying the excited state density for this state as the 1-particle RhoCI density.

 The electronic state is 1-A.
 Alpha  occ. eigenvalues --  -19.17360 -19.16128 -19.12618 -19.11402 -19.10949
 Alpha  occ. eigenvalues --  -14.37304 -14.36993 -14.31758 -14.29638 -10.30705
 Alpha  occ. eigenvalues --  -10.30082 -10.27779 -10.26837 -10.26283 -10.23489
 Alpha  occ. eigenvalues --  -10.23349 -10.23079 -10.22953 -10.22751 -10.22731
 Alpha  occ. eigenvalues --  -10.22292 -10.21862 -10.21588 -10.21384 -10.21227
 Alpha  occ. eigenvalues --  -10.21192 -10.21126 -10.20956 -10.20902 -10.20759
 Alpha  occ. eigenvalues --  -10.20583 -10.20575 -10.20545 -10.20521 -10.20506
 Alpha  occ. eigenvalues --  -10.20492 -10.20382 -10.20364 -10.20361 -10.20346
 Alpha  occ. eigenvalues --  -10.20323 -10.20221 -10.20089 -10.19898 -10.19638
 Alpha  occ. eigenvalues --  -10.19463 -10.19319 -10.19248 -10.19146 -10.19128
 Alpha  occ. eigenvalues --  -10.18987 -10.18845 -10.18812 -10.18726 -10.18712
 Alpha  occ. eigenvalues --  -10.18682 -10.18605 -10.18466 -10.18360 -10.18077
 Alpha  occ. eigenvalues --  -10.18066 -10.17969 -10.17580 -10.16341  -1.10531
 Alpha  occ. eigenvalues --   -1.09690  -1.03082  -1.02372  -1.00330  -1.00185
 Alpha  occ. eigenvalues --   -0.99969  -0.94506  -0.91933  -0.85311  -0.83920
 Alpha  occ. eigenvalues --   -0.82363  -0.81938  -0.81320  -0.80628  -0.80514
 Alpha  occ. eigenvalues --   -0.79426  -0.79370  -0.79128  -0.78344  -0.77411
 Alpha  occ. eigenvalues --   -0.76385  -0.76106  -0.75417  -0.74661  -0.74169
 Alpha  occ. eigenvalues --   -0.73394  -0.73245  -0.72849  -0.72042  -0.71867
 Alpha  occ. eigenvalues --   -0.70114  -0.69246  -0.68814  -0.68510  -0.68412
 Alpha  occ. eigenvalues --   -0.67679  -0.67571  -0.66541  -0.65961  -0.65460
 Alpha  occ. eigenvalues --   -0.63678  -0.62537  -0.62368  -0.61816  -0.61123
 Alpha  occ. eigenvalues --   -0.60734  -0.59044  -0.58452  -0.58067  -0.57428
 Alpha  occ. eigenvalues --   -0.57086  -0.56358  -0.55865  -0.55360  -0.55062
 Alpha  occ. eigenvalues --   -0.54906  -0.54418  -0.54250  -0.54014  -0.52837
 Alpha  occ. eigenvalues --   -0.52548  -0.51986  -0.51859  -0.50965  -0.50624
 Alpha  occ. eigenvalues --   -0.49914  -0.49447  -0.49251  -0.49069  -0.48467
 Alpha  occ. eigenvalues --   -0.47888  -0.47590  -0.47235  -0.47105  -0.46926
 Alpha  occ. eigenvalues --   -0.46372  -0.46223  -0.46108  -0.45885  -0.45708
 Alpha  occ. eigenvalues --   -0.45456  -0.45419  -0.45268  -0.45184  -0.44884
 Alpha  occ. eigenvalues --   -0.44640  -0.44470  -0.43949  -0.43938  -0.43771
 Alpha  occ. eigenvalues --   -0.43620  -0.43371  -0.43060  -0.42923  -0.42743
 Alpha  occ. eigenvalues --   -0.42286  -0.42098  -0.41875  -0.41792  -0.41708
 Alpha  occ. eigenvalues --   -0.41475  -0.41209  -0.40967  -0.40815  -0.40578
 Alpha  occ. eigenvalues --   -0.40140  -0.40028  -0.39655  -0.39551  -0.39257
 Alpha  occ. eigenvalues --   -0.39046  -0.38888  -0.38809  -0.38579  -0.38362
 Alpha  occ. eigenvalues --   -0.38280  -0.38052  -0.37788  -0.37759  -0.37545
 Alpha  occ. eigenvalues --   -0.37467  -0.37255  -0.36924  -0.36643  -0.36357
 Alpha  occ. eigenvalues --   -0.36157  -0.36149  -0.35941  -0.35857  -0.35608
 Alpha  occ. eigenvalues --   -0.35454  -0.35264  -0.35154  -0.35014  -0.34990
 Alpha  occ. eigenvalues --   -0.34532  -0.34463  -0.34335  -0.34000  -0.33975
 Alpha  occ. eigenvalues --   -0.33601  -0.33512  -0.32941  -0.32847  -0.32349
 Alpha  occ. eigenvalues --   -0.32321  -0.32200  -0.31741  -0.31581  -0.31114
 Alpha  occ. eigenvalues --   -0.31060  -0.30675  -0.30408  -0.30359  -0.29995
 Alpha  occ. eigenvalues --   -0.29868  -0.29198  -0.28392  -0.27987  -0.27473
 Alpha  occ. eigenvalues --   -0.27377  -0.26824  -0.26296  -0.26171  -0.25791
 Alpha  occ. eigenvalues --   -0.25430  -0.24985  -0.23743  -0.21805  -0.19937
 Alpha  occ. eigenvalues --   -0.18312
 Alpha virt. eigenvalues --   -0.10088  -0.07718  -0.04441  -0.02090  -0.00509
 Alpha virt. eigenvalues --    0.00067   0.01913   0.02190   0.03000   0.03468
 Alpha virt. eigenvalues --    0.03987   0.04145   0.04371   0.04512   0.04638

 Mulliken charges:
               1
     1  C   -0.015308
     2  C   -0.017182
     3  C   -0.098037
     4  C   -0.076004
     5  N   -0.143469
     6  C   -0.082213
     7  C    0.194242
     8  C   -0.171962
     9  C    0.028157
    10  C   -0.001142
    11  C    0.126955
    12  C    0.016569
    13  C    0.114149
    14  O   -0.221453
    15  O   -0.321593
    16  N    0.159555
    17  C   -0.020769
    18  C   -0.159452
    19  C    0.031619
    20  C   -0.034310
    21  C    0.105756
    22  C   -0.047617
    23  C   -0.062840
    24  N   -0.277508
    25  C    0.120998
    26  C   -0.189508
    27  C   -0.076612
    28  C   -0.017006
    29  C    0.175122
    30  C    0.078212
    31  C   -0.008124
    32  N    0.016305
    33  C    0.138514
    34  C   -0.140128
    35  C   -0.047673
    36  C    0.112898
    37  C    0.072968
    38  C    0.074871
    39  O   -0.158109
    40  C   -0.079967
    41  C    0.168496
    42  O   -0.219109
    43  O   -0.276255
    44  C    0.126580
    45  C    0.216663
    46  C   -0.048677
    47  C   -0.132179
    48  C    0.020759
    49  C    0.156375
    50  C   -0.034558
    51  C   -0.042884
    52  C   -0.050927
    53  C    0.055526
    54  C    0.120348
    55  C   -0.086867
    56  C    0.081672
    57  C   -0.114438
    58  C    0.146415
    59  C    0.005729
    60  C    0.020207
    61  C    0.005357
    62  C   -0.086780
    63  C    0.039769
    64  C   -0.080478
    65  H   -0.040860
    66  H   -0.025029
    67  H   -0.031190
    68  H   -0.108990
    69  H    0.034015
    70  H    0.035508
    71  H    0.019474
    72  H    0.043624
    73  H   -0.004407
    74  H    0.022672
    75  H    0.039697
    76  H   -0.005339
    77  H    0.030438
    78  H    0.017493
    79  H    0.038007
    80  H   -0.001413
    81  H    0.030383
    82  H    0.046329
    83  H    0.022563
    84  H   -0.000936
    85  H   -0.014639
    86  H    0.013023
    87  H   -0.022154
    88  H    0.009598
    89  H    0.001347
    90  H    0.016244
    91  H    0.039667
    92  H    0.053417
    93  H    0.033126
    94  H    0.063738
    95  H    0.070315
    96  H    0.040964
    97  H    0.076523
    98  H    0.033492
    99  H    0.036110
   100  H    0.004287
   101  H    0.031654
   102  H    0.040175
   103  H    0.006006
   104  H    0.003014
   105  H   -0.052716
   106  H    0.004354
   107  H   -0.000012
   108  H    0.002396
   109  H   -0.001288
   110  H   -0.006080
   111  H    0.014604
   112  H    0.004193
   113  H   -0.000315
   114  H   -0.075783
   115  H    0.014477
   116  H    0.031250
   117  H    0.016039
   118  H   -0.003905
   119  H   -0.005246
   120  H    0.008457
   121  H   -0.019283
   122  H   -0.055745
   123  H   -0.028485
   124  H   -0.013277
   125  H   -0.004170
   126  H    0.001396
   127  H    0.019915
   128  H   -0.000316
   129  H    0.003029
   130  H    0.004057
   131  H    0.015342
   132  H   -0.000681
   133  H   -0.013720
   134  H    0.039708
   135  H    0.023264
   136  H    0.032559
   137  H    0.102954
   138  H    0.155438
 Sum of Mulliken charges =  -0.00000

 Dipole moment (field-independent basis, Debye):
    X=              4.3655    Y=              2.6941    Z=             -0.1893  Tot=              5.1334
 Quadrupole moment (field-independent basis, Debye-Ang):
   XX=           -375.6295   YY=           -378.5825   ZZ=           -397.9103
   XY=            -26.0597   XZ=             10.1157   YZ=             -0.1131

 Normal termination of Gaussian 16 at Sun Aug 11 00:21:19 2019.
