 Gaussian 16, Revision A.03,
 Gaussian 16:  ES64L-G16RevA.03 25-Dec-2016

 --------------------------
 # td=(NStates=1) B3LYP/SVP
 --------------------------

 --
 TD
 --
 Symbolic Z-matrix:
 Charge =  0 Multiplicity = 1

                         Standard orientation:
 ---------------------------------------------------------------------
 Center     Atomic      Atomic             Coordinates (Angstroms)
 Number     Number       Type             X           Y           Z
 ---------------------------------------------------------------------
      1          6           0       -5.180214   -1.972614    0.418880
      2          6           0       -4.565055    2.626148    1.231778
      3          6           0       -9.260039    3.428968   -0.203148
      4          6           0       -9.891418   -1.350871   -0.831314
      5          7           0       -5.199524    0.358673    0.893218
      6          6           0       -4.583853   -0.781743    0.823030
      7          6           0       -3.037109   -0.676521    1.267301
      8          6           0       -3.032680    0.777824    1.903521
      9          6           0       -4.284266    1.311265    1.358879
     10          6           0       -2.886752    0.962389    3.438637
     11          6           0       -2.145533   -0.840222    0.082974
     12          6           0       -0.627986   -0.986316    0.556933
     13          6           0        0.339303   -1.298426   -0.573430
     14          8           0        0.100607   -1.876345   -1.601352
     15          8           0        1.588384   -0.671113   -0.265609
     16          7           0       -6.971711    2.879382    0.463295
     17          6           0       -5.858479    3.380234    0.947691
     18          6           0       -6.053822    4.778741    1.068115
     19          6           0       -7.335604    5.122483    0.506163
     20          6           0       -7.970705    3.815086    0.200121
     21          6           0       -5.075158    5.861746    1.561404
     22          6           0       -8.075434    6.303612    0.315072
     23          6           0       -8.818709    6.663941   -0.689148
     24          7           0       -9.177589    0.957139   -0.439745
     25          6           0       -9.792859    2.101237   -0.343605
     26          6           0      -11.211508    1.981553   -0.776339
     27          6           0      -11.362527    0.597822   -1.081071
     28          6           0      -10.145435    0.039387   -0.816950
     29          6           0      -12.231474    3.111849   -1.056766
     30          6           0      -12.590616   -0.056335   -1.555223
     31          6           0      -12.490838   -0.322105   -3.146942
     32          7           0       -7.564377   -1.169877   -0.268538
     33          6           0       -8.673741   -1.940764   -0.549120
     34          6           0       -8.274118   -3.337944   -0.625681
     35          6           0       -6.922987   -3.372820   -0.243307
     36          6           0       -6.506564   -2.075755    0.037184
     37          6           0       -9.067944   -4.454142   -1.024650
     38          6           0       -5.829195   -4.392245    0.027626
     39          8           0       -5.696290   -5.587954    0.080566
     40          6           0       -4.565313   -3.384389    0.359402
     41          6           0       -4.005557   -3.982476    1.651858
     42          8           0       -4.326307   -3.568935    2.771500
     43          8           0       -3.026029   -4.896915    1.381009
     44          6           0       -2.470366   -5.633792    2.409235
     45          6           0        2.739185   -1.001279   -1.138100
     46          6           0        4.055179   -0.629467   -0.565254
     47          6           0        5.022034    0.006147   -1.192349
     48          6           0        4.913871    0.618018   -2.508409
     49          6           0        6.246698    0.338502   -0.495045
     50          6           0        7.473360   -0.425481   -1.098612
     51          6           0        8.815226   -0.274995   -0.232140
     52          6           0       10.118031   -0.775756   -0.792584
     53          6           0       10.029757   -2.312542   -1.096113
     54          6           0       11.294634   -0.366528    0.087528
     55          6           0       12.714632   -0.742792   -0.519109
     56          6           0       13.824528   -0.239583    0.305644
     57          6           0       15.237064   -0.274940   -0.284760
     58          6           0       15.652077   -1.719887   -0.461047
     59          6           0       16.218127    0.494029    0.612169
     60          6           0       17.560162    0.776429   -0.135869
     61          6           0       18.525861    1.603425    0.796267
     62          6           0       19.894500    1.882643    0.143476
     63          6           0       19.715184    2.594415   -1.209532
     64          6           0       20.769846    2.679027    0.999414
     65          1           0       -3.729522    3.365602    1.643551
     66          1           0       -9.866945    4.253106   -0.241435
     67          1           0      -10.901619   -2.033494   -1.162549
     68          1           0       -2.894930   -1.469273    1.976891
     69          1           0       -2.090349    1.140160    1.462227
     70          1           0       -1.842441    0.513127    3.584509
     71          1           0       -3.038289    2.010116    3.781473
     72          1           0       -3.824160    0.475650    3.908130
     73          1           0       -2.365587   -1.680411   -0.639759
     74          1           0       -2.155935    0.143620   -0.851606
     75          1           0       -0.106926   -0.331429    1.338061
     76          1           0       -0.587900   -2.028159    1.094958
     77          1           0       -4.251717    6.088657    0.945644
     78          1           0       -5.562931    6.928350    1.194351
     79          1           0       -4.896827    5.754046    2.638109
     80          1           0       -7.859555    7.016612    1.142409
     81          1           0       -9.148058    5.862628   -1.629266
     82          1           0       -9.290133    7.716763   -0.444598
     83          1           0      -12.199593    3.855521   -0.102138
     84          1           0      -11.935460    3.943349   -1.856625
     85          1           0      -13.261383    2.883277   -1.189165
     86          1           0      -12.641335   -0.893964   -0.901367
     87          1           0      -13.381771    0.615511   -1.386114
     88          1           0      -12.479594    0.725181   -3.673281
     89          1           0      -11.729724   -1.000115   -3.420377
     90          1           0      -13.492779   -0.846776   -3.479622
     91          1           0       -9.739551   -4.659393   -0.248170
     92          1           0       -9.722163   -4.239695   -1.966431
     93          1           0       -8.518228   -5.441853   -1.275331
     94          1           0       -3.636962   -3.645302   -0.436723
     95          1           0       -1.845914   -6.334406    1.921641
     96          1           0       -2.145952   -4.801622    3.081687
     97          1           0       -3.060107   -6.067274    2.898017
     98          1           0        2.825145   -2.121493   -1.075194
     99          1           0        2.670547   -0.484999   -2.068504
    100          1           0        4.222845   -0.907403    0.425269
    101          1           0        4.927471    1.586156   -2.291650
    102          1           0        5.638406    0.496033   -3.371929
    103          1           0        4.016952    0.656221   -2.938615
    104          1           0        6.560014    1.528195   -0.446131
    105          1           0        6.170438   -0.200186    0.443374
    106          1           0        7.319876   -1.511345   -1.422116
    107          1           0        7.823279   -0.024650   -2.071025
    108          1           0        8.946839    0.728892    0.092481
    109          1           0        8.519733   -0.861688    0.731012
    110          1           0       10.220479   -0.237835   -1.741086
    111          1           0        9.219098   -2.576218   -1.814046
    112          1           0       10.943901   -2.752648   -1.537194
    113          1           0       10.016385   -2.653286   -0.004181
    114          1           0       11.028217    0.778648    0.132793
    115          1           0       11.163160   -0.843263    1.095851
    116          1           0       12.781337   -1.841052   -0.655279
    117          1           0       12.685920   -0.199009   -1.497635
    118          1           0       13.738898    0.838625    0.782962
    119          1           0       13.702014   -0.735749    1.399246
    120          1           0       15.251589    0.152571   -1.220068
    121          1           0       14.965832   -2.195357   -1.431684
    122          1           0       16.595263   -1.868145   -0.929306
    123          1           0       15.520091   -2.131481    0.573814
    124          1           0       15.740298    1.460977    0.900515
    125          1           0       16.457678   -0.112415    1.490742
    126          1           0       17.988450   -0.131420   -0.542165
    127          1           0       17.552269    1.487509   -1.020680
    128          1           0       18.001195    2.609615    1.067202
    129          1           0       18.586673    0.978538    1.663895
    130          1           0       20.349728    0.839186   -0.148419
    131          1           0       19.139120    3.701520   -0.960347
    132          1           0       20.708663    2.862838   -1.763299
    133          1           0       19.034690    1.990794   -1.815841
    134          1           0       21.157496    2.071058    1.927330
    135          1           0       21.740528    2.817641    0.478903
    136          1           0       20.286063    3.618034    1.057061
    137          1           0       -7.182918    1.789479    0.349739
    138          1           0       -7.572242   -0.193276   -0.207506
 ---------------------------------------------------------------------

 SCF Done:  E(RB3LYP) =  -2733.05912558     A.U. after   17 cycles

 Excitation energies and oscillator strengths:

 Excited State   1:      Singlet-A      2.0252 eV  612.20 nm  f=0.2049  <S**2>=0.000
     235 -> 237       -0.20710
     235 -> 238        0.22833
     236 -> 237        0.61711
     236 -> 238        0.15366
 This state for optimization and/or second-order correction.
 Total Energy, E(TD-HF/TD-DFT) =  -2732.98469993
 Copying the excited state density for this state as the 1-particle RhoCI density.

 The electronic state is 1-A.
 Alpha  occ. eigenvalues --  -19.17422 -19.16334 -19.13897 -19.13090 -19.12286
 Alpha  occ. eigenvalues --  -14.37580 -14.36383 -14.31931 -14.29703 -10.31719
 Alpha  occ. eigenvalues --  -10.31667 -10.29505 -10.24624 -10.24121 -10.23698
 Alpha  occ. eigenvalues --  -10.23653 -10.23440 -10.22778 -10.22659 -10.22373
 Alpha  occ. eigenvalues --  -10.22336 -10.22025 -10.21967 -10.21933 -10.21436
 Alpha  occ. eigenvalues --  -10.21417 -10.21412 -10.20863 -10.20744 -10.20726
 Alpha  occ. eigenvalues --  -10.20636 -10.20608 -10.20531 -10.20413 -10.20326
 Alpha  occ. eigenvalues --  -10.20320 -10.20232 -10.20068 -10.20005 -10.19996
 Alpha  occ. eigenvalues --  -10.19807 -10.19799 -10.19777 -10.19710 -10.19151
 Alpha  occ. eigenvalues --  -10.19122 -10.19081 -10.19059 -10.19007 -10.18928
 Alpha  occ. eigenvalues --  -10.18883 -10.18696 -10.18644 -10.18473 -10.18333
 Alpha  occ. eigenvalues --  -10.18279 -10.18275 -10.18244 -10.18118 -10.17664
 Alpha  occ. eigenvalues --  -10.17617 -10.17564 -10.17302 -10.16811  -1.09008
 Alpha  occ. eigenvalues --   -1.06676  -1.04275  -1.00022  -0.99501  -0.98580
 Alpha  occ. eigenvalues --   -0.97582  -0.94724  -0.94312  -0.84642  -0.84074
 Alpha  occ. eigenvalues --   -0.82232  -0.82160  -0.81451  -0.81164  -0.80756
 Alpha  occ. eigenvalues --   -0.80438  -0.80300  -0.79373  -0.78536  -0.77349
 Alpha  occ. eigenvalues --   -0.76551  -0.76091  -0.75746  -0.74981  -0.74147
 Alpha  occ. eigenvalues --   -0.73417  -0.73186  -0.72315  -0.72151  -0.70926
 Alpha  occ. eigenvalues --   -0.70077  -0.69506  -0.69075  -0.68458  -0.67267
 Alpha  occ. eigenvalues --   -0.66976  -0.66521  -0.66350  -0.65961  -0.64551
 Alpha  occ. eigenvalues --   -0.63759  -0.62813  -0.62705  -0.61923  -0.61509
 Alpha  occ. eigenvalues --   -0.60799  -0.58701  -0.58569  -0.57976  -0.57474
 Alpha  occ. eigenvalues --   -0.56725  -0.56373  -0.55616  -0.55483  -0.55054
 Alpha  occ. eigenvalues --   -0.54729  -0.54349  -0.53781  -0.53588  -0.53471
 Alpha  occ. eigenvalues --   -0.52421  -0.52190  -0.51497  -0.50561  -0.50071
 Alpha  occ. eigenvalues --   -0.49975  -0.49150  -0.48585  -0.48447  -0.48108
 Alpha  occ. eigenvalues --   -0.48067  -0.47877  -0.47631  -0.47400  -0.46949
 Alpha  occ. eigenvalues --   -0.46376  -0.46208  -0.45913  -0.45861  -0.45731
 Alpha  occ. eigenvalues --   -0.45581  -0.45462  -0.45275  -0.44994  -0.44740
 Alpha  occ. eigenvalues --   -0.44547  -0.44417  -0.44152  -0.43799  -0.43637
 Alpha  occ. eigenvalues --   -0.43446  -0.43154  -0.43069  -0.42918  -0.42828
 Alpha  occ. eigenvalues --   -0.42563  -0.42239  -0.41931  -0.41875  -0.41553
 Alpha  occ. eigenvalues --   -0.41259  -0.40979  -0.40877  -0.40739  -0.40679
 Alpha  occ. eigenvalues --   -0.40299  -0.40008  -0.39663  -0.39549  -0.39453
 Alpha  occ. eigenvalues --   -0.39143  -0.38644  -0.38487  -0.38251  -0.38194
 Alpha  occ. eigenvalues --   -0.38029  -0.37739  -0.37663  -0.37434  -0.37302
 Alpha  occ. eigenvalues --   -0.37143  -0.37099  -0.36896  -0.36773  -0.36552
 Alpha  occ. eigenvalues --   -0.36352  -0.36293  -0.36128  -0.36012  -0.35763
 Alpha  occ. eigenvalues --   -0.35532  -0.35479  -0.35144  -0.35010  -0.34832
 Alpha  occ. eigenvalues --   -0.34658  -0.34447  -0.34225  -0.34044  -0.33764
 Alpha  occ. eigenvalues --   -0.33550  -0.33185  -0.32882  -0.32790  -0.32418
 Alpha  occ. eigenvalues --   -0.32329  -0.32002  -0.31465  -0.31249  -0.31044
 Alpha  occ. eigenvalues --   -0.30978  -0.30817  -0.30693  -0.30237  -0.29914
 Alpha  occ. eigenvalues --   -0.29704  -0.29389  -0.28480  -0.28442  -0.28170
 Alpha  occ. eigenvalues --   -0.27350  -0.27126  -0.27010  -0.26493  -0.26082
 Alpha  occ. eigenvalues --   -0.25390  -0.24688  -0.24147  -0.21951  -0.20420
 Alpha  occ. eigenvalues --   -0.18706
 Alpha virt. eigenvalues --   -0.10551  -0.08049  -0.04322  -0.01765  -0.00392
 Alpha virt. eigenvalues --   -0.00204   0.00154   0.00224   0.02685   0.03631
 Alpha virt. eigenvalues --    0.04017   0.04316   0.04465   0.04688   0.04717

 Mulliken charges:
               1
     1  C    0.045227
     2  C   -0.072815
     3  C   -0.024004
     4  C   -0.169792
     5  N   -0.154860
     6  C   -0.103494
     7  C    0.001054
     8  C   -0.012464
     9  C    0.026156
    10  C    0.056330
    11  C   -0.032766
    12  C    0.001686
    13  C    0.184193
    14  O   -0.208000
    15  O   -0.394801
    16  N   -0.080548
    17  C    0.050750
    18  C   -0.148971
    19  C    0.058863
    20  C    0.025091
    21  C    0.069826
    22  C   -0.079638
    23  C   -0.081409
    24  N   -0.220855
    25  C    0.084334
    26  C   -0.132480
    27  C   -0.124663
    28  C    0.056251
    29  C    0.027414
    30  C    0.137716
    31  C   -0.027813
    32  N   -0.055827
    33  C    0.123498
    34  C   -0.122383
    35  C   -0.041429
    36  C    0.147024
    37  C    0.069268
    38  C    0.128965
    39  O   -0.140826
    40  C   -0.175513
    41  C    0.213931
    42  O   -0.250753
    43  O   -0.312572
    44  C    0.358668
    45  C    0.357112
    46  C   -0.118904
    47  C   -0.133597
    48  C    0.208712
    49  C    0.099526
    50  C   -0.050893
    51  C    0.026959
    52  C   -0.057631
    53  C    0.007033
    54  C   -0.035763
    55  C    0.091966
    56  C   -0.034457
    57  C    0.001741
    58  C   -0.003109
    59  C    0.066621
    60  C   -0.039381
    61  C    0.034212
    62  C   -0.118376
    63  C   -0.057875
    64  C    0.099540
    65  H    0.004523
    66  H   -0.063048
    67  H    0.034273
    68  H   -0.002440
    69  H    0.001182
    70  H    0.038298
    71  H    0.019110
    72  H    0.033125
    73  H    0.047719
    74  H    0.035156
    75  H    0.048144
    76  H    0.041869
    77  H    0.017554
    78  H    0.012292
    79  H    0.046657
    80  H    0.015110
    81  H    0.075586
    82  H    0.045753
    83  H    0.023011
    84  H    0.033862
    85  H    0.010801
    86  H    0.001438
    87  H   -0.026580
    88  H    0.039380
    89  H    0.016993
    90  H    0.016800
    91  H    0.019626
    92  H    0.033256
    93  H    0.051643
    94  H    0.095238
    95  H    0.023716
    96  H    0.009954
    97  H   -0.091829
    98  H    0.025527
    99  H    0.006412
   100  H   -0.044268
   101  H   -0.040258
   102  H    0.031149
   103  H   -0.066458
   104  H    0.038909
   105  H   -0.015686
   106  H    0.013114
   107  H   -0.016033
   108  H   -0.026299
   109  H   -0.011836
   110  H   -0.022711
   111  H    0.023236
   112  H    0.007518
   113  H    0.011813
   114  H    0.012328
   115  H   -0.000520
   116  H    0.020305
   117  H   -0.007146
   118  H   -0.011401
   119  H   -0.012293
   120  H   -0.043572
   121  H    0.015836
   122  H   -0.001443
   123  H    0.022205
   124  H   -0.001877
   125  H   -0.010207
   126  H   -0.009458
   127  H    0.003271
   128  H    0.003535
   129  H   -0.016293
   130  H   -0.002680
   131  H    0.010862
   132  H    0.030960
   133  H    0.024212
   134  H    0.017725
   135  H   -0.008216
   136  H   -0.005681
   137  H    0.203439
   138  H    0.102807
 Sum of Mulliken charges =  -0.00000

 Dipole moment (field-independent basis, Debye):
    X=              1.8085    Y=              3.3826    Z=             -0.1475  Tot=              3.8386
 Quadrupole moment (field-independent basis, Debye-Ang):
   XX=           -345.0049   YY=           -380.5166   ZZ=           -397.4980
   XY=            -19.1221   XZ=              3.8473   YZ=              0.4870

 Normal termination of Gaussian 16 at Wed Aug 21 05:51:02 2019.
