 Gaussian 16, Revision A.03,
 Gaussian 16:  ES64L-G16RevA.03 25-Dec-2016

 --------------------------
 # td=(NStates=1) B3LYP/SVP
 --------------------------

 --
 TD
 --
 Symbolic Z-matrix:
 Charge =  0 Multiplicity = 1

                         Standard orientation:
 ---------------------------------------------------------------------
 Center     Atomic      Atomic             Coordinates (Angstroms)
 Number     Number       Type             X           Y           Z
 ---------------------------------------------------------------------
      1          6           0       -5.171341   -1.898229    0.445443
      2          6           0       -4.641418    2.717301    1.291512
      3          6           0       -9.274143    3.529003   -0.198572
      4          6           0       -9.792221   -1.183835   -1.040105
      5          7           0       -5.108112    0.346954    0.904413
      6          6           0       -4.489491   -0.852273    0.834528
      7          6           0       -3.045430   -0.655069    1.269480
      8          6           0       -2.953531    0.877308    1.698967
      9          6           0       -4.336364    1.368729    1.315718
     10          6           0       -2.836382    0.997444    3.327920
     11          6           0       -2.025333   -1.025645    0.094048
     12          6           0       -0.567485   -1.210772    0.591817
     13          6           0        0.376186   -1.618696   -0.576056
     14          8           0        0.165233   -2.103550   -1.541670
     15          8           0        1.618379   -1.136442   -0.142017
     16          7           0       -6.936572    2.852531    0.369805
     17          6           0       -5.839825    3.408376    0.915574
     18          6           0       -6.056990    4.823053    1.012352
     19          6           0       -7.275351    5.106454    0.480214
     20          6           0       -7.927731    3.849549    0.204751
     21          6           0       -4.930488    5.797168    1.386272
     22          6           0       -7.836643    6.381565    0.382281
     23          6           0       -8.990701    6.776837   -0.327492
     24          7           0       -9.079465    1.069314   -0.564013
     25          6           0       -9.814524    2.282435   -0.517290
     26          6           0      -11.235266    2.163842   -0.952194
     27          6           0      -11.393657    0.853598   -1.181533
     28          6           0      -10.080365    0.137906   -0.925349
     29          6           0      -12.198582    3.161387   -0.948880
     30          6           0      -12.627207   -0.010600   -1.603686
     31          6           0      -12.977643   -0.160860   -3.050131
     32          7           0       -7.539359   -1.125287   -0.217487
     33          6           0       -8.604413   -1.844285   -0.738229
     34          6           0       -8.293335   -3.256242   -0.712062
     35          6           0       -6.996303   -3.297267   -0.286698
     36          6           0       -6.489140   -1.996191    0.019630
     37          6           0       -9.285115   -4.407885   -0.925857
     38          6           0       -5.945803   -4.373043    0.095611
     39          8           0       -5.909748   -5.583118    0.069005
     40          6           0       -4.594010   -3.395452    0.425961
     41          6           0       -4.091991   -3.835506    1.765391
     42          8           0       -4.187581   -3.396078    2.888451
     43          8           0       -3.276495   -4.928307    1.549761
     44          6           0       -2.737678   -5.515682    2.783092
     45          6           0        2.656134   -1.336526   -1.101340
     46          6           0        3.935197   -0.913692   -0.495999
     47          6           0        4.967453   -0.267345   -1.173273
     48          6           0        4.890152    0.189522   -2.660232
     49          6           0        6.204476    0.024523   -0.530829
     50          6           0        7.416711   -0.743738   -1.025592
     51          6           0        8.784677   -0.319371   -0.224800
     52          6           0        9.998709   -0.835623   -0.851395
     53          6           0       10.120177   -2.461505   -0.955304
     54          6           0       11.237551   -0.290467   -0.037881
     55          6           0       12.681603   -0.635738   -0.567692
     56          6           0       13.828284   -0.040998    0.196417
     57          6           0       15.256216   -0.172799   -0.368173
     58          6           0       15.693210   -1.640606   -0.589848
     59          6           0       16.233059    0.739701    0.523396
     60          6           0       17.621158    1.000550   -0.081541
     61          6           0       18.563704    1.825120    0.758027
     62          6           0       20.047001    1.927295    0.242629
     63          6           0       20.099954    2.497842   -1.237772
     64          6           0       20.930929    2.748662    1.169631
     65          1           0       -4.095426    3.438707    1.907651
     66          1           0       -9.730372    4.383754   -0.376893
     67          1           0      -10.788557   -1.887410   -1.368765
     68          1           0       -2.662723   -1.181587    2.166719
     69          1           0       -2.092692    1.326826    1.154845
     70          1           0       -1.925433    0.552094    3.556651
     71          1           0       -2.962888    1.923390    3.786524
     72          1           0       -3.498221    0.249201    3.641526
     73          1           0       -2.361727   -1.889441   -0.561362
     74          1           0       -2.136591   -0.161886   -0.653258
     75          1           0       -0.285805   -0.131044    0.804032
     76          1           0       -0.415166   -2.079947    1.410639
     77          1           0       -3.915987    5.652727    0.786987
     78          1           0       -5.316880    6.803118    1.469600
     79          1           0       -4.570892    5.608611    2.372027
     80          1           0       -7.424275    7.239935    0.968256
     81          1           0       -9.298997    6.013931   -0.885418
     82          1           0       -9.349361    7.782887   -0.417576
     83          1           0      -12.547684    3.642114    0.062029
     84          1           0      -12.012819    3.938541   -1.744225
     85          1           0      -13.203316    2.827724   -1.150125
     86          1           0      -12.368419   -1.076053   -1.137735
     87          1           0      -13.682177    0.549971   -1.125406
     88          1           0      -12.983466    1.011333   -3.419894
     89          1           0      -11.951495   -0.707341   -3.733266
     90          1           0      -13.909610   -0.754285   -3.215005
     91          1           0       -9.769464   -4.829663    0.041692
     92          1           0       -9.997907   -4.246232   -1.801513
     93          1           0       -8.679519   -5.339280   -1.390646
     94          1           0       -3.862738   -3.608956   -0.416518
     95          1           0       -2.551416   -6.728326    2.530013
     96          1           0       -1.861149   -4.919905    3.148681
     97          1           0       -3.459527   -5.639715    3.499930
     98          1           0        2.754024   -2.347310   -1.684441
     99          1           0        2.474222   -0.833188   -2.007135
    100          1           0        4.100600   -1.293205    0.438811
    101          1           0        5.195272    1.184883   -2.716503
    102          1           0        5.600906   -0.252441   -3.346149
    103          1           0        3.872585    0.151333   -3.032099
    104          1           0        6.518514    1.231657   -0.591860
    105          1           0        6.377242    0.023654    0.691761
    106          1           0        7.274914   -2.008169   -0.864800
    107          1           0        7.660807   -0.584760   -2.142474
    108          1           0        8.783462    0.826046   -0.159206
    109          1           0        8.611180   -0.733654    0.907784
    110          1           0       10.087141   -0.503666   -1.921332
    111          1           0        9.301131   -2.977862   -1.468271
    112          1           0       11.063027   -2.398697   -1.654210
    113          1           0       10.440044   -2.777670    0.078318
    114          1           0       11.380832    0.908085    0.080265
    115          1           0       10.916880   -0.717274    0.914243
    116          1           0       12.695975   -1.860136   -0.792483
    117          1           0       12.542280   -0.114404   -1.541368
    118          1           0       13.655320    1.038334    0.289996
    119          1           0       13.796304   -0.383727    1.150135
    120          1           0       15.315224    0.282202   -1.515390
    121          1           0       15.179033   -2.082284   -1.307608
    122          1           0       16.636134   -1.523417   -1.019900
    123          1           0       15.816552   -2.262664    0.288205
    124          1           0       15.561655    1.661324    1.092252
    125          1           0       16.376910    0.183434    1.498070
    126          1           0       18.025818   -0.081386   -0.146589
    127          1           0       17.385908    1.472304   -1.039795
    128          1           0       18.085543    2.864414    0.704419
    129          1           0       18.480613    1.615962    1.682671
    130          1           0       20.680216    1.063852    0.214759
    131          1           0       19.469811    3.473195   -1.329372
    132          1           0       21.045921    2.781141   -1.701470
    133          1           0       19.532053    1.782086   -1.879856
    134          1           0       21.127442    2.344526    2.126587
    135          1           0       21.908156    2.776491    0.407099
    136          1           0       20.604814    3.874125    1.226772
    137          1           0       -7.145670    1.715435    0.245137
    138          1           0       -7.269684   -0.042343   -0.191576
 ---------------------------------------------------------------------

 SCF Done:  E(RB3LYP) =  -2733.01345559     A.U. after   17 cycles

 Excitation energies and oscillator strengths:

 Excited State   1:      Singlet-A      2.0568 eV  602.79 nm  f=0.1882  <S**2>=0.000
     235 -> 238       -0.29320
     236 -> 237        0.63797
 This state for optimization and/or second-order correction.
 Total Energy, E(TD-HF/TD-DFT) =  -2732.93786828
 Copying the excited state density for this state as the 1-particle RhoCI density.

 The electronic state is 1-A.
 Alpha  occ. eigenvalues --  -19.16591 -19.16204 -19.14505 -19.14232 -19.12136
 Alpha  occ. eigenvalues --  -14.37788 -14.37528 -14.31847 -14.31356 -10.31091
 Alpha  occ. eigenvalues --  -10.31031 -10.29815 -10.24449 -10.24102 -10.24038
 Alpha  occ. eigenvalues --  -10.23747 -10.23734 -10.23590 -10.22844 -10.22422
 Alpha  occ. eigenvalues --  -10.22346 -10.22275 -10.22175 -10.21928 -10.21899
 Alpha  occ. eigenvalues --  -10.21857 -10.21810 -10.21580 -10.21219 -10.20935
 Alpha  occ. eigenvalues --  -10.20824 -10.20682 -10.20614 -10.20548 -10.20546
 Alpha  occ. eigenvalues --  -10.20541 -10.20518 -10.20458 -10.20416 -10.20233
 Alpha  occ. eigenvalues --  -10.20226 -10.19979 -10.19923 -10.19767 -10.19679
 Alpha  occ. eigenvalues --  -10.19574 -10.19470 -10.19358 -10.19346 -10.19329
 Alpha  occ. eigenvalues --  -10.19328 -10.19254 -10.19210 -10.19091 -10.18920
 Alpha  occ. eigenvalues --  -10.18875 -10.18746 -10.18461 -10.18418 -10.18186
 Alpha  occ. eigenvalues --  -10.17659 -10.17400 -10.17110 -10.16013  -1.13121
 Alpha  occ. eigenvalues --   -1.07830  -1.03872  -1.03175  -0.98852  -0.97961
 Alpha  occ. eigenvalues --   -0.97701  -0.94426  -0.91787  -0.83977  -0.82568
 Alpha  occ. eigenvalues --   -0.82059  -0.81303  -0.80701  -0.80594  -0.80488
 Alpha  occ. eigenvalues --   -0.80004  -0.79674  -0.79174  -0.78886  -0.76928
 Alpha  occ. eigenvalues --   -0.76297  -0.75667  -0.75517  -0.74854  -0.74343
 Alpha  occ. eigenvalues --   -0.73259  -0.73086  -0.72519  -0.71382  -0.70503
 Alpha  occ. eigenvalues --   -0.69717  -0.69188  -0.68377  -0.68045  -0.67569
 Alpha  occ. eigenvalues --   -0.67375  -0.66652  -0.66259  -0.66147  -0.64926
 Alpha  occ. eigenvalues --   -0.64543  -0.63196  -0.62023  -0.61329  -0.60267
 Alpha  occ. eigenvalues --   -0.59515  -0.59076  -0.57999  -0.57752  -0.57382
 Alpha  occ. eigenvalues --   -0.56559  -0.55755  -0.55701  -0.55459  -0.55411
 Alpha  occ. eigenvalues --   -0.54607  -0.54427  -0.53982  -0.53449  -0.52700
 Alpha  occ. eigenvalues --   -0.52477  -0.51951  -0.51151  -0.50873  -0.50022
 Alpha  occ. eigenvalues --   -0.49926  -0.49497  -0.49339  -0.48545  -0.48342
 Alpha  occ. eigenvalues --   -0.47826  -0.47711  -0.47305  -0.47279  -0.46948
 Alpha  occ. eigenvalues --   -0.46775  -0.46054  -0.45950  -0.45578  -0.45514
 Alpha  occ. eigenvalues --   -0.45273  -0.45125  -0.44871  -0.44653  -0.44490
 Alpha  occ. eigenvalues --   -0.44457  -0.44174  -0.43878  -0.43666  -0.43509
 Alpha  occ. eigenvalues --   -0.43466  -0.43415  -0.42992  -0.42874  -0.42628
 Alpha  occ. eigenvalues --   -0.42472  -0.42405  -0.42124  -0.41797  -0.41472
 Alpha  occ. eigenvalues --   -0.41363  -0.40969  -0.40881  -0.40761  -0.40432
 Alpha  occ. eigenvalues --   -0.40200  -0.40064  -0.39856  -0.39550  -0.39442
 Alpha  occ. eigenvalues --   -0.39222  -0.39082  -0.38986  -0.38762  -0.38487
 Alpha  occ. eigenvalues --   -0.38466  -0.38339  -0.38242  -0.38128  -0.37854
 Alpha  occ. eigenvalues --   -0.37544  -0.37442  -0.36951  -0.36823  -0.36738
 Alpha  occ. eigenvalues --   -0.36213  -0.36125  -0.36014  -0.35936  -0.35486
 Alpha  occ. eigenvalues --   -0.35469  -0.35326  -0.35274  -0.35201  -0.34924
 Alpha  occ. eigenvalues --   -0.34913  -0.34259  -0.34069  -0.33836  -0.33753
 Alpha  occ. eigenvalues --   -0.33231  -0.32718  -0.32686  -0.32222  -0.32022
 Alpha  occ. eigenvalues --   -0.31980  -0.31510  -0.31478  -0.31238  -0.31063
 Alpha  occ. eigenvalues --   -0.30730  -0.30596  -0.30166  -0.30041  -0.29874
 Alpha  occ. eigenvalues --   -0.29788  -0.29497  -0.29084  -0.28558  -0.28022
 Alpha  occ. eigenvalues --   -0.27726  -0.27516  -0.27235  -0.26962  -0.26059
 Alpha  occ. eigenvalues --   -0.25336  -0.23691  -0.23654  -0.23412  -0.20030
 Alpha  occ. eigenvalues --   -0.19366
 Alpha virt. eigenvalues --   -0.10740  -0.07729  -0.04858  -0.02695  -0.00837
 Alpha virt. eigenvalues --   -0.00405   0.00329   0.01447   0.02100   0.03136
 Alpha virt. eigenvalues --    0.03698   0.04113   0.04305   0.04513   0.04823

 Mulliken charges:
               1
     1  C    0.062726
     2  C   -0.022438
     3  C    0.019596
     4  C   -0.139453
     5  N   -0.194865
     6  C   -0.080481
     7  C    0.005706
     8  C   -0.100730
     9  C    0.028957
    10  C    0.128615
    11  C   -0.041676
    12  C    0.003136
    13  C    0.129959
    14  O   -0.089686
    15  O   -0.351122
    16  N   -0.143856
    17  C    0.035487
    18  C   -0.142671
    19  C    0.153419
    20  C    0.023227
    21  C    0.115415
    22  C   -0.167316
    23  C    0.039087
    24  N   -0.313297
    25  C    0.143391
    26  C   -0.103390
    27  C   -0.015220
    28  C    0.069788
    29  C    0.069168
    30  C   -0.039120
    31  C   -0.062345
    32  N   -0.105701
    33  C    0.100366
    34  C   -0.127184
    35  C   -0.030505
    36  C    0.100691
    37  C    0.015429
    38  C    0.131389
    39  O   -0.141589
    40  C   -0.139173
    41  C    0.231946
    42  O   -0.225282
    43  O   -0.341321
    44  C    0.175641
    45  C    0.291877
    46  C   -0.053226
    47  C   -0.071211
    48  C    0.125451
    49  C   -0.021822
    50  C   -0.072492
    51  C   -0.005044
    52  C   -0.083422
    53  C   -0.017214
    54  C   -0.049007
    55  C   -0.004752
    56  C    0.126642
    57  C   -0.138319
    58  C    0.154787
    59  C   -0.071072
    60  C    0.033068
    61  C    0.156107
    62  C   -0.066319
    63  C   -0.025890
    64  C   -0.019395
    65  H   -0.025062
    66  H   -0.141427
    67  H    0.030428
    68  H    0.009583
    69  H    0.013063
    70  H   -0.011581
    71  H    0.012608
    72  H    0.007947
    73  H    0.025459
    74  H    0.011288
    75  H    0.047137
    76  H    0.072076
    77  H    0.049269
    78  H    0.005241
    79  H    0.004750
    80  H    0.003844
    81  H   -0.007060
    82  H    0.024925
    83  H    0.035269
    84  H    0.029682
    85  H   -0.018646
    86  H    0.032088
    87  H    0.027497
    88  H    0.037559
    89  H    0.025851
    90  H    0.047938
    91  H    0.069058
    92  H    0.036879
    93  H    0.045170
    94  H    0.090114
    95  H    0.043541
    96  H    0.041418
    97  H    0.014055
    98  H    0.023220
    99  H   -0.040812
   100  H   -0.041796
   101  H   -0.015187
   102  H    0.020413
   103  H    0.001695
   104  H    0.012807
   105  H    0.017225
   106  H    0.026205
   107  H    0.014172
   108  H    0.008195
   109  H    0.016005
   110  H   -0.006933
   111  H    0.034130
   112  H    0.031263
   113  H    0.025530
   114  H    0.012370
   115  H   -0.009867
   116  H    0.026259
   117  H   -0.006803
   118  H   -0.015845
   119  H   -0.038037
   120  H   -0.003803
   121  H   -0.031112
   122  H   -0.030895
   123  H    0.001103
   124  H    0.003941
   125  H   -0.012106
   126  H    0.016833
   127  H    0.010573
   128  H   -0.009700
   129  H   -0.078552
   130  H   -0.007533
   131  H    0.005886
   132  H    0.014869
   133  H    0.019165
   134  H    0.015213
   135  H    0.013188
   136  H    0.013285
   137  H    0.218787
   138  H    0.203224
 Sum of Mulliken charges =  -0.00000

 Dipole moment (field-independent basis, Debye):
    X=              0.7916    Y=              4.0228    Z=             -0.2624  Tot=              4.1083
 Quadrupole moment (field-independent basis, Debye-Ang):
   XX=           -343.4554   YY=           -386.2931   ZZ=           -394.7087
   XY=            -27.6455   XZ=              8.7108   YZ=              0.6943

 Normal termination of Gaussian 16 at Mon Aug 19 17:51:06 2019.
