 Gaussian 16, Revision A.03,
 Gaussian 16:  ES64L-G16RevA.03 25-Dec-2016

 --------------------------
 # td=(NStates=1) B3LYP/SVP
 --------------------------

 --
 TD
 --
 Symbolic Z-matrix:
 Charge =  0 Multiplicity = 1

                         Standard orientation:
 ---------------------------------------------------------------------
 Center     Atomic      Atomic             Coordinates (Angstroms)
 Number     Number       Type             X           Y           Z
 ---------------------------------------------------------------------
      1          6           0       -5.110910   -1.950000    0.469295
      2          6           0       -4.705868    2.754953    1.381636
      3          6           0       -9.322965    3.483435   -0.309090
      4          6           0       -9.852849   -1.387335   -0.820029
      5          7           0       -5.181127    0.453144    0.811288
      6          6           0       -4.532869   -0.748158    0.900471
      7          6           0       -3.094338   -0.601752    1.311659
      8          6           0       -3.047370    0.885881    1.869592
      9          6           0       -4.358530    1.433783    1.283651
     10          6           0       -2.864437    0.962464    3.438595
     11          6           0       -2.037723   -0.801715    0.119790
     12          6           0       -0.576014   -0.702406    0.644924
     13          6           0        0.341780   -1.106722   -0.409146
     14          8           0        0.029057   -1.469504   -1.587509
     15          8           0        1.611793   -0.871904   -0.130428
     16          7           0       -7.077051    2.748522    0.414064
     17          6           0       -5.917287    3.395396    0.958289
     18          6           0       -6.173448    4.763030    0.973129
     19          6           0       -7.438842    4.975520    0.502869
     20          6           0       -8.027785    3.682945    0.173120
     21          6           0       -5.234788    5.878891    1.420335
     22          6           0       -8.159878    6.310193    0.318997
     23          6           0       -9.080920    6.638433   -0.544031
     24          7           0       -9.152055    0.908324   -0.421971
     25          6           0       -9.829953    2.096558   -0.563655
     26          6           0      -11.213423    1.923208   -1.024629
     27          6           0      -11.385511    0.570438   -1.157360
     28          6           0      -10.070262   -0.012725   -0.713657
     29          6           0      -12.228208    3.043900   -1.147248
     30          6           0      -12.568108   -0.224212   -1.630710
     31          6           0      -12.720950   -0.421619   -3.123374
     32          7           0       -7.491089   -1.227708   -0.116673
     33          6           0       -8.577197   -1.937128   -0.486036
     34          6           0       -8.255937   -3.397979   -0.620837
     35          6           0       -6.929132   -3.416326   -0.237468
     36          6           0       -6.477821   -2.060980    0.014774
     37          6           0       -9.228182   -4.599530   -0.901107
     38          6           0       -5.738980   -4.289063   -0.074808
     39          8           0       -5.548845   -5.441268   -0.214076
     40          6           0       -4.547803   -3.360203    0.327166
     41          6           0       -3.792538   -3.876013    1.542099
     42          8           0       -3.959517   -3.560833    2.721214
     43          8           0       -2.943476   -4.905477    1.216478
     44          6           0       -2.487874   -5.624078    2.377590
     45          6           0        2.631320   -1.169710   -1.106378
     46          6           0        3.926803   -0.810406   -0.376970
     47          6           0        4.889002   -0.157951   -0.846678
     48          6           0        4.769833    0.800692   -2.097607
     49          6           0        6.220321    0.080245   -0.174257
     50          6           0        7.453664   -0.474221   -0.981914
     51          6           0        8.737344   -0.407250   -0.129813
     52          6           0       10.117947   -0.746658   -0.808155
     53          6           0       10.086251   -2.272559   -1.022133
     54          6           0       11.214304   -0.364446    0.074946
     55          6           0       12.627560   -0.583670   -0.581706
     56          6           0       13.754805    0.132108    0.111797
     57          6           0       15.235254   -0.189105   -0.424810
     58          6           0       15.664852   -1.632288   -0.374078
     59          6           0       16.227669    0.704994    0.367601
     60          6           0       17.629566    0.902579   -0.263478
     61          6           0       18.657140    1.720802    0.563262
     62          6           0       20.099844    1.686566    0.080769
     63          6           0       20.140785    2.354728   -1.362790
     64          6           0       21.151486    2.395113    0.952779
     65          1           0       -4.055106    3.470309    1.803497
     66          1           0       -9.918644    4.338524   -0.256225
     67          1           0      -10.756092   -2.026137   -1.114776
     68          1           0       -2.723608   -1.201210    2.139520
     69          1           0       -2.273607    1.449350    1.407583
     70          1           0       -1.879566    0.306018    3.746926
     71          1           0       -3.222140    1.970424    3.939042
     72          1           0       -3.525594    0.328155    4.120934
     73          1           0       -2.231870   -1.839829   -0.067696
     74          1           0       -2.281496   -0.052584   -0.641065
     75          1           0       -0.097730    0.306790    1.013645
     76          1           0       -0.417710   -1.365462    1.531484
     77          1           0       -4.352193    5.902675    0.772707
     78          1           0       -5.700081    6.872903    1.241547
     79          1           0       -4.725550    5.645462    2.292430
     80          1           0       -8.052707    6.925394    1.261002
     81          1           0       -9.363526    6.208766   -1.460355
     82          1           0       -9.724552    7.670401   -0.322974
     83          1           0      -12.525644    3.667219   -0.091060
     84          1           0      -12.080165    3.760305   -2.018896
     85          1           0      -13.277585    2.673403   -1.340190
     86          1           0      -12.928920   -1.216097   -1.384531
     87          1           0      -13.693304    0.302541   -1.444917
     88          1           0      -12.231234    0.656999   -3.589303
     89          1           0      -12.054279   -1.255019   -3.633454
     90          1           0      -13.944017   -0.668267   -3.467791
     91          1           0      -10.078263   -4.304801   -0.289800
     92          1           0       -9.593475   -4.695580   -1.907277
     93          1           0       -8.801560   -5.642556   -0.706094
     94          1           0       -3.831276   -3.466256   -0.555943
     95          1           0       -2.058699   -6.517625    1.931252
     96          1           0       -1.593503   -5.237712    3.047095
     97          1           0       -3.330721   -6.044344    2.941151
     98          1           0        2.389931   -2.283329   -1.350775
     99          1           0        2.479461   -0.512697   -1.810036
    100          1           0        3.843092   -1.387459    0.504233
    101          1           0        5.066238    1.856295   -1.981932
    102          1           0        5.579185    0.517227   -2.732712
    103          1           0        3.887185    0.752607   -2.542684
    104          1           0        6.187465    1.217311   -0.135235
    105          1           0        6.278636   -0.423329    0.833625
    106          1           0        7.241445   -1.482800   -1.367323
    107          1           0        7.449367    0.138685   -1.783190
    108          1           0        8.695253    0.585393    0.199536
    109          1           0        8.864512   -1.100914    0.688767
    110          1           0       10.084683   -0.451502   -1.850965
    111          1           0        9.336255   -2.499605   -1.603080
    112          1           0       11.140655   -2.690553   -1.268743
    113          1           0        9.874671   -2.844384   -0.008266
    114          1           0       11.337813    0.703510    0.268984
    115          1           0       11.174199   -0.927018    1.074017
    116          1           0       12.746255   -1.668466   -0.605764
    117          1           0       12.461203   -0.137402   -1.601119
    118          1           0       13.702947    1.200940    0.102202
    119          1           0       13.644603   -0.076266    1.163205
    120          1           0       15.405832    0.320152   -1.527002
    121          1           0       14.932466   -2.227099   -0.917597
    122          1           0       16.717887   -2.122522   -0.527605
    123          1           0       15.304242   -2.147036    0.766516
    124          1           0       15.799703    1.727570    0.538849
    125          1           0       16.252548    0.171655    1.303197
    126          1           0       17.756187   -0.165893   -0.449000
    127          1           0       17.538508    1.310060   -1.382955
    128          1           0       18.186780    2.832084    0.585611
    129          1           0       18.511967    1.451474    1.574068
    130          1           0       20.398393    0.576185   -0.077695
    131          1           0       20.047392    3.556223   -1.280362
    132          1           0       21.029325    2.374144   -1.759506
    133          1           0       19.501210    2.056310   -2.116625
    134          1           0       21.035173    1.882494    1.963449
    135          1           0       22.207248    2.294819    0.746796
    136          1           0       20.907163    3.460511    1.194335
    137          1           0       -7.206611    1.765638    0.401108
    138          1           0       -7.601876   -0.213133   -0.169278
 ---------------------------------------------------------------------

 SCF Done:  E(RB3LYP) =  -2733.10571232     A.U. after   17 cycles

 Excitation energies and oscillator strengths:

 Excited State   1:      Singlet-A      2.0768 eV  597.00 nm  f=0.1395  <S**2>=0.000
     235 -> 237       -0.11130
     235 -> 238        0.32877
     236 -> 237        0.60973
 This state for optimization and/or second-order correction.
 Total Energy, E(TD-HF/TD-DFT) =  -2733.02939208
 Copying the excited state density for this state as the 1-particle RhoCI density.

 The electronic state is 1-A.
 Alpha  occ. eigenvalues --  -19.17855 -19.16950 -19.12616 -19.12333 -19.10668
 Alpha  occ. eigenvalues --  -14.37830 -14.36590 -14.32283 -14.31174 -10.31641
 Alpha  occ. eigenvalues --  -10.30737 -10.28131 -10.24376 -10.24003 -10.23971
 Alpha  occ. eigenvalues --  -10.23883 -10.23819 -10.23319 -10.22997 -10.22662
 Alpha  occ. eigenvalues --  -10.22572 -10.22531 -10.21778 -10.21777 -10.21487
 Alpha  occ. eigenvalues --  -10.21461 -10.21171 -10.21127 -10.21052 -10.20893
 Alpha  occ. eigenvalues --  -10.20769 -10.20729 -10.20688 -10.20664 -10.20460
 Alpha  occ. eigenvalues --  -10.20449 -10.20315 -10.20271 -10.20131 -10.20113
 Alpha  occ. eigenvalues --  -10.20076 -10.20045 -10.19755 -10.19716 -10.19630
 Alpha  occ. eigenvalues --  -10.19611 -10.19590 -10.19495 -10.19421 -10.19277
 Alpha  occ. eigenvalues --  -10.18899 -10.18591 -10.18582 -10.18444 -10.18361
 Alpha  occ. eigenvalues --  -10.18333 -10.18312 -10.18275 -10.18232 -10.17788
 Alpha  occ. eigenvalues --  -10.17678 -10.17635 -10.17494 -10.16392  -1.09116
 Alpha  occ. eigenvalues --   -1.08485  -1.05269  -1.00493  -0.99177  -0.97616
 Alpha  occ. eigenvalues --   -0.96884  -0.94335  -0.93641  -0.84575  -0.83346
 Alpha  occ. eigenvalues --   -0.82431  -0.82060  -0.80994  -0.80875  -0.80558
 Alpha  occ. eigenvalues --   -0.79908  -0.79537  -0.79266  -0.78761  -0.77832
 Alpha  occ. eigenvalues --   -0.77033  -0.76375  -0.75526  -0.74911  -0.74420
 Alpha  occ. eigenvalues --   -0.73238  -0.72979  -0.72377  -0.71878  -0.71422
 Alpha  occ. eigenvalues --   -0.70351  -0.69246  -0.69197  -0.68064  -0.67820
 Alpha  occ. eigenvalues --   -0.67447  -0.67241  -0.66747  -0.66109  -0.65870
 Alpha  occ. eigenvalues --   -0.63778  -0.63340  -0.62948  -0.61817  -0.61203
 Alpha  occ. eigenvalues --   -0.59691  -0.59158  -0.58693  -0.57972  -0.57316
 Alpha  occ. eigenvalues --   -0.57261  -0.56243  -0.56121  -0.55912  -0.55760
 Alpha  occ. eigenvalues --   -0.55414  -0.55095  -0.54430  -0.54094  -0.53419
 Alpha  occ. eigenvalues --   -0.52962  -0.52120  -0.51576  -0.51094  -0.50397
 Alpha  occ. eigenvalues --   -0.50101  -0.49828  -0.49240  -0.48785  -0.48549
 Alpha  occ. eigenvalues --   -0.48190  -0.47984  -0.47573  -0.47372  -0.47261
 Alpha  occ. eigenvalues --   -0.46770  -0.46330  -0.45961  -0.45880  -0.45734
 Alpha  occ. eigenvalues --   -0.45558  -0.45341  -0.45197  -0.45029  -0.44593
 Alpha  occ. eigenvalues --   -0.44508  -0.44260  -0.43909  -0.43770  -0.43655
 Alpha  occ. eigenvalues --   -0.43322  -0.43059  -0.42980  -0.42800  -0.42535
 Alpha  occ. eigenvalues --   -0.42432  -0.42313  -0.42198  -0.41644  -0.41347
 Alpha  occ. eigenvalues --   -0.41180  -0.41145  -0.41001  -0.40831  -0.40337
 Alpha  occ. eigenvalues --   -0.40292  -0.39996  -0.39878  -0.39768  -0.39626
 Alpha  occ. eigenvalues --   -0.39303  -0.39096  -0.38963  -0.38890  -0.38811
 Alpha  occ. eigenvalues --   -0.38506  -0.38194  -0.38116  -0.37953  -0.37811
 Alpha  occ. eigenvalues --   -0.37410  -0.37353  -0.37002  -0.36940  -0.36532
 Alpha  occ. eigenvalues --   -0.36334  -0.36152  -0.35901  -0.35726  -0.35655
 Alpha  occ. eigenvalues --   -0.35209  -0.35153  -0.35091  -0.34828  -0.34736
 Alpha  occ. eigenvalues --   -0.34583  -0.34248  -0.33981  -0.33775  -0.33510
 Alpha  occ. eigenvalues --   -0.33257  -0.32869  -0.32788  -0.32641  -0.32282
 Alpha  occ. eigenvalues --   -0.32023  -0.31609  -0.31592  -0.31215  -0.30872
 Alpha  occ. eigenvalues --   -0.30816  -0.30740  -0.30372  -0.30324  -0.29576
 Alpha  occ. eigenvalues --   -0.29414  -0.29059  -0.28304  -0.28246  -0.27736
 Alpha  occ. eigenvalues --   -0.27640  -0.27408  -0.27117  -0.26920  -0.26345
 Alpha  occ. eigenvalues --   -0.25556  -0.25300  -0.25058  -0.23837  -0.19840
 Alpha  occ. eigenvalues --   -0.18990
 Alpha virt. eigenvalues --   -0.10133  -0.07985  -0.03910  -0.01550  -0.00799
 Alpha virt. eigenvalues --   -0.00445   0.00486   0.01220   0.01957   0.02757
 Alpha virt. eigenvalues --    0.03719   0.04464   0.04582   0.04821   0.05051

 Mulliken charges:
               1
     1  C    0.073043
     2  C   -0.042807
     3  C   -0.060359
     4  C   -0.099445
     5  N   -0.182706
     6  C   -0.027218
     7  C   -0.090277
     8  C    0.037531
     9  C    0.013401
    10  C   -0.023625
    11  C    0.127880
    12  C   -0.010746
    13  C    0.169976
    14  O   -0.309135
    15  O   -0.321412
    16  N   -0.061366
    17  C    0.089132
    18  C   -0.135360
    19  C   -0.025719
    20  C    0.079315
    21  C    0.178045
    22  C   -0.008964
    23  C   -0.070232
    24  N   -0.244340
    25  C    0.069386
    26  C   -0.099632
    27  C   -0.001000
    28  C    0.049244
    29  C    0.011581
    30  C    0.001822
    31  C   -0.147743
    32  N    0.060109
    33  C    0.027801
    34  C   -0.159453
    35  C   -0.018769
    36  C   -0.002730
    37  C    0.098379
    38  C    0.070075
    39  O   -0.113771
    40  C   -0.057083
    41  C    0.206575
    42  O   -0.241111
    43  O   -0.305453
    44  C    0.169254
    45  C    0.360181
    46  C   -0.129547
    47  C   -0.051942
    48  C    0.138858
    49  C    0.021820
    50  C    0.074673
    51  C    0.067111
    52  C   -0.062823
    53  C    0.035779
    54  C    0.033276
    55  C    0.025264
    56  C    0.075242
    57  C   -0.113189
    58  C   -0.028564
    59  C    0.016169
    60  C   -0.004141
    61  C    0.077167
    62  C   -0.090084
    63  C    0.088856
    64  C    0.033632
    65  H   -0.061552
    66  H   -0.031248
    67  H    0.012980
    68  H   -0.003488
    69  H   -0.017096
    70  H    0.034983
    71  H    0.035151
    72  H    0.019824
    73  H    0.012694
    74  H    0.025474
    75  H    0.058232
    76  H    0.033011
    77  H    0.001142
    78  H    0.025521
    79  H   -0.000527
    80  H    0.034124
    81  H    0.020478
    82  H    0.040325
    83  H    0.045599
    84  H    0.035465
    85  H    0.008880
    86  H    0.003989
    87  H    0.019480
    88  H    0.028989
    89  H    0.032822
    90  H    0.039675
    91  H    0.031180
    92  H    0.020181
    93  H    0.053227
    94  H    0.078673
    95  H    0.010338
    96  H    0.046139
    97  H    0.034900
    98  H    0.049837
    99  H   -0.062861
   100  H   -0.038326
   101  H    0.012312
   102  H   -0.007775
   103  H   -0.031463
   104  H    0.019506
   105  H    0.004265
   106  H    0.001118
   107  H   -0.037555
   108  H   -0.025737
   109  H   -0.013162
   110  H   -0.017648
   111  H   -0.034700
   112  H    0.022696
   113  H   -0.006099
   114  H   -0.014356
   115  H    0.003726
   116  H    0.005373
   117  H   -0.001825
   118  H   -0.018242
   119  H   -0.020477
   120  H    0.009391
   121  H    0.009361
   122  H    0.057501
   123  H   -0.000763
   124  H   -0.013064
   125  H   -0.017733
   126  H   -0.026853
   127  H    0.009179
   128  H    0.002070
   129  H   -0.025605
   130  H    0.012111
   131  H   -0.008963
   132  H   -0.054309
   133  H   -0.008047
   134  H   -0.001721
   135  H    0.015206
   136  H    0.012623
   137  H    0.123517
   138  H    0.148102
 Sum of Mulliken charges =  -0.00000

 Dipole moment (field-independent basis, Debye):
    X=              1.6469    Y=              3.6565    Z=              0.9583  Tot=              4.1232
 Quadrupole moment (field-independent basis, Debye-Ang):
   XX=           -345.7724   YY=           -378.4716   ZZ=           -400.8113
   XY=            -19.6731   XZ=              6.0560   YZ=             -0.6136

 Normal termination of Gaussian 16 at Thu Aug 22 11:19:02 2019.
