 Gaussian 16, Revision A.03,
 Gaussian 16:  ES64L-G16RevA.03 25-Dec-2016

 --------------------------
 # td=(NStates=1) B3LYP/SVP
 --------------------------

 --
 TD
 --
 Symbolic Z-matrix:
 Charge =  0 Multiplicity = 1

                         Standard orientation:
 ---------------------------------------------------------------------
 Center     Atomic      Atomic             Coordinates (Angstroms)
 Number     Number       Type             X           Y           Z
 ---------------------------------------------------------------------
      1          6           0       -5.237227   -1.954368    0.510694
      2          6           0       -4.728075    2.735981    1.438860
      3          6           0       -9.207164    3.483905   -0.441490
      4          6           0       -9.854837   -1.326685   -0.835907
      5          7           0       -5.250392    0.432212    0.761313
      6          6           0       -4.537652   -0.770748    0.787244
      7          6           0       -3.063055   -0.618647    1.191032
      8          6           0       -3.008362    0.802214    1.653755
      9          6           0       -4.395880    1.399332    1.249294
     10          6           0       -2.889849    0.981383    3.273239
     11          6           0       -2.074754   -1.034051    0.053165
     12          6           0       -0.628155   -0.908733    0.645588
     13          6           0        0.381856   -1.165195   -0.515318
     14          8           0        0.206514   -1.848559   -1.620890
     15          8           0        1.668659   -0.793997   -0.119735
     16          7           0       -7.003594    2.798313    0.377825
     17          6           0       -5.850975    3.435411    1.016250
     18          6           0       -6.203808    4.775430    1.144046
     19          6           0       -7.400218    5.089331    0.456932
     20          6           0       -7.930164    3.830021    0.105873
     21          6           0       -5.268310    5.842941    1.540942
     22          6           0       -7.995284    6.443234    0.342657
     23          6           0       -8.934713    6.770293   -0.565756
     24          7           0       -9.202389    0.972156   -0.501632
     25          6           0       -9.778941    2.148992   -0.680903
     26          6           0      -11.174180    1.970133   -1.070765
     27          6           0      -11.329291    0.636478   -1.150876
     28          6           0      -10.061449    0.037060   -0.863389
     29          6           0      -12.194104    3.115910   -1.102552
     30          6           0      -12.554636   -0.016273   -1.500887
     31          6           0      -12.604247   -0.424466   -3.083547
     32          7           0       -7.546611   -1.227513   -0.063934
     33          6           0       -8.737317   -1.932209   -0.348793
     34          6           0       -8.345873   -3.384308   -0.555905
     35          6           0       -6.956104   -3.391642   -0.117200
     36          6           0       -6.562326   -2.120858    0.182486
     37          6           0       -9.188170   -4.435642   -0.977217
     38          6           0       -5.820117   -4.297678    0.113770
     39          8           0       -5.839995   -5.474619   -0.028877
     40          6           0       -4.670025   -3.443171    0.470460
     41          6           0       -3.974481   -3.852622    1.742205
     42          8           0       -4.294371   -3.392788    2.884473
     43          8           0       -3.215048   -4.870170    1.558739
     44          6           0       -2.664739   -5.557566    2.720321
     45          6           0        2.605694   -1.181188   -1.155915
     46          6           0        3.902057   -0.877334   -0.577381
     47          6           0        4.917026   -0.215867   -0.987963
     48          6           0        4.804756    0.498103   -2.342414
     49          6           0        6.341546   -0.129057   -0.256958
     50          6           0        7.528870   -0.571817   -1.192585
     51          6           0        8.800950   -0.561838   -0.344002
     52          6           0       10.048737   -0.890776   -0.986067
     53          6           0       10.136041   -2.320938   -1.311626
     54          6           0       11.379191   -0.409655   -0.132785
     55          6           0       12.830796   -0.561420   -0.775270
     56          6           0       13.903313   -0.049237    0.109878
     57          6           0       15.327072   -0.067279   -0.521928
     58          6           0       15.839846   -1.434648   -0.776606
     59          6           0       16.290087    0.739085    0.393844
     60          6           0       17.637869    0.849424   -0.142038
     61          6           0       18.518233    1.641225    0.934603
     62          6           0       20.035031    1.860139    0.368121
     63          6           0       20.114454    2.594813   -0.916661
     64          6           0       20.901028    2.497526    1.479631
     65          1           0       -3.929979    3.442321    1.915652
     66          1           0       -9.987212    4.316697   -0.398647
     67          1           0      -10.676096   -1.962137   -1.374014
     68          1           0       -2.997583   -1.301584    2.127508
     69          1           0       -2.122164    1.366666    1.102646
     70          1           0       -2.015056    0.584092    3.415755
     71          1           0       -3.083464    2.143809    3.603230
     72          1           0       -3.867664    0.440055    3.667704
     73          1           0       -2.093355   -1.933689   -0.193861
     74          1           0       -2.134776   -0.325533   -0.825763
     75          1           0       -0.307269    0.130809    1.096414
     76          1           0       -0.357423   -1.756255    1.388908
     77          1           0       -4.304304    6.013974    0.655964
     78          1           0       -5.858478    6.798874    1.853800
     79          1           0       -4.487822    5.393208    2.470571
     80          1           0       -7.746031    7.316546    0.967296
     81          1           0       -9.278030    6.103070   -1.271861
     82          1           0       -9.608192    7.806000   -0.887731
     83          1           0      -12.122389    4.080578   -0.370640
     84          1           0      -12.040271    3.746513   -2.070144
     85          1           0      -13.145035    2.593866   -1.051766
     86          1           0      -12.770407   -0.817962   -0.836487
     87          1           0      -13.531500    0.547386   -1.380280
     88          1           0      -12.553330    0.516691   -3.461896
     89          1           0      -11.880605   -1.149400   -3.391057
     90          1           0      -13.651601   -0.813349   -3.359433
     91          1           0      -10.386727   -4.341509   -0.652098
     92          1           0       -9.361162   -4.630554   -2.214567
     93          1           0       -8.674158   -5.268526   -0.709415
     94          1           0       -3.949935   -3.403180   -0.263921
     95          1           0       -1.861273   -6.188546    2.501161
     96          1           0       -2.283586   -4.859015    3.359220
     97          1           0       -3.600710   -6.170900    3.159335
     98          1           0        2.523000   -2.268683   -1.637900
     99          1           0        2.474734   -0.602237   -1.988722
    100          1           0        4.528227   -1.559990    0.217905
    101          1           0        5.417286    1.580097   -2.444831
    102          1           0        5.063124   -0.185837   -3.276895
    103          1           0        3.498163    0.918133   -2.433356
    104          1           0        6.529568    0.904342   -0.207800
    105          1           0        6.361804   -0.693896    0.755853
    106          1           0        7.395107   -1.560500   -1.556089
    107          1           0        7.893489    0.367254   -1.915623
    108          1           0        8.927220    0.528734    0.029123
    109          1           0        8.420555   -1.279673    0.488462
    110          1           0       10.381090   -0.388726   -1.965048
    111          1           0        9.232033   -2.521579   -1.899015
    112          1           0       10.937610   -2.650298   -1.967583
    113          1           0       10.146237   -3.153458   -0.607973
    114          1           0       11.239353    0.550998    0.187660
    115          1           0       11.361075   -0.905569    0.795273
    116          1           0       12.986915   -1.715437   -1.098054
    117          1           0       12.562668   -0.089861   -1.755944
    118          1           0       13.808302    1.109080    0.381427
    119          1           0       13.795279   -0.694373    0.965670
    120          1           0       15.427850    0.364996   -1.380512
    121          1           0       15.201958   -2.141162   -1.476638
    122          1           0       16.903987   -1.363166   -1.305815
    123          1           0       15.910911   -1.805900    0.098624
    124          1           0       15.692862    1.726273    0.511408
    125          1           0       16.413757    0.007323    1.376372
    126          1           0       18.116948   -0.142654   -0.224973
    127          1           0       17.689404    1.147105   -1.199468
    128          1           0       18.018141    2.544962    1.016681
    129          1           0       18.537612    0.989933    1.746807
    130          1           0       20.229036    0.792460    0.278373
    131          1           0       19.703623    3.686308   -1.047793
    132          1           0       21.313086    2.908611   -1.197630
    133          1           0       19.603827    2.178936   -1.785991
    134          1           0       21.100596    1.923278    2.384296
    135          1           0       21.923056    2.562106    1.233265
    136          1           0       20.617268    3.518834    1.615670
    137          1           0       -7.206330    1.897480    0.165187
    138          1           0       -7.717822   -0.323027   -0.015794
 ---------------------------------------------------------------------

 SCF Done:  E(RB3LYP) =  -2732.88906068     A.U. after   17 cycles

 Excitation energies and oscillator strengths:

 Excited State   1:      Singlet-A      1.9941 eV  621.76 nm  f=0.1358  <S**2>=0.000
     235 -> 237       -0.16926
     235 -> 238       -0.32456
     236 -> 237        0.58926
     236 -> 238       -0.12082
 This state for optimization and/or second-order correction.
 Total Energy, E(TD-HF/TD-DFT) =  -2732.81577913
 Copying the excited state density for this state as the 1-particle RhoCI density.

 The electronic state is 1-A.
 Alpha  occ. eigenvalues --  -19.19768 -19.19031 -19.13496 -19.12259 -19.11601
 Alpha  occ. eigenvalues --  -14.35804 -14.35437 -14.32592 -14.29346 -10.33104
 Alpha  occ. eigenvalues --  -10.32120 -10.27569 -10.25701 -10.24656 -10.23880
 Alpha  occ. eigenvalues --  -10.23730 -10.23370 -10.23319 -10.23273 -10.23118
 Alpha  occ. eigenvalues --  -10.23096 -10.22932 -10.22868 -10.22356 -10.21569
 Alpha  occ. eigenvalues --  -10.21510 -10.21226 -10.21148 -10.21057 -10.21039
 Alpha  occ. eigenvalues --  -10.20932 -10.20667 -10.20498 -10.20413 -10.20382
 Alpha  occ. eigenvalues --  -10.20367 -10.20336 -10.20234 -10.20221 -10.20188
 Alpha  occ. eigenvalues --  -10.20119 -10.20113 -10.20048 -10.19999 -10.19643
 Alpha  occ. eigenvalues --  -10.19435 -10.19328 -10.19267 -10.19223 -10.19191
 Alpha  occ. eigenvalues --  -10.18974 -10.18837 -10.18729 -10.18196 -10.18098
 Alpha  occ. eigenvalues --  -10.17818 -10.17660 -10.17451 -10.17120 -10.17073
 Alpha  occ. eigenvalues --  -10.16999 -10.16907 -10.16820 -10.16742  -1.11617
 Alpha  occ. eigenvalues --   -1.07911  -1.04642  -0.98389  -0.97965  -0.97215
 Alpha  occ. eigenvalues --   -0.95952  -0.95211  -0.92911  -0.86082  -0.83111
 Alpha  occ. eigenvalues --   -0.82703  -0.82035  -0.81931  -0.81427  -0.80986
 Alpha  occ. eigenvalues --   -0.80070  -0.79807  -0.79635  -0.79274  -0.77561
 Alpha  occ. eigenvalues --   -0.77257  -0.76593  -0.76186  -0.75432  -0.74314
 Alpha  occ. eigenvalues --   -0.73836  -0.73300  -0.72599  -0.72212  -0.71162
 Alpha  occ. eigenvalues --   -0.70450  -0.69437  -0.68288  -0.67666  -0.67640
 Alpha  occ. eigenvalues --   -0.67301  -0.66746  -0.66224  -0.65735  -0.65415
 Alpha  occ. eigenvalues --   -0.64136  -0.63742  -0.63519  -0.62393  -0.61704
 Alpha  occ. eigenvalues --   -0.61185  -0.59167  -0.58550  -0.58027  -0.57334
 Alpha  occ. eigenvalues --   -0.56892  -0.56522  -0.56150  -0.56110  -0.55736
 Alpha  occ. eigenvalues --   -0.55121  -0.55006  -0.54514  -0.54068  -0.53350
 Alpha  occ. eigenvalues --   -0.52563  -0.52248  -0.52078  -0.51270  -0.50402
 Alpha  occ. eigenvalues --   -0.49934  -0.49794  -0.49474  -0.49372  -0.48510
 Alpha  occ. eigenvalues --   -0.48410  -0.48206  -0.48013  -0.47753  -0.47217
 Alpha  occ. eigenvalues --   -0.46927  -0.46658  -0.46540  -0.46078  -0.45905
 Alpha  occ. eigenvalues --   -0.45809  -0.45440  -0.45293  -0.44859  -0.44807
 Alpha  occ. eigenvalues --   -0.44505  -0.44421  -0.44307  -0.43932  -0.43684
 Alpha  occ. eigenvalues --   -0.43371  -0.43330  -0.42965  -0.42809  -0.42702
 Alpha  occ. eigenvalues --   -0.42351  -0.42090  -0.41634  -0.41415  -0.41285
 Alpha  occ. eigenvalues --   -0.41111  -0.40831  -0.40775  -0.40415  -0.40173
 Alpha  occ. eigenvalues --   -0.40036  -0.39670  -0.39367  -0.39245  -0.39047
 Alpha  occ. eigenvalues --   -0.38956  -0.38864  -0.38741  -0.38547  -0.38376
 Alpha  occ. eigenvalues --   -0.38210  -0.37927  -0.37828  -0.37701  -0.37401
 Alpha  occ. eigenvalues --   -0.37073  -0.36870  -0.36788  -0.36313  -0.36279
 Alpha  occ. eigenvalues --   -0.36107  -0.36100  -0.35945  -0.35816  -0.35578
 Alpha  occ. eigenvalues --   -0.35436  -0.35325  -0.35207  -0.35008  -0.34483
 Alpha  occ. eigenvalues --   -0.34313  -0.34260  -0.34218  -0.33965  -0.33868
 Alpha  occ. eigenvalues --   -0.33676  -0.33577  -0.33448  -0.33230  -0.33133
 Alpha  occ. eigenvalues --   -0.33044  -0.31950  -0.31517  -0.31473  -0.31174
 Alpha  occ. eigenvalues --   -0.31008  -0.30989  -0.30578  -0.30544  -0.29886
 Alpha  occ. eigenvalues --   -0.29707  -0.28721  -0.28485  -0.28151  -0.27455
 Alpha  occ. eigenvalues --   -0.27324  -0.27230  -0.26433  -0.26162  -0.25564
 Alpha  occ. eigenvalues --   -0.25415  -0.25019  -0.23642  -0.22595  -0.19612
 Alpha  occ. eigenvalues --   -0.19027
 Alpha virt. eigenvalues --   -0.10445  -0.08231  -0.04447  -0.03285  -0.01801
 Alpha virt. eigenvalues --   -0.00843   0.00165   0.00342   0.01752   0.02826
 Alpha virt. eigenvalues --    0.02919   0.03598   0.03928   0.04025   0.04096

 Mulliken charges:
               1
     1  C   -0.009096
     2  C   -0.084276
     3  C   -0.091195
     4  C   -0.130636
     5  N   -0.198087
     6  C   -0.115199
     7  C   -0.002408
     8  C   -0.119576
     9  C    0.030452
    10  C    0.050641
    11  C    0.202390
    12  C   -0.053064
    13  C    0.224986
    14  O   -0.320135
    15  O   -0.317118
    16  N   -0.096503
    17  C    0.162659
    18  C   -0.089898
    19  C    0.080342
    20  C    0.081126
    21  C   -0.082688
    22  C   -0.026290
    23  C   -0.087325
    24  N   -0.166919
    25  C    0.007833
    26  C   -0.110373
    27  C   -0.059626
    28  C    0.042024
    29  C    0.038150
    30  C    0.016680
    31  C    0.026936
    32  N    0.031068
    33  C    0.089349
    34  C   -0.100898
    35  C   -0.024400
    36  C    0.134854
    37  C    0.000420
    38  C    0.048226
    39  O   -0.134494
    40  C    0.078780
    41  C    0.170711
    42  O   -0.300437
    43  O   -0.249802
    44  C    0.213587
    45  C    0.315489
    46  C   -0.080690
    47  C   -0.141394
    48  C   -0.118549
    49  C    0.118691
    50  C   -0.037701
    51  C   -0.006265
    52  C   -0.023761
    53  C    0.044385
    54  C    0.058588
    55  C   -0.024775
    56  C    0.069430
    57  C    0.022429
    58  C    0.031356
    59  C   -0.025374
    60  C   -0.024148
    61  C    0.098033
    62  C   -0.047197
    63  C   -0.041561
    64  C    0.090130
    65  H   -0.001536
    66  H    0.005853
    67  H    0.020933
    68  H    0.037214
    69  H    0.020381
    70  H   -0.013614
    71  H    0.043884
    72  H    0.059558
    73  H   -0.065636
    74  H    0.033391
    75  H    0.061633
    76  H    0.064467
    77  H    0.061336
    78  H    0.056203
    79  H    0.037904
    80  H    0.011811
    81  H    0.000375
    82  H    0.053085
    83  H    0.043758
    84  H    0.024140
    85  H    0.015842
    86  H   -0.012745
    87  H   -0.003920
    88  H   -0.002377
    89  H    0.020284
    90  H    0.011661
    91  H    0.057696
    92  H    0.049685
    93  H    0.015809
    94  H    0.017493
    95  H    0.024582
    96  H    0.014185
    97  H    0.069575
    98  H    0.063408
    99  H   -0.036516
   100  H   -0.000370
   101  H    0.038642
   102  H    0.066303
   103  H    0.044122
   104  H   -0.011662
   105  H    0.022991
   106  H    0.008584
   107  H    0.024967
   108  H    0.001882
   109  H    0.003940
   110  H   -0.000847
   111  H   -0.021847
   112  H   -0.009024
   113  H   -0.005393
   114  H   -0.045941
   115  H   -0.039918
   116  H    0.017230
   117  H   -0.009504
   118  H    0.008171
   119  H   -0.006039
   120  H   -0.077335
   121  H    0.023837
   122  H    0.019058
   123  H   -0.056439
   124  H    0.013649
   125  H    0.005808
   126  H   -0.009451
   127  H   -0.010176
   128  H   -0.021019
   129  H   -0.015269
   130  H   -0.013596
   131  H    0.009512
   132  H    0.018320
   133  H    0.014538
   134  H   -0.004755
   135  H   -0.026143
   136  H    0.000470
   137  H    0.088845
   138  H    0.056172
 Sum of Mulliken charges =  -0.00000

 Dipole moment (field-independent basis, Debye):
    X=              3.0878    Y=              2.1744    Z=              0.3208  Tot=              3.7902
 Quadrupole moment (field-independent basis, Debye-Ang):
   XX=           -360.9437   YY=           -378.4342   ZZ=           -400.0434
   XY=            -20.5658   XZ=             10.5146   YZ=             -5.1478

 Normal termination of Gaussian 16 at Wed Aug 21 15:49:13 2019.
