 Gaussian 16, Revision A.03,
 Gaussian 16:  ES64L-G16RevA.03 25-Dec-2016

 --------------------------
 # td=(NStates=1) B3LYP/SVP
 --------------------------

 --
 TD
 --
 Symbolic Z-matrix:
 Charge =  0 Multiplicity = 1

                         Standard orientation:
 ---------------------------------------------------------------------
 Center     Atomic      Atomic             Coordinates (Angstroms)
 Number     Number       Type             X           Y           Z
 ---------------------------------------------------------------------
      1          6           0       -5.075200   -1.986452    0.448567
      2          6           0       -4.660416    2.684358    1.579765
      3          6           0       -9.152195    3.312448   -0.189621
      4          6           0       -9.768551   -1.391370   -0.985741
      5          7           0       -5.171502    0.374778    1.109959
      6          6           0       -4.520888   -0.782175    0.954014
      7          6           0       -2.973799   -0.649474    1.369803
      8          6           0       -2.990401    0.798696    1.996323
      9          6           0       -4.355924    1.350667    1.567760
     10          6           0       -2.963174    0.745902    3.554268
     11          6           0       -2.070997   -0.737790    0.188557
     12          6           0       -0.669959   -0.683078    0.558148
     13          6           0        0.308598   -0.899054   -0.643786
     14          8           0       -0.011024   -0.917942   -1.845324
     15          8           0        1.719972   -1.010583   -0.116779
     16          7           0       -6.858096    2.776093    0.489760
     17          6           0       -5.833389    3.359631    1.154120
     18          6           0       -6.163657    4.717620    1.270177
     19          6           0       -7.358977    4.983048    0.553894
     20          6           0       -7.880375    3.630988    0.211040
     21          6           0       -5.214405    5.826394    1.740061
     22          6           0       -7.969998    6.305898    0.318362
     23          6           0       -8.895897    6.752935   -0.543069
     24          7           0       -9.131665    0.877936   -0.469348
     25          6           0       -9.751752    2.061371   -0.573973
     26          6           0      -11.122723    1.981253   -1.093283
     27          6           0      -11.277503    0.625136   -1.283680
     28          6           0      -10.133337   -0.047206   -0.895266
     29          6           0      -12.160076    3.028892   -1.182677
     30          6           0      -12.437960   -0.057450   -1.840673
     31          6           0      -12.452447   -0.360249   -3.349701
     32          7           0       -7.408993   -1.216713   -0.395263
     33          6           0       -8.539041   -2.039104   -0.786802
     34          6           0       -8.071121   -3.377322   -0.859488
     35          6           0       -6.841551   -3.380984   -0.382611
     36          6           0       -6.382844   -2.003288    0.004731
     37          6           0       -8.999418   -4.481994   -1.330631
     38          6           0       -5.715478   -4.294241   -0.052075
     39          8           0       -5.756022   -5.539489   -0.123779
     40          6           0       -4.380418   -3.322392    0.435873
     41          6           0       -4.148081   -3.831598    1.830240
     42          8           0       -4.325374   -3.369337    2.923315
     43          8           0       -3.347963   -5.035478    1.746104
     44          6           0       -2.908654   -5.552580    2.968227
     45          6           0        2.627051   -1.111601   -1.256812
     46          6           0        3.970931   -0.876720   -0.587148
     47          6           0        4.868090   -0.056773   -1.203764
     48          6           0        4.718633    0.764155   -2.455878
     49          6           0        6.184943    0.175775   -0.358929
     50          6           0        7.427271   -0.371299   -1.039144
     51          6           0        8.687458   -0.312298   -0.183764
     52          6           0        9.989926   -0.764000   -0.875639
     53          6           0       10.047049   -2.234543   -1.074361
     54          6           0       11.217052   -0.287294   -0.061424
     55          6           0       12.601872   -0.608096   -0.590906
     56          6           0       13.812988   -0.081433    0.327039
     57          6           0       15.193279   -0.318999   -0.319581
     58          6           0       15.652224   -1.750169   -0.473112
     59          6           0       16.273060    0.582378    0.453639
     60          6           0       17.722258    0.508779   -0.029127
     61          6           0       18.559933    1.616541    0.692109
     62          6           0       20.001973    1.724252    0.118464
     63          6           0       20.029383    2.281854   -1.316827
     64          6           0       20.800084    2.711198    0.983009
     65          1           0       -3.966246    3.461770    1.864231
     66          1           0       -9.945575    4.168786   -0.137592
     67          1           0      -10.463567   -1.989726   -1.450908
     68          1           0       -2.674209   -1.466959    2.100799
     69          1           0       -2.254383    1.459310    1.563299
     70          1           0       -1.909384    0.568377    3.982310
     71          1           0       -3.255844    1.763159    3.924859
     72          1           0       -3.756768   -0.096577    3.890855
     73          1           0       -2.292948   -1.567679   -0.313565
     74          1           0       -2.338437   -0.037080   -0.646688
     75          1           0       -0.299375    0.120469    0.901732
     76          1           0       -0.556734   -1.695339    1.335815
     77          1           0       -4.502179    5.896842    1.211434
     78          1           0       -5.521684    6.933790    1.727992
     79          1           0       -5.090360    5.517006    2.761644
     80          1           0       -7.472322    6.934939    1.023105
     81          1           0       -9.072018    5.939799   -1.472100
     82          1           0       -9.213490    7.772235   -0.683023
     83          1           0      -12.172886    3.286509   -0.206117
     84          1           0      -11.929594    3.962787   -1.866766
     85          1           0      -13.116341    2.788852   -1.689851
     86          1           0      -12.650021   -1.022264   -1.068597
     87          1           0      -13.415842    0.498553   -1.664886
     88          1           0      -12.576910    0.749307   -3.730488
     89          1           0      -11.435813   -0.864583   -3.603702
     90          1           0      -13.425563   -1.107866   -3.761678
     91          1           0       -9.897888   -4.624741   -0.637720
     92          1           0       -9.439548   -4.348302   -2.203690
     93          1           0       -8.377682   -5.416219   -1.445136
     94          1           0       -3.576072   -3.370645   -0.136472
     95          1           0       -2.108964   -6.359794    2.861607
     96          1           0       -2.409776   -4.671767    3.514042
     97          1           0       -3.846340   -5.884722    3.723679
     98          1           0        2.289265   -2.075906   -1.617130
     99          1           0        2.158650   -0.359104   -1.909280
    100          1           0        4.239618   -1.404955    0.323666
    101          1           0        5.103794    1.730044   -2.472867
    102          1           0        5.215964    0.269708   -3.314792
    103          1           0        3.718763    0.843198   -2.914950
    104          1           0        6.352186    1.375510   -0.081748
    105          1           0        6.173098   -0.559949    0.712346
    106          1           0        7.212705   -1.421696   -1.324438
    107          1           0        7.632538    0.028805   -1.932813
    108          1           0        8.653676    0.774272    0.076486
    109          1           0        8.373862   -0.944603    0.726697
    110          1           0       10.156934   -0.240402   -1.873511
    111          1           0        9.130415   -2.411250   -1.563050
    112          1           0       10.860262   -2.664803   -1.845769
    113          1           0       10.074829   -2.813277    0.025279
    114          1           0       11.104317    0.767250   -0.017913
    115          1           0       11.102658   -0.697722    0.965471
    116          1           0       12.830861   -1.641385   -0.933517
    117          1           0       12.582923   -0.104460   -1.531640
    118          1           0       13.474123    0.962284    0.443375
    119          1           0       13.625885   -0.764789    1.227048
    120          1           0       15.010014    0.347231   -1.320941
    121          1           0       14.737344   -2.341022   -1.004288
    122          1           0       16.490010   -1.819868   -1.360975
    123          1           0       15.852841   -2.325038    0.527763
    124          1           0       15.763930    1.546216    0.440496
    125          1           0       16.183764    0.171069    1.461213
    126          1           0       18.199502   -0.477297   -0.160997
    127          1           0       17.628877    0.711600   -1.087883
    128          1           0       17.974906    2.524063    0.504455
    129          1           0       18.621687    1.307923    1.715504
    130          1           0       20.508379    0.683475    0.048498
    131          1           0       19.477968    3.242991   -1.348644
    132          1           0       21.016983    2.490761   -1.812689
    133          1           0       19.663918    1.515553   -1.889183
    134          1           0       20.674651    2.474177    1.973567
    135          1           0       21.888444    2.749255    0.660504
    136          1           0       20.446537    3.749149    1.020154
    137          1           0       -7.028592    1.749342    0.375341
    138          1           0       -7.579354   -0.221471   -0.143506
 ---------------------------------------------------------------------

 SCF Done:  E(RB3LYP) =  -2733.05447243     A.U. after   17 cycles

 Excitation energies and oscillator strengths:

 Excited State   1:      Singlet-A      2.0700 eV  598.97 nm  f=0.1756  <S**2>=0.000
     235 -> 237       -0.20899
     235 -> 238        0.27757
     236 -> 237        0.58997
     236 -> 238        0.16370
 This state for optimization and/or second-order correction.
 Total Energy, E(TD-HF/TD-DFT) =  -2732.97840246
 Copying the excited state density for this state as the 1-particle RhoCI density.

 The electronic state is 1-A.
 Alpha  occ. eigenvalues --  -19.16089 -19.15906 -19.15112 -19.13894 -19.13494
 Alpha  occ. eigenvalues --  -14.37542 -14.36893 -14.32441 -14.30240 -10.32830
 Alpha  occ. eigenvalues --  -10.32262 -10.29620 -10.24828 -10.24477 -10.24246
 Alpha  occ. eigenvalues --  -10.23915 -10.23850 -10.23718 -10.23365 -10.23272
 Alpha  occ. eigenvalues --  -10.22771 -10.21987 -10.21698 -10.21689 -10.21679
 Alpha  occ. eigenvalues --  -10.21483 -10.21343 -10.21222 -10.21102 -10.21035
 Alpha  occ. eigenvalues --  -10.21003 -10.20994 -10.20988 -10.20782 -10.20745
 Alpha  occ. eigenvalues --  -10.20689 -10.20419 -10.20411 -10.20305 -10.20180
 Alpha  occ. eigenvalues --  -10.19963 -10.19770 -10.19607 -10.19570 -10.19476
 Alpha  occ. eigenvalues --  -10.19285 -10.19229 -10.19187 -10.19164 -10.19058
 Alpha  occ. eigenvalues --  -10.19015 -10.18908 -10.18843 -10.18792 -10.18425
 Alpha  occ. eigenvalues --  -10.17992 -10.17948 -10.17601 -10.17592 -10.17286
 Alpha  occ. eigenvalues --  -10.17195 -10.17160 -10.16756 -10.16643  -1.08225
 Alpha  occ. eigenvalues --   -1.05581  -1.01553  -1.00097  -0.99345  -0.99269
 Alpha  occ. eigenvalues --   -0.97369  -0.94642  -0.93504  -0.84841  -0.82979
 Alpha  occ. eigenvalues --   -0.82295  -0.82162  -0.81783  -0.81166  -0.81000
 Alpha  occ. eigenvalues --   -0.80501  -0.80106  -0.79514  -0.79142  -0.77811
 Alpha  occ. eigenvalues --   -0.76702  -0.76306  -0.75964  -0.75014  -0.74342
 Alpha  occ. eigenvalues --   -0.73332  -0.73038  -0.72220  -0.72117  -0.71718
 Alpha  occ. eigenvalues --   -0.70718  -0.69768  -0.68708  -0.67669  -0.67270
 Alpha  occ. eigenvalues --   -0.67134  -0.66572  -0.66367  -0.66012  -0.64849
 Alpha  occ. eigenvalues --   -0.64175  -0.63042  -0.62544  -0.62018  -0.60893
 Alpha  occ. eigenvalues --   -0.60536  -0.59335  -0.58464  -0.58239  -0.57716
 Alpha  occ. eigenvalues --   -0.56835  -0.56786  -0.55779  -0.55280  -0.55169
 Alpha  occ. eigenvalues --   -0.54734  -0.54712  -0.53601  -0.53551  -0.53356
 Alpha  occ. eigenvalues --   -0.52952  -0.52362  -0.52128  -0.51197  -0.50589
 Alpha  occ. eigenvalues --   -0.50294  -0.49505  -0.48544  -0.48484  -0.48263
 Alpha  occ. eigenvalues --   -0.47949  -0.47862  -0.47687  -0.47419  -0.47159
 Alpha  occ. eigenvalues --   -0.47008  -0.46895  -0.46785  -0.46336  -0.45849
 Alpha  occ. eigenvalues --   -0.45516  -0.45282  -0.45035  -0.44881  -0.44759
 Alpha  occ. eigenvalues --   -0.44593  -0.44252  -0.44143  -0.43936  -0.43864
 Alpha  occ. eigenvalues --   -0.43713  -0.43451  -0.43107  -0.42839  -0.42741
 Alpha  occ. eigenvalues --   -0.42514  -0.42359  -0.42303  -0.42000  -0.41805
 Alpha  occ. eigenvalues --   -0.41641  -0.41596  -0.40774  -0.40632  -0.40515
 Alpha  occ. eigenvalues --   -0.40473  -0.40274  -0.40217  -0.39697  -0.39560
 Alpha  occ. eigenvalues --   -0.39467  -0.39041  -0.38965  -0.38647  -0.38498
 Alpha  occ. eigenvalues --   -0.38241  -0.37953  -0.37829  -0.37800  -0.37363
 Alpha  occ. eigenvalues --   -0.37250  -0.37234  -0.37154  -0.36892  -0.36712
 Alpha  occ. eigenvalues --   -0.36464  -0.36352  -0.36182  -0.35892  -0.35706
 Alpha  occ. eigenvalues --   -0.35519  -0.35393  -0.34911  -0.34664  -0.34578
 Alpha  occ. eigenvalues --   -0.34274  -0.34003  -0.33993  -0.33580  -0.33554
 Alpha  occ. eigenvalues --   -0.33416  -0.33117  -0.32913  -0.32744  -0.32600
 Alpha  occ. eigenvalues --   -0.32306  -0.32178  -0.32077  -0.31987  -0.31693
 Alpha  occ. eigenvalues --   -0.31385  -0.30922  -0.30642  -0.29829  -0.29423
 Alpha  occ. eigenvalues --   -0.29325  -0.28964  -0.28498  -0.28443  -0.28330
 Alpha  occ. eigenvalues --   -0.27883  -0.27602  -0.27279  -0.27206  -0.26626
 Alpha  occ. eigenvalues --   -0.25333  -0.24934  -0.24413  -0.22844  -0.20639
 Alpha  occ. eigenvalues --   -0.19269
 Alpha virt. eigenvalues --   -0.10644  -0.08693  -0.05058  -0.02522  -0.02469
 Alpha virt. eigenvalues --   -0.01055  -0.00301   0.00256   0.01534   0.03120
 Alpha virt. eigenvalues --    0.03571   0.03757   0.04037   0.04889   0.05148

 Mulliken charges:
               1
     1  C   -0.107152
     2  C   -0.031403
     3  C   -0.109701
     4  C   -0.024824
     5  N   -0.149993
     6  C   -0.028647
     7  C   -0.073112
     8  C    0.004855
     9  C    0.006012
    10  C    0.012125
    11  C    0.153449
    12  C    0.090417
    13  C    0.209534
    14  O   -0.243021
    15  O   -0.419946
    16  N   -0.043160
    17  C    0.056238
    18  C   -0.148670
    19  C   -0.009980
    20  C    0.078028
    21  C    0.180523
    22  C    0.012564
    23  C   -0.055539
    24  N   -0.272173
    25  C    0.021045
    26  C   -0.124739
    27  C   -0.029760
    28  C    0.085947
    29  C    0.101645
    30  C   -0.040310
    31  C   -0.052545
    32  N   -0.091123
    33  C    0.052408
    34  C   -0.141501
    35  C    0.012694
    36  C    0.150368
    37  C    0.152199
    38  C    0.084485
    39  O   -0.184291
    40  C    0.043666
    41  C    0.240920
    42  O   -0.194571
    43  O   -0.347958
    44  C    0.121202
    45  C    0.281029
    46  C   -0.044118
    47  C   -0.101046
    48  C    0.114683
    49  C   -0.058261
    50  C    0.057021
    51  C    0.022912
    52  C   -0.080847
    53  C    0.017330
    54  C    0.070915
    55  C    0.008219
    56  C    0.020310
    57  C   -0.122308
    58  C   -0.026325
    59  C    0.046035
    60  C    0.036406
    61  C    0.067525
    62  C   -0.132792
    63  C    0.056387
    64  C    0.093842
    65  H   -0.039490
    66  H    0.018133
    67  H   -0.061192
    68  H    0.018012
    69  H   -0.011325
    70  H    0.030258
    71  H    0.012769
    72  H    0.060869
    73  H   -0.066538
    74  H    0.003891
    75  H   -0.028996
    76  H    0.061244
    77  H   -0.051805
    78  H    0.019829
    79  H    0.027970
    80  H   -0.024200
    81  H    0.056292
    82  H    0.030731
    83  H    0.019167
    84  H    0.023221
    85  H    0.018105
    86  H    0.013937
    87  H    0.002657
    88  H    0.035390
    89  H    0.038127
    90  H    0.045729
    91  H    0.036701
    92  H   -0.021409
    93  H    0.040773
    94  H    0.012374
    95  H    0.045353
    96  H    0.017223
    97  H    0.041482
    98  H    0.006132
    99  H    0.023221
   100  H    0.003433
   101  H    0.001937
   102  H    0.018557
   103  H    0.001906
   104  H    0.031691
   105  H    0.021239
   106  H   -0.005967
   107  H   -0.050394
   108  H   -0.007400
   109  H    0.003303
   110  H   -0.009440
   111  H   -0.018449
   112  H    0.032576
   113  H    0.026228
   114  H   -0.026844
   115  H   -0.018096
   116  H   -0.007218
   117  H   -0.039026
   118  H    0.004375
   119  H    0.004716
   120  H    0.001485
   121  H    0.017589
   122  H    0.041966
   123  H    0.043084
   124  H   -0.011315
   125  H   -0.019211
   126  H   -0.006849
   127  H   -0.026943
   128  H   -0.002263
   129  H   -0.002718
   130  H    0.002891
   131  H    0.004977
   132  H    0.001539
   133  H   -0.019400
   134  H   -0.033322
   135  H    0.010818
   136  H   -0.011754
   137  H    0.159578
   138  H    0.154965
 Sum of Mulliken charges =  -0.00000

 Dipole moment (field-independent basis, Debye):
    X=              0.4380    Y=              5.7396    Z=             -0.9617  Tot=              5.8360
 Quadrupole moment (field-independent basis, Debye-Ang):
   XX=           -365.5618   YY=           -384.5243   ZZ=           -397.2910
   XY=            -31.2871   XZ=              5.6170   YZ=              2.2501

 Normal termination of Gaussian 16 at Fri Aug 30 04:55:10 2019.
