 Gaussian 16, Revision A.03,
 Gaussian 16:  ES64L-G16RevA.03 25-Dec-2016

 --------------------------
 # td=(NStates=1) B3LYP/SVP
 --------------------------

 --
 TD
 --
 Symbolic Z-matrix:
 Charge =  0 Multiplicity = 1

                         Standard orientation:
 ---------------------------------------------------------------------
 Center     Atomic      Atomic             Coordinates (Angstroms)
 Number     Number       Type             X           Y           Z
 ---------------------------------------------------------------------
      1          6           0       -5.111420   -1.954896    0.364193
      2          6           0       -4.912206    2.729425    1.515441
      3          6           0       -9.452800    3.216037   -0.208454
      4          6           0       -9.844622   -1.535987   -0.906485
      5          7           0       -5.258850    0.485888    0.737515
      6          6           0       -4.501575   -0.749971    0.807146
      7          6           0       -3.019651   -0.550917    1.325332
      8          6           0       -3.197236    0.811685    1.919937
      9          6           0       -4.496649    1.395593    1.349578
     10          6           0       -3.087358    0.923010    3.472373
     11          6           0       -2.097362   -0.637899    0.163442
     12          6           0       -0.588853   -0.620065    0.545934
     13          6           0        0.392998   -0.821096   -0.566302
     14          8           0        0.173442   -1.254796   -1.743192
     15          8           0        1.619540   -0.604737   -0.194184
     16          7           0       -7.256003    2.658282    0.771660
     17          6           0       -6.093744    3.349825    1.014924
     18          6           0       -6.352990    4.815136    0.931363
     19          6           0       -7.667152    4.887855    0.477590
     20          6           0       -8.197196    3.622880    0.266994
     21          6           0       -5.333530    5.888389    1.345580
     22          6           0       -8.333899    6.171514    0.351885
     23          6           0       -9.382035    6.508297   -0.543823
     24          7           0       -9.375839    0.728207   -0.278913
     25          6           0      -10.000785    1.928124   -0.464369
     26          6           0      -11.302126    1.802187   -0.986212
     27          6           0      -11.461984    0.459768   -1.103814
     28          6           0      -10.206437   -0.133063   -0.693946
     29          6           0      -12.278968    2.801211   -1.169290
     30          6           0      -12.655287   -0.325509   -1.820491
     31          6           0      -12.592176   -0.481211   -3.347365
     32          7           0       -7.489172   -1.298753   -0.294285
     33          6           0       -8.546048   -2.090199   -0.647576
     34          6           0       -8.169947   -3.447089   -0.766243
     35          6           0       -6.828018   -3.444122   -0.200676
     36          6           0       -6.414914   -2.126724   -0.029099
     37          6           0       -8.900415   -4.712245   -1.140529
     38          6           0       -5.721321   -4.370004   -0.035340
     39          8           0       -5.584242   -5.513893   -0.174412
     40          6           0       -4.461704   -3.361012    0.448407
     41          6           0       -3.826894   -3.803569    1.712313
     42          8           0       -3.887029   -3.283560    2.837917
     43          8           0       -3.150207   -4.869451    1.488396
     44          6           0       -2.536890   -5.668087    2.703743
     45          6           0        2.637598   -0.874627   -1.106180
     46          6           0        4.019786   -0.508166   -0.601692
     47          6           0        4.945963    0.323077   -0.987786
     48          6           0        4.944035    1.230959   -2.148290
     49          6           0        6.231418    0.345175   -0.225421
     50          6           0        7.548268   -0.143254   -0.942183
     51          6           0        8.832532   -0.162965   -0.057465
     52          6           0       10.126230   -0.557068   -0.761348
     53          6           0       10.017457   -2.126768   -1.067862
     54          6           0       11.291246   -0.193407    0.035661
     55          6           0       12.773800   -0.419495   -0.559965
     56          6           0       13.980154    0.032820    0.262935
     57          6           0       15.343475   -0.189812   -0.312589
     58          6           0       15.648644   -1.560120   -0.549794
     59          6           0       16.451385    0.578773    0.521680
     60          6           0       17.772880    0.583742   -0.183131
     61          6           0       18.750541    1.431534    0.603735
     62          6           0       20.243093    1.469897    0.034014
     63          6           0       20.338962    1.948111   -1.437391
     64          6           0       21.182601    2.200351    0.997995
     65          1           0       -4.130569    3.506296    1.832084
     66          1           0      -10.207230    4.031907   -0.451941
     67          1           0      -10.647209   -2.158195   -1.180820
     68          1           0       -2.810355   -1.343879    2.154832
     69          1           0       -2.482187    1.656794    1.361019
     70          1           0       -2.076026    0.494745    3.792270
     71          1           0       -3.326168    1.923138    3.910928
     72          1           0       -3.969553    0.118011    3.850682
     73          1           0       -2.200971   -1.730522   -0.478124
     74          1           0       -2.197129    0.139888   -0.597150
     75          1           0       -0.207974    0.453163    0.918038
     76          1           0       -0.432100   -1.294183    1.514363
     77          1           0       -4.414968    5.930812    0.746058
     78          1           0       -5.712985    6.969899    1.204445
     79          1           0       -4.929687    5.825598    2.303120
     80          1           0       -7.849626    7.027665    1.168202
     81          1           0       -9.789582    5.753423   -1.250702
     82          1           0       -9.741806    7.536671   -0.684229
     83          1           0      -12.690271    3.410207   -0.331903
     84          1           0      -12.080401    3.777163   -1.777520
     85          1           0      -13.234457    2.679353   -1.491925
     86          1           0      -12.705742   -1.431468   -1.370198
     87          1           0      -13.636732    0.109393   -1.500956
     88          1           0      -12.378114    0.255693   -3.890621
     89          1           0      -11.977625   -1.423892   -3.612898
     90          1           0      -13.619958   -0.899333   -3.695104
     91          1           0       -9.700360   -4.958859   -0.263493
     92          1           0       -9.540466   -4.650037   -2.068512
     93          1           0       -8.293403   -5.562627   -1.313563
     94          1           0       -3.780713   -3.509364   -0.279706
     95          1           0       -2.054301   -6.582989    2.451057
     96          1           0       -1.758709   -5.030464    3.244668
     97          1           0       -3.535058   -5.750438    3.221979
     98          1           0        2.699724   -2.049661   -1.443310
     99          1           0        2.437849   -0.420833   -2.075269
    100          1           0        4.046726   -1.046902    0.538531
    101          1           0        5.152216    2.299338   -1.779224
    102          1           0        5.747089    1.136201   -3.089298
    103          1           0        3.820965    1.198094   -2.425647
    104          1           0        6.638130    1.361699    0.304428
    105          1           0        6.150051   -0.268553    0.779269
    106          1           0        7.274479   -1.028564   -1.426121
    107          1           0        7.596409    0.822005   -1.855188
    108          1           0        8.901008    0.870357    0.243591
    109          1           0        8.693320   -0.952349    0.764089
    110          1           0       10.282033   -0.329113   -1.903138
    111          1           0        9.114542   -2.546154   -1.684422
    112          1           0       10.927762   -2.398154   -1.680359
    113          1           0       10.128600   -2.719802   -0.084792
    114          1           0       11.220150    0.801252    0.520819
    115          1           0       11.321800   -1.055059    0.898624
    116          1           0       12.873958   -1.460693   -0.825529
    117          1           0       12.849236    0.017053   -1.489834
    118          1           0       13.790025    1.039936    0.547318
    119          1           0       14.076067   -0.551059    1.204193
    120          1           0       15.187871    0.221578   -1.273102
    121          1           0       15.017122   -2.210567   -1.192292
    122          1           0       16.747270   -1.884506   -1.010332
    123          1           0       15.802775   -1.966913    0.403424
    124          1           0       15.982757    1.644107    0.818143
    125          1           0       16.550322   -0.208650    1.433838
    126          1           0       18.212400   -0.381646   -0.282583
    127          1           0       17.751132    0.964087   -1.136744
    128          1           0       18.416046    2.640514    0.646084
    129          1           0       18.914404    1.244645    1.474431
    130          1           0       20.536159    0.430600    0.132303
    131          1           0       20.167385    2.938263   -1.634696
    132          1           0       21.343924    1.718906   -1.882983
    133          1           0       19.792430    1.131127   -2.017207
    134          1           0       20.962517    1.755422    1.949722
    135          1           0       22.276517    2.308028    0.575457
    136          1           0       20.676897    3.214710    1.243722
    137          1           0       -7.389707    1.663985    0.545177
    138          1           0       -7.684131   -0.336323   -0.140009
 ---------------------------------------------------------------------

 SCF Done:  E(RB3LYP) =  -2733.02564041     A.U. after   17 cycles

 Excitation energies and oscillator strengths:

 Excited State   1:      Singlet-A      2.0192 eV  614.03 nm  f=0.1401  <S**2>=0.000
     235 -> 237       -0.29866
     235 -> 238        0.25517
     236 -> 237        0.54265
     236 -> 238        0.21572
 This state for optimization and/or second-order correction.
 Total Energy, E(TD-HF/TD-DFT) =  -2732.95143671
 Copying the excited state density for this state as the 1-particle RhoCI density.

 The electronic state is 1-A.
 Alpha  occ. eigenvalues --  -19.19332 -19.17498 -19.13192 -19.11576 -19.10266
 Alpha  occ. eigenvalues --  -14.36592 -14.36478 -14.32413 -14.29574 -10.32037
 Alpha  occ. eigenvalues --  -10.30439 -10.28058 -10.26620 -10.25928 -10.24354
 Alpha  occ. eigenvalues --  -10.23695 -10.23553 -10.23299 -10.23292 -10.22748
 Alpha  occ. eigenvalues --  -10.22747 -10.22419 -10.22029 -10.21461 -10.21305
 Alpha  occ. eigenvalues --  -10.21174 -10.21121 -10.21001 -10.20955 -10.20916
 Alpha  occ. eigenvalues --  -10.20832 -10.20779 -10.20720 -10.20664 -10.20566
 Alpha  occ. eigenvalues --  -10.20560 -10.20436 -10.20405 -10.20305 -10.20277
 Alpha  occ. eigenvalues --  -10.20268 -10.20250 -10.20123 -10.20077 -10.19860
 Alpha  occ. eigenvalues --  -10.19611 -10.19588 -10.19438 -10.19421 -10.19357
 Alpha  occ. eigenvalues --  -10.19035 -10.18512 -10.18511 -10.18391 -10.18330
 Alpha  occ. eigenvalues --  -10.17958 -10.17938 -10.17896 -10.17566 -10.17496
 Alpha  occ. eigenvalues --  -10.17453 -10.17373 -10.17249 -10.17146  -1.12194
 Alpha  occ. eigenvalues --   -1.08985  -1.06199  -0.98604  -0.97756  -0.97370
 Alpha  occ. eigenvalues --   -0.96906  -0.96187  -0.92905  -0.84618  -0.83122
 Alpha  occ. eigenvalues --   -0.82924  -0.81893  -0.81408  -0.81161  -0.80564
 Alpha  occ. eigenvalues --   -0.80219  -0.80157  -0.79149  -0.77952  -0.77567
 Alpha  occ. eigenvalues --   -0.76127  -0.75866  -0.75461  -0.74726  -0.74003
 Alpha  occ. eigenvalues --   -0.73678  -0.73053  -0.72232  -0.71859  -0.70969
 Alpha  occ. eigenvalues --   -0.70111  -0.69942  -0.69138  -0.68392  -0.68021
 Alpha  occ. eigenvalues --   -0.67311  -0.66885  -0.66169  -0.66029  -0.65730
 Alpha  occ. eigenvalues --   -0.64156  -0.62847  -0.62767  -0.61972  -0.61661
 Alpha  occ. eigenvalues --   -0.61100  -0.59002  -0.58241  -0.57720  -0.57079
 Alpha  occ. eigenvalues --   -0.56608  -0.56349  -0.56167  -0.56035  -0.55467
 Alpha  occ. eigenvalues --   -0.55160  -0.55136  -0.54196  -0.54172  -0.52729
 Alpha  occ. eigenvalues --   -0.52252  -0.51477  -0.51444  -0.50480  -0.50312
 Alpha  occ. eigenvalues --   -0.50006  -0.49473  -0.49035  -0.48669  -0.48356
 Alpha  occ. eigenvalues --   -0.48063  -0.47585  -0.47315  -0.47218  -0.46632
 Alpha  occ. eigenvalues --   -0.46409  -0.46224  -0.46013  -0.45772  -0.45663
 Alpha  occ. eigenvalues --   -0.45200  -0.45020  -0.44625  -0.44538  -0.44440
 Alpha  occ. eigenvalues --   -0.44192  -0.44180  -0.43848  -0.43726  -0.43548
 Alpha  occ. eigenvalues --   -0.43309  -0.43179  -0.43137  -0.42743  -0.42602
 Alpha  occ. eigenvalues --   -0.42540  -0.42185  -0.41969  -0.41560  -0.41491
 Alpha  occ. eigenvalues --   -0.41408  -0.41212  -0.40826  -0.40617  -0.40318
 Alpha  occ. eigenvalues --   -0.40235  -0.40172  -0.40149  -0.39945  -0.39541
 Alpha  occ. eigenvalues --   -0.39218  -0.39085  -0.38930  -0.38809  -0.38619
 Alpha  occ. eigenvalues --   -0.38295  -0.38007  -0.37738  -0.37584  -0.37469
 Alpha  occ. eigenvalues --   -0.37255  -0.37207  -0.37005  -0.36925  -0.36734
 Alpha  occ. eigenvalues --   -0.36244  -0.36019  -0.35865  -0.35746  -0.35613
 Alpha  occ. eigenvalues --   -0.35558  -0.35346  -0.35158  -0.34870  -0.34550
 Alpha  occ. eigenvalues --   -0.34381  -0.34181  -0.33659  -0.33441  -0.33314
 Alpha  occ. eigenvalues --   -0.33253  -0.32937  -0.32566  -0.32306  -0.32119
 Alpha  occ. eigenvalues --   -0.31961  -0.31812  -0.31755  -0.31282  -0.31194
 Alpha  occ. eigenvalues --   -0.30618  -0.30335  -0.30250  -0.29638  -0.29616
 Alpha  occ. eigenvalues --   -0.29569  -0.28908  -0.28328  -0.28082  -0.27504
 Alpha  occ. eigenvalues --   -0.27315  -0.27043  -0.26468  -0.25942  -0.25846
 Alpha  occ. eigenvalues --   -0.25602  -0.24632  -0.23762  -0.23184  -0.19600
 Alpha  occ. eigenvalues --   -0.18889
 Alpha virt. eigenvalues --   -0.10442  -0.07837  -0.04551  -0.01961  -0.01353
 Alpha virt. eigenvalues --   -0.00597   0.00203   0.01121   0.02310   0.03181
 Alpha virt. eigenvalues --    0.03773   0.03997   0.04075   0.04255   0.04273

 Mulliken charges:
               1
     1  C    0.026829
     2  C   -0.092342
     3  C   -0.117760
     4  C   -0.027853
     5  N   -0.211433
     6  C   -0.083161
     7  C    0.021291
     8  C   -0.069884
     9  C    0.016585
    10  C    0.009215
    11  C    0.015181
    12  C   -0.054514
    13  C    0.199807
    14  O   -0.299355
    15  O   -0.232646
    16  N   -0.101101
    17  C    0.080436
    18  C   -0.103415
    19  C    0.044835
    20  C    0.121597
    21  C    0.097227
    22  C   -0.105468
    23  C   -0.056322
    24  N   -0.160799
    25  C    0.033822
    26  C   -0.000661
    27  C   -0.098450
    28  C   -0.012711
    29  C    0.067379
    30  C    0.003968
    31  C    0.080903
    32  N   -0.001615
    33  C    0.075067
    34  C   -0.106911
    35  C   -0.054996
    36  C    0.119248
    37  C    0.068833
    38  C    0.037721
    39  O   -0.097508
    40  C   -0.025978
    41  C    0.191920
    42  O   -0.288517
    43  O   -0.297905
    44  C    0.168512
    45  C    0.206807
    46  C   -0.136692
    47  C   -0.041556
    48  C    0.000593
    49  C   -0.017192
    50  C   -0.048995
    51  C    0.101376
    52  C   -0.086998
    53  C   -0.067737
    54  C    0.015066
    55  C    0.066670
    56  C    0.069072
    57  C   -0.013358
    58  C   -0.000791
    59  C   -0.028063
    60  C    0.150374
    61  C    0.074642
    62  C   -0.126849
    63  C    0.064292
    64  C    0.038728
    65  H   -0.010649
    66  H   -0.016625
    67  H   -0.050639
    68  H    0.051276
    69  H    0.013071
    70  H    0.035088
    71  H    0.034708
    72  H    0.052374
    73  H    0.056999
    74  H    0.015407
    75  H    0.045236
    76  H    0.060254
    77  H    0.020239
    78  H    0.020489
    79  H    0.014167
    80  H    0.050535
    81  H    0.044766
    82  H    0.034639
    83  H   -0.000183
    84  H   -0.002081
    85  H   -0.043163
    86  H    0.011084
    87  H    0.011628
    88  H   -0.033015
    89  H    0.010693
    90  H    0.005337
    91  H    0.050940
    92  H    0.024693
    93  H    0.029667
    94  H    0.004314
    95  H    0.049117
    96  H    0.059967
    97  H    0.069896
    98  H    0.042946
    99  H    0.008565
   100  H    0.027561
   101  H    0.031203
   102  H    0.070276
   103  H    0.021132
   104  H    0.006388
   105  H   -0.005848
   106  H   -0.007295
   107  H    0.006507
   108  H   -0.005876
   109  H    0.018241
   110  H    0.009300
   111  H    0.038139
   112  H    0.014728
   113  H    0.010322
   114  H    0.005568
   115  H    0.004228
   116  H   -0.020684
   117  H   -0.041166
   118  H   -0.024521
   119  H   -0.029989
   120  H   -0.042244
   121  H    0.023001
   122  H    0.007206
   123  H   -0.030384
   124  H    0.027629
   125  H    0.009686
   126  H   -0.018618
   127  H   -0.026791
   128  H   -0.009904
   129  H   -0.111667
   130  H   -0.019448
   131  H    0.000533
   132  H   -0.010010
   133  H    0.007333
   134  H   -0.010524
   135  H    0.040720
   136  H   -0.006921
   137  H    0.159021
   138  H    0.112970
 Sum of Mulliken charges =  -0.00000

 Dipole moment (field-independent basis, Debye):
    X=              1.7780    Y=              2.4140    Z=              0.5648  Tot=              3.0509
 Quadrupole moment (field-independent basis, Debye-Ang):
   XX=           -350.9557   YY=           -368.5754   ZZ=           -399.3154
   XY=            -21.6006   XZ=              9.7667   YZ=             -5.1726

 Normal termination of Gaussian 16 at Sat Aug 24 23:45:53 2019.
