 Gaussian 16, Revision A.03,
 Gaussian 16:  ES64L-G16RevA.03 25-Dec-2016

 --------------------------
 # td=(NStates=1) B3LYP/SVP
 --------------------------

 --
 TD
 --
 Symbolic Z-matrix:
 Charge =  0 Multiplicity = 1

                         Standard orientation:
 ---------------------------------------------------------------------
 Center     Atomic      Atomic             Coordinates (Angstroms)
 Number     Number       Type             X           Y           Z
 ---------------------------------------------------------------------
      1          6           0       -5.129521   -1.927943    0.462616
      2          6           0       -4.776711    2.708803    1.404368
      3          6           0       -9.350462    3.336077   -0.178485
      4          6           0       -9.856629   -1.502582   -1.151276
      5          7           0       -5.142892    0.386812    0.795098
      6          6           0       -4.431626   -0.769493    0.835546
      7          6           0       -3.073476   -0.592317    1.371790
      8          6           0       -3.070775    0.889747    1.900212
      9          6           0       -4.390087    1.332381    1.388586
     10          6           0       -3.095246    0.873270    3.411800
     11          6           0       -2.151565   -0.698102    0.223138
     12          6           0       -0.619404   -0.650221    0.567306
     13          6           0        0.326382   -0.709284   -0.662231
     14          8           0        0.020087   -1.283113   -1.674714
     15          8           0        1.683985   -0.396806   -0.303860
     16          7           0       -7.029488    2.744271    0.490896
     17          6           0       -5.951973    3.410811    0.991172
     18          6           0       -6.273483    4.745712    1.118446
     19          6           0       -7.554418    4.980489    0.683028
     20          6           0       -8.068974    3.621369    0.286891
     21          6           0       -5.331768    5.856914    1.492942
     22          6           0       -8.338603    6.244811    0.400664
     23          6           0       -9.311052    6.477094   -0.421448
     24          7           0       -9.190788    0.810120   -0.527303
     25          6           0       -9.783804    1.986098   -0.477810
     26          6           0      -11.175083    1.813629   -1.066889
     27          6           0      -11.416856    0.448678   -1.234146
     28          6           0      -10.088566   -0.122091   -0.908424
     29          6           0      -12.151298    2.972921   -1.348282
     30          6           0      -12.639541   -0.247008   -1.676032
     31          6           0      -12.507321   -0.527641   -3.204526
     32          7           0       -7.608197   -1.334282   -0.235949
     33          6           0       -8.657910   -2.100717   -0.657795
     34          6           0       -8.121078   -3.442505   -0.739453
     35          6           0       -6.809474   -3.451744   -0.307137
     36          6           0       -6.508238   -2.101689   -0.023124
     37          6           0       -9.131744   -4.620226   -1.062944
     38          6           0       -5.691869   -4.309604   -0.031832
     39          8           0       -5.541907   -5.516814   -0.153231
     40          6           0       -4.517170   -3.405889    0.443511
     41          6           0       -3.881417   -3.961468    1.756189
     42          8           0       -4.044560   -3.395636    2.845757
     43          8           0       -3.138960   -5.065519    1.584006
     44          6           0       -2.576665   -5.584447    2.762861
     45          6           0        2.704206   -0.703944   -1.193261
     46          6           0        3.906763   -0.360902   -0.455782
     47          6           0        4.986533    0.264049   -1.031094
     48          6           0        4.888484    0.966773   -2.416309
     49          6           0        6.261515    0.508693   -0.238180
     50          6           0        7.517121   -0.321035   -0.954005
     51          6           0        8.858773   -0.135067   -0.076644
     52          6           0       10.062420   -0.743393   -0.679604
     53          6           0       10.117735   -2.287063   -0.761675
     54          6           0       11.216212   -0.272447   -0.045575
     55          6           0       12.610512   -0.601088   -0.675648
     56          6           0       13.848251    0.001043    0.032561
     57          6           0       15.215119   -0.383294   -0.547224
     58          6           0       15.640373   -1.842343   -0.357284
     59          6           0       16.231034    0.652410    0.199561
     60          6           0       17.793959    0.531014   -0.233131
     61          6           0       18.637707    1.486376    0.538604
     62          6           0       20.141014    1.566542    0.172772
     63          6           0       20.418316    2.025562   -1.290085
     64          6           0       20.902144    2.468593    1.167359
     65          1           0       -4.135780    3.506051    1.643054
     66          1           0      -10.147995    4.173136   -0.150519
     67          1           0      -10.877183   -1.973644   -1.453644
     68          1           0       -2.893020   -1.235269    2.282627
     69          1           0       -2.345502    1.477048    1.749625
     70          1           0       -2.429169    0.274191    3.705510
     71          1           0       -3.071520    1.861842    3.919541
     72          1           0       -4.074282    0.300191    3.740999
     73          1           0       -2.361339   -1.631229   -0.320920
     74          1           0       -2.383413    0.116206   -0.490727
     75          1           0       -0.364497    0.261916    1.061736
     76          1           0       -0.183643   -1.321496    1.252677
     77          1           0       -4.536318    6.487574    0.649894
     78          1           0       -5.878221    6.821352    2.233612
     79          1           0       -4.579238    5.376691    2.313318
     80          1           0       -7.840625    7.057644    0.969283
     81          1           0       -9.956550    5.912700   -0.949608
     82          1           0       -9.466285    7.590993   -0.557229
     83          1           0      -12.321129    3.548615   -0.390852
     84          1           0      -11.784740    3.732454   -2.032802
     85          1           0      -13.251691    2.664321   -1.434906
     86          1           0      -12.870108   -1.242870   -1.175926
     87          1           0      -13.373430    0.238582   -1.395882
     88          1           0      -12.650531    0.442535   -3.752279
     89          1           0      -11.565708   -1.136605   -3.375088
     90          1           0      -13.299697   -1.319486   -3.511263
     91          1           0       -9.848486   -4.757683   -0.397829
     92          1           0       -9.491474   -4.506220   -2.028159
     93          1           0       -8.548559   -5.559478   -0.990950
     94          1           0       -3.722693   -3.508866   -0.163659
     95          1           0       -2.044652   -6.600673    2.380138
     96          1           0       -2.157908   -4.829826    3.411596
     97          1           0       -3.331854   -6.100298    3.371000
     98          1           0        2.834222   -1.781823   -1.411909
     99          1           0        2.547798   -0.301691   -2.268721
    100          1           0        4.109109   -0.949062    0.437516
    101          1           0        4.970546    2.004101   -2.137280
    102          1           0        5.799260    0.671186   -3.194468
    103          1           0        4.044544    0.945483   -3.010644
    104          1           0        6.728684    1.515155   -0.341310
    105          1           0        6.173156    0.068661    0.884159
    106          1           0        7.305795   -1.281004   -0.952420
    107          1           0        7.626513   -0.027930   -2.050799
    108          1           0        9.255116    0.911910   -0.079887
    109          1           0        8.794471   -0.470707    0.886806
    110          1           0       10.307383   -0.341385   -1.902545
    111          1           0        9.226473   -2.802143   -1.319503
    112          1           0       10.897078   -2.554307   -1.376669
    113          1           0       10.142811   -2.627535    0.186658
    114          1           0       11.114011    1.007228    0.070750
    115          1           0       11.057979   -0.700499    1.041830
    116          1           0       12.849107   -1.735878   -0.885835
    117          1           0       12.716565   -0.128647   -1.837562
    118          1           0       13.726624    1.133754    0.137294
    119          1           0       14.021809   -0.216230    1.368644
    120          1           0       15.441942   -0.235773   -1.635913
    121          1           0       14.987225   -2.542617   -0.819869
    122          1           0       16.668687   -2.027570   -0.661818
    123          1           0       15.590397   -2.110691    0.780169
    124          1           0       15.806297    1.578269    0.127335
    125          1           0       16.170189    0.541048    1.275311
    126          1           0       18.169534   -0.555243    0.191770
    127          1           0       17.872331    0.687550   -1.255127
    128          1           0       18.048813    2.535553    0.672074
    129          1           0       18.651516    1.459962    1.759317
    130          1           0       20.406910    0.485767    0.358450
    131          1           0       19.961722    3.059597   -1.309686
    132          1           0       21.534102    1.940195   -1.671598
    133          1           0       19.709075    1.404620   -1.958298
    134          1           0       20.822897    1.997044    2.281824
    135          1           0       21.950460    2.605972    0.704624
    136          1           0       20.605382    3.631039    1.106120
    137          1           0       -7.072620    1.591730    0.725399
    138          1           0       -7.920867   -0.256698   -0.096960
 ---------------------------------------------------------------------

 SCF Done:  E(RB3LYP) =  -2732.96376228     A.U. after   17 cycles

 Excitation energies and oscillator strengths:

 Excited State   1:      Singlet-A      2.0468 eV  605.76 nm  f=0.1560  <S**2>=0.000
     235 -> 238        0.32255
     236 -> 237        0.62599
 This state for optimization and/or second-order correction.
 Total Energy, E(TD-HF/TD-DFT) =  -2732.88854498
 Copying the excited state density for this state as the 1-particle RhoCI density.

 The electronic state is 1-A.
 Alpha  occ. eigenvalues --  -19.18841 -19.17045 -19.13730 -19.12372 -19.11613
 Alpha  occ. eigenvalues --  -14.37416 -14.36359 -14.32641 -14.31106 -10.32214
 Alpha  occ. eigenvalues --  -10.32122 -10.27462 -10.25141 -10.24523 -10.24119
 Alpha  occ. eigenvalues --  -10.23978 -10.23906 -10.23610 -10.23293 -10.22956
 Alpha  occ. eigenvalues --  -10.22812 -10.22627 -10.21666 -10.21585 -10.21247
 Alpha  occ. eigenvalues --  -10.21247 -10.21242 -10.21191 -10.21003 -10.20980
 Alpha  occ. eigenvalues --  -10.20889 -10.20829 -10.20805 -10.20734 -10.20664
 Alpha  occ. eigenvalues --  -10.20532 -10.20358 -10.20344 -10.20301 -10.20052
 Alpha  occ. eigenvalues --  -10.19924 -10.19722 -10.19665 -10.19584 -10.19530
 Alpha  occ. eigenvalues --  -10.19490 -10.19435 -10.19391 -10.19369 -10.19342
 Alpha  occ. eigenvalues --  -10.19304 -10.19246 -10.18769 -10.18671 -10.18652
 Alpha  occ. eigenvalues --  -10.18574 -10.18432 -10.18071 -10.18001 -10.17987
 Alpha  occ. eigenvalues --  -10.17767 -10.17645 -10.17549 -10.17078  -1.10261
 Alpha  occ. eigenvalues --   -1.08097  -1.01830  -1.01527  -0.99905  -0.98281
 Alpha  occ. eigenvalues --   -0.98051  -0.95625  -0.94774  -0.84020  -0.83680
 Alpha  occ. eigenvalues --   -0.82506  -0.81666  -0.81036  -0.80904  -0.80582
 Alpha  occ. eigenvalues --   -0.80343  -0.79621  -0.79096  -0.78332  -0.77986
 Alpha  occ. eigenvalues --   -0.76927  -0.76012  -0.75484  -0.74630  -0.74016
 Alpha  occ. eigenvalues --   -0.73608  -0.73154  -0.72391  -0.71318  -0.70702
 Alpha  occ. eigenvalues --   -0.69597  -0.69381  -0.68772  -0.67894  -0.67453
 Alpha  occ. eigenvalues --   -0.67293  -0.66416  -0.65852  -0.65643  -0.64814
 Alpha  occ. eigenvalues --   -0.64302  -0.63391  -0.63219  -0.62531  -0.61829
 Alpha  occ. eigenvalues --   -0.60835  -0.59600  -0.59104  -0.58082  -0.57916
 Alpha  occ. eigenvalues --   -0.57169  -0.56790  -0.56304  -0.55009  -0.54729
 Alpha  occ. eigenvalues --   -0.54262  -0.54051  -0.53656  -0.53353  -0.53262
 Alpha  occ. eigenvalues --   -0.52817  -0.52119  -0.51808  -0.51006  -0.50911
 Alpha  occ. eigenvalues --   -0.49800  -0.49294  -0.48956  -0.48716  -0.48618
 Alpha  occ. eigenvalues --   -0.48303  -0.47737  -0.47365  -0.47083  -0.47023
 Alpha  occ. eigenvalues --   -0.46763  -0.46636  -0.46128  -0.45934  -0.45754
 Alpha  occ. eigenvalues --   -0.45682  -0.45343  -0.45116  -0.44995  -0.44571
 Alpha  occ. eigenvalues --   -0.44465  -0.44211  -0.44095  -0.43708  -0.43650
 Alpha  occ. eigenvalues --   -0.43451  -0.43045  -0.42776  -0.42682  -0.42492
 Alpha  occ. eigenvalues --   -0.42320  -0.42238  -0.42101  -0.41858  -0.41621
 Alpha  occ. eigenvalues --   -0.41405  -0.41283  -0.41085  -0.40801  -0.40401
 Alpha  occ. eigenvalues --   -0.40310  -0.40137  -0.39641  -0.39426  -0.39199
 Alpha  occ. eigenvalues --   -0.39026  -0.38891  -0.38478  -0.38309  -0.37949
 Alpha  occ. eigenvalues --   -0.37858  -0.37617  -0.37349  -0.37287  -0.37112
 Alpha  occ. eigenvalues --   -0.36945  -0.36875  -0.36694  -0.36387  -0.36358
 Alpha  occ. eigenvalues --   -0.36274  -0.36129  -0.36033  -0.35731  -0.35640
 Alpha  occ. eigenvalues --   -0.35442  -0.35360  -0.35203  -0.35105  -0.35061
 Alpha  occ. eigenvalues --   -0.34962  -0.34583  -0.34499  -0.34432  -0.34172
 Alpha  occ. eigenvalues --   -0.33801  -0.33735  -0.33247  -0.32995  -0.32869
 Alpha  occ. eigenvalues --   -0.32331  -0.32243  -0.32240  -0.32118  -0.31486
 Alpha  occ. eigenvalues --   -0.31309  -0.31138  -0.30361  -0.29944  -0.29367
 Alpha  occ. eigenvalues --   -0.28978  -0.28774  -0.28473  -0.28399  -0.28276
 Alpha  occ. eigenvalues --   -0.27870  -0.27545  -0.26866  -0.26238  -0.26072
 Alpha  occ. eigenvalues --   -0.24918  -0.24675  -0.23488  -0.22987  -0.19818
 Alpha  occ. eigenvalues --   -0.19132
 Alpha virt. eigenvalues --   -0.10449  -0.08001  -0.04411  -0.01828  -0.01432
 Alpha virt. eigenvalues --   -0.00334   0.00002   0.00503   0.02150   0.02623
 Alpha virt. eigenvalues --    0.02948   0.03763   0.04079   0.04116   0.04857

 Mulliken charges:
               1
     1  C    0.018364
     2  C   -0.008980
     3  C   -0.155153
     4  C   -0.057060
     5  N   -0.165456
     6  C   -0.108896
     7  C    0.023623
     8  C    0.036770
     9  C    0.033440
    10  C    0.124547
    11  C    0.077605
    12  C    0.091943
    13  C    0.189001
    14  O   -0.207742
    15  O   -0.346282
    16  N   -0.130392
    17  C    0.006243
    18  C   -0.021710
    19  C   -0.004316
    20  C    0.082662
    21  C   -0.126641
    22  C    0.037012
    23  C    0.006098
    24  N   -0.205873
    25  C    0.087304
    26  C   -0.187383
    27  C   -0.082978
    28  C   -0.004047
    29  C    0.073705
    30  C    0.165678
    31  C   -0.019826
    32  N   -0.093431
    33  C    0.063525
    34  C   -0.193829
    35  C    0.029428
    36  C    0.102393
    37  C    0.175848
    38  C    0.061761
    39  O   -0.172710
    40  C    0.019836
    41  C    0.175969
    42  O   -0.262338
    43  O   -0.262668
    44  C    0.169018
    45  C    0.238667
    46  C   -0.062250
    47  C   -0.115557
    48  C    0.053423
    49  C    0.025899
    50  C    0.037445
    51  C    0.111674
    52  C   -0.147248
    53  C    0.109173
    54  C   -0.030479
    55  C    0.003054
    56  C   -0.048635
    57  C   -0.066600
    58  C    0.038766
    59  C    0.031931
    60  C    0.092696
    61  C   -0.097800
    62  C   -0.064095
    63  C   -0.020576
    64  C   -0.032397
    65  H   -0.062360
    66  H    0.026084
    67  H    0.025028
    68  H    0.026588
    69  H   -0.087323
    70  H   -0.054088
    71  H    0.021739
    72  H    0.019003
    73  H    0.018922
    74  H    0.014415
    75  H   -0.006058
    76  H    0.018380
    77  H    0.076921
    78  H    0.052675
    79  H    0.042410
    80  H   -0.004168
    81  H   -0.021446
    82  H    0.030378
    83  H    0.012732
    84  H    0.027358
    85  H    0.017988
    86  H    0.001920
    87  H   -0.093990
    88  H    0.038829
    89  H    0.027525
    90  H    0.009221
    91  H   -0.008542
    92  H    0.004441
    93  H    0.017929
    94  H    0.005858
    95  H    0.050435
    96  H    0.036766
    97  H    0.017105
    98  H    0.009190
    99  H    0.025092
   100  H   -0.007747
   101  H    0.017704
   102  H    0.037347
   103  H   -0.011365
   104  H    0.017866
   105  H    0.027731
   106  H   -0.043079
   107  H    0.014599
   108  H   -0.010290
   109  H   -0.035786
   110  H   -0.016167
   111  H    0.008738
   112  H   -0.008393
   113  H   -0.026819
   114  H    0.018264
   115  H    0.000640
   116  H    0.026182
   117  H    0.018381
   118  H    0.009910
   119  H    0.003240
   120  H   -0.002338
   121  H   -0.000327
   122  H    0.010963
   123  H    0.000587
   124  H   -0.039162
   125  H   -0.022882
   126  H    0.028420
   127  H   -0.004197
   128  H   -0.013325
   129  H   -0.003688
   130  H    0.000534
   131  H    0.017244
   132  H    0.043406
   133  H    0.014063
   134  H    0.043420
   135  H    0.012297
   136  H    0.019811
   137  H    0.230559
   138  H    0.195550
 Sum of Mulliken charges =  -0.00000

 Dipole moment (field-independent basis, Debye):
    X=              0.7026    Y=              4.1764    Z=              1.2669  Tot=              4.4205
 Quadrupole moment (field-independent basis, Debye-Ang):
   XX=           -348.6770   YY=           -385.2289   ZZ=           -396.8420
   XY=            -30.9649   XZ=             -2.5640   YZ=             -4.5570

 Normal termination of Gaussian 16 at Thu Aug 15 17:49:10 2019.
