 Gaussian 16, Revision A.03,
 Gaussian 16:  ES64L-G16RevA.03 25-Dec-2016

 --------------------------
 # td=(NStates=1) B3LYP/SVP
 --------------------------

 --
 TD
 --
 Symbolic Z-matrix:
 Charge =  0 Multiplicity = 1

                         Standard orientation:
 ---------------------------------------------------------------------
 Center     Atomic      Atomic             Coordinates (Angstroms)
 Number     Number       Type             X           Y           Z
 ---------------------------------------------------------------------
      1          6           0       -5.116842   -1.977543    0.411554
      2          6           0       -4.599054    2.739530    1.402852
      3          6           0       -9.231773    3.369565   -0.207380
      4          6           0       -9.845826   -1.402381   -0.892347
      5          7           0       -5.116785    0.467152    0.777321
      6          6           0       -4.494967   -0.823703    0.806872
      7          6           0       -3.044682   -0.634194    1.240730
      8          6           0       -2.937539    0.825975    1.658684
      9          6           0       -4.268983    1.357774    1.218370
     10          6           0       -2.643512    1.137753    3.188144
     11          6           0       -2.036903   -0.989990    0.169659
     12          6           0       -0.559569   -0.825052    0.645931
     13          6           0        0.444295   -1.070671   -0.623949
     14          8           0       -0.003020   -1.562855   -1.645292
     15          8           0        1.578569   -0.877861   -0.262282
     16          7           0       -6.937522    2.721972    0.606088
     17          6           0       -5.795040    3.429898    0.988380
     18          6           0       -6.114027    4.767113    0.940545
     19          6           0       -7.424532    4.924690    0.481451
     20          6           0       -8.039206    3.643781    0.299784
     21          6           0       -5.165113    5.859609    1.410985
     22          6           0       -8.035654    6.351359    0.386038
     23          6           0       -8.969474    6.761080   -0.430849
     24          7           0       -9.159009    0.898185   -0.480256
     25          6           0       -9.784809    2.146854   -0.542414
     26          6           0      -11.196506    1.973905   -0.796019
     27          6           0      -11.436094    0.593787   -1.033240
     28          6           0      -10.080326   -0.043177   -0.902524
     29          6           0      -12.178801    3.003297   -1.168257
     30          6           0      -12.743065   -0.045874   -1.604623
     31          6           0      -12.715589   -0.362544   -3.065079
     32          7           0       -7.425175   -1.172974   -0.356060
     33          6           0       -8.604638   -2.025246   -0.656602
     34          6           0       -8.206710   -3.468332   -0.606578
     35          6           0       -6.876822   -3.359705   -0.240710
     36          6           0       -6.424798   -2.036864   -0.045452
     37          6           0       -9.074681   -4.558592   -0.956954
     38          6           0       -5.794575   -4.307568    0.045816
     39          8           0       -5.900593   -5.558355    0.028660
     40          6           0       -4.581799   -3.319013    0.523564
     41          6           0       -4.023174   -3.824349    1.722328
     42          8           0       -4.209479   -3.305608    2.810672
     43          8           0       -3.250691   -4.991945    1.567920
     44          6           0       -2.677031   -5.427917    2.690836
     45          6           0        2.639076   -1.062187   -1.215490
     46          6           0        4.000033   -0.753730   -0.546782
     47          6           0        4.984968   -0.050395   -1.087555
     48          6           0        4.761044    0.716695   -2.411693
     49          6           0        6.270272    0.207079   -0.321257
     50          6           0        7.468058   -0.465846   -1.035641
     51          6           0        8.745911   -0.307433   -0.108408
     52          6           0       10.025725   -0.866752   -0.831415
     53          6           0       10.050784   -2.318218   -1.088598
     54          6           0       11.334310   -0.469081    0.053994
     55          6           0       12.689008   -0.551762   -0.640528
     56          6           0       13.799807   -0.175173    0.266451
     57          6           0       15.255466   -0.193949   -0.398083
     58          6           0       15.655794   -1.659738   -0.685673
     59          6           0       16.211225    0.530121    0.582465
     60          6           0       17.591564    0.775994   -0.102036
     61          6           0       18.517604    1.790054    0.581571
     62          6           0       19.944781    1.694685    0.123769
     63          6           0       20.092364    2.447767   -1.231143
     64          6           0       20.772765    2.454680    1.306551
     65          1           0       -3.781135    3.424532    1.723102
     66          1           0       -9.951778    4.099730    0.013730
     67          1           0      -10.588161   -2.245032   -1.122813
     68          1           0       -2.928070   -1.332557    2.183788
     69          1           0       -2.190981    1.566559    1.295887
     70          1           0       -1.793617    0.687639    3.636736
     71          1           0       -2.686581    2.383641    3.315572
     72          1           0       -3.563414    0.684138    3.811982
     73          1           0       -2.110377   -2.087991   -0.212051
     74          1           0       -2.148977   -0.289752   -0.860104
     75          1           0       -0.412843    0.227749    1.070584
     76          1           0       -0.165639   -1.499983    1.567583
     77          1           0       -4.234522    5.878676    0.466241
     78          1           0       -5.411627    7.035079    1.225244
     79          1           0       -4.481815    5.827997    2.364731
     80          1           0       -7.842632    7.053659    1.159625
     81          1           0       -9.234849    6.087825   -1.219183
     82          1           0       -9.294764    7.775470   -0.637423
     83          1           0      -12.655754    3.407037   -0.195843
     84          1           0      -11.684196    3.934325   -1.694805
     85          1           0      -13.076806    2.713278   -1.683855
     86          1           0      -12.947939   -1.083276   -1.059895
     87          1           0      -13.602067    0.654958   -1.385605
     88          1           0      -12.602334    0.518024   -3.705242
     89          1           0      -12.023598   -1.100984   -3.412873
     90          1           0      -13.656695   -0.831835   -3.220356
     91          1           0       -9.723392   -4.743432   -0.139654
     92          1           0       -9.640072   -4.561034   -2.002826
     93          1           0       -8.642586   -5.643319   -0.932596
     94          1           0       -3.785485   -3.401393   -0.292162
     95          1           0       -1.971397   -6.249551    2.406030
     96          1           0       -1.972262   -4.809904    3.226130
     97          1           0       -3.478682   -5.745798    3.360623
     98          1           0        2.554501   -1.941498   -1.653521
     99          1           0        2.448729   -0.296468   -2.208414
    100          1           0        3.941709   -1.097176    0.534153
    101          1           0        4.999284    1.923700   -2.276299
    102          1           0        5.737071    0.590188   -3.097574
    103          1           0        3.746623    0.375155   -2.755608
    104          1           0        6.383137    1.337709   -0.380072
    105          1           0        6.383148   -0.370195    0.769398
    106          1           0        7.132766   -1.553966   -1.211935
    107          1           0        7.637916   -0.151644   -2.140606
    108          1           0        8.881447    0.765368    0.126128
    109          1           0        8.650668   -0.861794    0.715625
    110          1           0       10.050052   -0.194324   -1.851338
    111          1           0        9.216699   -2.480767   -1.994188
    112          1           0       11.140477   -2.894272   -1.098303
    113          1           0        9.497402   -3.061109   -0.188574
    114          1           0       11.178136    0.462924    0.254356
    115          1           0       11.380743   -1.230794    0.893679
    116          1           0       12.745038   -1.539219   -1.148676
    117          1           0       12.668601    0.171237   -1.610514
    118          1           0       13.503995    0.996278    0.590744
    119          1           0       13.877321   -0.760523    1.239297
    120          1           0       15.287870    0.210301   -1.463410
    121          1           0       14.986476   -2.164642   -1.216584
    122          1           0       16.672053   -1.720286   -1.162649
    123          1           0       15.556748   -2.225418    0.300977
    124          1           0       15.835226    1.349148    0.824471
    125          1           0       16.309848    0.210320    1.573909
    126          1           0       18.201731   -0.204270   -0.082103
    127          1           0       17.642092    0.937858   -1.379271
    128          1           0       18.067383    2.759310    0.210337
    129          1           0       18.394420    1.631316    1.707342
    130          1           0       20.309448    0.720097   -0.069542
    131          1           0       19.699659    3.566588   -0.996991
    132          1           0       21.347291    2.591125   -1.545970
    133          1           0       19.633003    1.879136   -1.987250
    134          1           0       20.836474    1.591514    2.160128
    135          1           0       21.846211    2.650573    0.707354
    136          1           0       20.065358    3.300812    1.827321
    137          1           0       -7.034088    1.755279    0.517631
    138          1           0       -7.572902   -0.145808   -0.331078
 ---------------------------------------------------------------------

 SCF Done:  E(RB3LYP) =  -2732.97225980     A.U. after   16 cycles

 Excitation energies and oscillator strengths:

 Excited State   1:      Singlet-A      2.0609 eV  601.60 nm  f=0.1513  <S**2>=0.000
     235 -> 237       -0.20817
     235 -> 238        0.28049
     236 -> 237        0.58999
     236 -> 238        0.16000
 This state for optimization and/or second-order correction.
 Total Energy, E(TD-HF/TD-DFT) =  -2732.89652331
 Copying the excited state density for this state as the 1-particle RhoCI density.

 The electronic state is 1-A.
 Alpha  occ. eigenvalues --  -19.20767 -19.17071 -19.12796 -19.12718 -19.11409
 Alpha  occ. eigenvalues --  -14.36800 -14.35502 -14.32055 -14.30173 -10.31541
 Alpha  occ. eigenvalues --  -10.31419 -10.28617 -10.26864 -10.23869 -10.23827
 Alpha  occ. eigenvalues --  -10.23666 -10.23355 -10.23263 -10.23262 -10.22774
 Alpha  occ. eigenvalues --  -10.22746 -10.22503 -10.22374 -10.22013 -10.21737
 Alpha  occ. eigenvalues --  -10.21598 -10.21529 -10.21447 -10.21364 -10.21215
 Alpha  occ. eigenvalues --  -10.21184 -10.21069 -10.20961 -10.20930 -10.20835
 Alpha  occ. eigenvalues --  -10.20720 -10.20625 -10.20595 -10.20585 -10.20563
 Alpha  occ. eigenvalues --  -10.20508 -10.20363 -10.20280 -10.20271 -10.20132
 Alpha  occ. eigenvalues --  -10.20102 -10.20026 -10.19750 -10.19676 -10.19604
 Alpha  occ. eigenvalues --  -10.19458 -10.19073 -10.19001 -10.18903 -10.18893
 Alpha  occ. eigenvalues --  -10.18855 -10.18834 -10.18586 -10.18584 -10.18382
 Alpha  occ. eigenvalues --  -10.17627 -10.17339 -10.17116 -10.16515  -1.15910
 Alpha  occ. eigenvalues --   -1.09472  -1.01247  -1.00816  -1.00651  -0.96398
 Alpha  occ. eigenvalues --   -0.95905  -0.93960  -0.91790  -0.86059  -0.83312
 Alpha  occ. eigenvalues --   -0.81854  -0.81495  -0.81087  -0.81022  -0.80767
 Alpha  occ. eigenvalues --   -0.80210  -0.79628  -0.78855  -0.78313  -0.78282
 Alpha  occ. eigenvalues --   -0.77136  -0.76440  -0.76245  -0.75334  -0.74221
 Alpha  occ. eigenvalues --   -0.73807  -0.73164  -0.72952  -0.71901  -0.70409
 Alpha  occ. eigenvalues --   -0.69046  -0.68563  -0.67903  -0.67746  -0.67522
 Alpha  occ. eigenvalues --   -0.67019  -0.66340  -0.66025  -0.65839  -0.65351
 Alpha  occ. eigenvalues --   -0.64382  -0.62274  -0.61824  -0.61253  -0.60644
 Alpha  occ. eigenvalues --   -0.60141  -0.59546  -0.58448  -0.58332  -0.57816
 Alpha  occ. eigenvalues --   -0.57262  -0.56668  -0.55666  -0.55396  -0.55061
 Alpha  occ. eigenvalues --   -0.54901  -0.54478  -0.54422  -0.54171  -0.53203
 Alpha  occ. eigenvalues --   -0.52662  -0.52266  -0.52236  -0.51633  -0.51146
 Alpha  occ. eigenvalues --   -0.50275  -0.49535  -0.48662  -0.48627  -0.48593
 Alpha  occ. eigenvalues --   -0.47958  -0.47792  -0.47433  -0.47341  -0.47237
 Alpha  occ. eigenvalues --   -0.46539  -0.46276  -0.46003  -0.45870  -0.45750
 Alpha  occ. eigenvalues --   -0.45580  -0.45091  -0.44995  -0.44830  -0.44699
 Alpha  occ. eigenvalues --   -0.44230  -0.43936  -0.43860  -0.43617  -0.43363
 Alpha  occ. eigenvalues --   -0.43223  -0.43134  -0.42768  -0.42707  -0.42336
 Alpha  occ. eigenvalues --   -0.42229  -0.41955  -0.41817  -0.41351  -0.41302
 Alpha  occ. eigenvalues --   -0.40913  -0.40877  -0.40790  -0.40645  -0.40499
 Alpha  occ. eigenvalues --   -0.39954  -0.39875  -0.39707  -0.39456  -0.39248
 Alpha  occ. eigenvalues --   -0.38909  -0.38853  -0.38737  -0.38644  -0.38299
 Alpha  occ. eigenvalues --   -0.38265  -0.37978  -0.37379  -0.37346  -0.37196
 Alpha  occ. eigenvalues --   -0.37128  -0.37067  -0.36867  -0.36646  -0.36502
 Alpha  occ. eigenvalues --   -0.36174  -0.36059  -0.35787  -0.35582  -0.35404
 Alpha  occ. eigenvalues --   -0.35173  -0.34940  -0.34672  -0.34581  -0.34316
 Alpha  occ. eigenvalues --   -0.34274  -0.34021  -0.33924  -0.33538  -0.33498
 Alpha  occ. eigenvalues --   -0.33485  -0.33216  -0.33054  -0.32729  -0.32455
 Alpha  occ. eigenvalues --   -0.32424  -0.32110  -0.31952  -0.31630  -0.31212
 Alpha  occ. eigenvalues --   -0.31033  -0.30953  -0.30140  -0.30036  -0.29578
 Alpha  occ. eigenvalues --   -0.29485  -0.29126  -0.28283  -0.27861  -0.27624
 Alpha  occ. eigenvalues --   -0.27378  -0.26772  -0.26596  -0.26429  -0.25864
 Alpha  occ. eigenvalues --   -0.25630  -0.25031  -0.24135  -0.21659  -0.20028
 Alpha  occ. eigenvalues --   -0.19104
 Alpha virt. eigenvalues --   -0.10478  -0.07937  -0.04853  -0.01402  -0.01102
 Alpha virt. eigenvalues --   -0.00786   0.00393   0.00965   0.01552   0.02833
 Alpha virt. eigenvalues --    0.03332   0.03597   0.03675   0.03836   0.04185

 Mulliken charges:
               1
     1  C    0.013295
     2  C   -0.060481
     3  C   -0.079660
     4  C   -0.058304
     5  N   -0.177134
     6  C   -0.088281
     7  C    0.053387
     8  C   -0.061523
     9  C    0.016245
    10  C   -0.032715
    11  C   -0.003718
    12  C   -0.086389
    13  C    0.137546
    14  O   -0.264991
    15  O   -0.164486
    16  N   -0.126519
    17  C    0.105103
    18  C   -0.043030
    19  C    0.017261
    20  C    0.146649
    21  C   -0.076854
    22  C   -0.029664
    23  C   -0.024564
    24  N   -0.297054
    25  C    0.089812
    26  C   -0.122041
    27  C   -0.085437
    28  C    0.112803
    29  C    0.053428
    30  C    0.012598
    31  C    0.061050
    32  N   -0.099675
    33  C   -0.010020
    34  C   -0.059804
    35  C   -0.008589
    36  C    0.167380
    37  C    0.034353
    38  C    0.078304
    39  O   -0.195788
    40  C   -0.038428
    41  C    0.214260
    42  O   -0.228468
    43  O   -0.289255
    44  C    0.198725
    45  C    0.217078
    46  C   -0.098929
    47  C   -0.101567
    48  C    0.012795
    49  C    0.052987
    50  C   -0.089263
    51  C    0.131416
    52  C   -0.126749
    53  C   -0.090247
    54  C    0.107878
    55  C    0.009746
    56  C   -0.028252
    57  C   -0.101479
    58  C    0.074352
    59  C    0.262586
    60  C   -0.107623
    61  C    0.038274
    62  C   -0.083412
    63  C   -0.043960
    64  C   -0.071439
    65  H   -0.021973
    66  H   -0.009900
    67  H    0.001690
    68  H    0.042955
    69  H    0.013475
    70  H    0.021619
    71  H    0.035457
    72  H    0.034832
    73  H    0.034802
    74  H    0.044052
    75  H    0.023035
    76  H    0.041420
    77  H    0.026734
    78  H    0.047132
    79  H    0.064982
    80  H    0.004456
    81  H    0.011026
    82  H    0.023951
    83  H    0.014986
    84  H    0.037761
    85  H    0.006732
    86  H    0.014037
    87  H    0.011339
    88  H    0.012202
    89  H   -0.001132
    90  H   -0.005921
    91  H    0.019749
    92  H    0.061837
    93  H    0.038546
    94  H    0.078076
    95  H    0.013951
    96  H   -0.002501
    97  H    0.014152
    98  H   -0.002016
    99  H    0.049388
   100  H    0.018431
   101  H    0.040575
   102  H    0.034100
   103  H    0.029493
   104  H    0.017047
   105  H    0.034491
   106  H    0.014324
   107  H    0.013170
   108  H    0.002890
   109  H   -0.034826
   110  H    0.009034
   111  H    0.039655
   112  H    0.058435
   113  H    0.016053
   114  H   -0.063753
   115  H    0.003203
   116  H   -0.011668
   117  H   -0.002072
   118  H    0.010022
   119  H    0.009266
   120  H    0.002811
   121  H   -0.037710
   122  H    0.022857
   123  H   -0.012020
   124  H   -0.105594
   125  H   -0.037455
   126  H   -0.002419
   127  H    0.009034
   128  H    0.009199
   129  H    0.004190
   130  H   -0.010178
   131  H    0.034193
   132  H    0.018245
   133  H    0.018554
   134  H    0.031083
   135  H    0.043925
   136  H    0.050813
   137  H    0.105800
   138  H    0.152360
 Sum of Mulliken charges =  -0.00000

 Dipole moment (field-independent basis, Debye):
    X=              3.4213    Y=              4.1463    Z=             -0.0727  Tot=              5.3760
 Quadrupole moment (field-independent basis, Debye-Ang):
   XX=           -363.7695   YY=           -389.5884   ZZ=           -399.9242
   XY=            -23.0565   XZ=             16.6647   YZ=              0.4442

 Normal termination of Gaussian 16 at Sat Aug 24 08:06:18 2019.
