 Gaussian 16, Revision A.03,
 Gaussian 16:  ES64L-G16RevA.03 25-Dec-2016

 --------------------------
 # td=(NStates=1) B3LYP/SVP
 --------------------------

 --
 TD
 --
 Symbolic Z-matrix:
 Charge =  0 Multiplicity = 1

                         Standard orientation:
 ---------------------------------------------------------------------
 Center     Atomic      Atomic             Coordinates (Angstroms)
 Number     Number       Type             X           Y           Z
 ---------------------------------------------------------------------
      1          6           0       -5.166191   -2.015655    0.650885
      2          6           0       -4.588454    2.661889    1.649646
      3          6           0       -9.107417    3.346090   -0.276351
      4          6           0       -9.803603   -1.445860   -1.049753
      5          7           0       -5.179314    0.359234    0.915785
      6          6           0       -4.530472   -0.851391    0.961742
      7          6           0       -3.027834   -0.645836    1.446883
      8          6           0       -3.042986    0.673377    2.100757
      9          6           0       -4.302816    1.349081    1.515855
     10          6           0       -2.971655    0.631189    3.657178
     11          6           0       -2.074178   -0.766195    0.264856
     12          6           0       -0.730021   -0.710597    0.713698
     13          6           0        0.320072   -0.815941   -0.526590
     14          8           0        0.038522   -1.271713   -1.554782
     15          8           0        1.659737   -0.640392   -0.139817
     16          7           0       -6.873406    2.744837    0.592212
     17          6           0       -5.801276    3.334411    1.232872
     18          6           0       -6.068332    4.715142    1.226866
     19          6           0       -7.351889    5.004746    0.562518
     20          6           0       -7.811342    3.584753    0.198445
     21          6           0       -5.148614    5.809722    1.718482
     22          6           0       -7.896138    6.255236    0.284595
     23          6           0       -8.988615    6.652224   -0.396401
     24          7           0       -9.106066    0.913081   -0.611746
     25          6           0       -9.724039    2.041266   -0.643662
     26          6           0      -11.050718    2.004757   -1.104788
     27          6           0      -11.304662    0.618081   -1.301858
     28          6           0      -10.022653   -0.019902   -0.910929
     29          6           0      -12.081736    3.099138   -1.493129
     30          6           0      -12.452331   -0.037894   -1.919832
     31          6           0      -12.397522   -0.126490   -3.444737
     32          7           0       -7.459609   -1.249365   -0.100050
     33          6           0       -8.661528   -1.992735   -0.614992
     34          6           0       -8.284178   -3.356654   -0.670015
     35          6           0       -6.996515   -3.314346   -0.213911
     36          6           0       -6.512413   -2.087999    0.154230
     37          6           0       -9.198862   -4.462084   -1.131730
     38          6           0       -5.847610   -4.308117    0.025900
     39          8           0       -5.844318   -5.560792   -0.105817
     40          6           0       -4.615588   -3.470909    0.435713
     41          6           0       -3.904798   -3.946457    1.703507
     42          8           0       -4.155065   -3.539100    2.871246
     43          8           0       -3.196241   -5.079350    1.417747
     44          6           0       -2.797812   -5.878140    2.641256
     45          6           0        2.531799   -0.986088   -1.260093
     46          6           0        3.915454   -0.720656   -0.537541
     47          6           0        4.836541    0.209935   -0.927473
     48          6           0        4.802597    1.055168   -2.088752
     49          6           0        6.132395    0.276079   -0.273704
     50          6           0        7.350977   -0.308628   -0.980629
     51          6           0        8.662411   -0.325259   -0.227264
     52          6           0        9.972537   -0.520395   -1.053162
     53          6           0        9.915967   -2.040270   -1.577035
     54          6           0       11.241393   -0.179558   -0.250605
     55          6           0       12.570079   -0.326317   -0.832049
     56          6           0       13.694489   -0.023515    0.111745
     57          6           0       15.161501   -0.079663   -0.637263
     58          6           0       15.431965   -1.604251   -1.259464
     59          6           0       16.279462    0.431746    0.430641
     60          6           0       17.650159    0.565641   -0.094640
     61          6           0       18.598309    1.331857    0.836203
     62          6           0       20.089035    1.450804    0.332676
     63          6           0       20.171127    2.364724   -0.908218
     64          6           0       21.152350    1.950697    1.362177
     65          1           0       -3.931778    3.273649    2.199582
     66          1           0       -9.942222    4.127445   -0.492055
     67          1           0      -10.671504   -2.050124   -1.196192
     68          1           0       -2.673638   -1.398694    2.033867
     69          1           0       -2.222282    1.409323    1.752150
     70          1           0       -1.912419    0.417354    3.893588
     71          1           0       -3.192405    1.614118    4.131765
     72          1           0       -3.681976   -0.097618    4.115844
     73          1           0       -2.325502   -1.806565   -0.232359
     74          1           0       -2.592919   -0.010485   -0.455080
     75          1           0       -0.337690    0.257931    0.998343
     76          1           0       -0.495220   -1.633410    1.311580
     77          1           0       -4.374382    6.493850    0.902393
     78          1           0       -5.635822    6.716102    2.060799
     79          1           0       -4.446836    5.525475    2.663360
     80          1           0       -7.537425    6.925660    1.256603
     81          1           0       -9.206394    5.845342   -1.299194
     82          1           0       -9.310603    7.583849   -0.337902
     83          1           0      -12.153037    3.511962   -0.445466
     84          1           0      -11.583206    3.916324   -1.983115
     85          1           0      -12.962269    2.727418   -1.894822
     86          1           0      -12.743426   -1.000677   -1.468307
     87          1           0      -13.489820    0.626571   -1.640213
     88          1           0      -12.125268    0.845421   -3.988898
     89          1           0      -11.571971   -0.573166   -3.704164
     90          1           0      -13.126380   -0.605244   -3.926786
     91          1           0      -10.224879   -4.327824   -0.651651
     92          1           0       -9.422666   -4.212488   -2.134220
     93          1           0       -8.855092   -5.403408   -0.914054
     94          1           0       -3.934649   -3.511572   -0.432486
     95          1           0       -2.028633   -6.608301    2.285277
     96          1           0       -2.530946   -5.227128    3.529058
     97          1           0       -3.816987   -6.541227    2.865634
     98          1           0        2.451941   -2.055819   -1.643109
     99          1           0        2.348546   -0.262806   -2.078210
    100          1           0        3.917093   -1.234873    0.416312
    101          1           0        5.226282    2.115192   -1.717754
    102          1           0        5.732564    0.830813   -2.778736
    103          1           0        3.817924    1.045976   -2.737899
    104          1           0        6.430008    1.593011    0.095710
    105          1           0        5.978770   -0.365794    0.622552
    106          1           0        7.126050   -1.306776   -1.409671
    107          1           0        7.491658    0.389769   -1.783293
    108          1           0        9.033737    0.748889    0.342324
    109          1           0        8.627564   -1.077256    0.666003
    110          1           0       10.180870    0.209493   -1.723179
    111          1           0        8.935940   -2.113583   -2.216142
    112          1           0       10.763682   -2.207734   -2.349548
    113          1           0        9.889764   -2.809413   -0.844319
    114          1           0       11.055179    0.751115    0.295178
    115          1           0       11.289304   -0.892377    0.711517
    116          1           0       12.642251   -1.423948   -1.170899
    117          1           0       12.529912    0.201555   -1.820720
    118          1           0       13.652083    1.014628    0.521310
    119          1           0       14.038682   -0.822575    1.051454
    120          1           0       15.117453    0.823863   -1.470233
    121          1           0       14.302999   -1.849406   -1.776240
    122          1           0       16.215275   -1.642263   -2.056609
    123          1           0       15.882055   -2.332164   -0.440378
    124          1           0       16.125921    1.351725    1.089145
    125          1           0       16.320025   -0.441971    1.315278
    126          1           0       18.130650   -0.315157   -0.630749
    127          1           0       17.600612    1.063203   -0.988901
    128          1           0       18.117961    2.365950    1.021846
    129          1           0       18.589325    0.916563    1.844594
    130          1           0       20.250067    0.475858    0.044716
    131          1           0       19.866575    3.369294   -0.758664
    132          1           0       21.320876    2.496199   -1.251494
    133          1           0       19.671708    1.705914   -1.617138
    134          1           0       20.864254    1.649061    2.465571
    135          1           0       22.333885    1.538110    1.061844
    136          1           0       21.038959    3.123789    1.373472
    137          1           0       -7.100524    1.699490    0.347637
    138          1           0       -7.734855   -0.078843    0.015993
 ---------------------------------------------------------------------

 SCF Done:  E(RB3LYP) =  -2732.96045206     A.U. after   17 cycles

 Excitation energies and oscillator strengths:

 Excited State   1:      Singlet-A      1.9946 eV  621.60 nm  f=0.1170  <S**2>=0.000
     235 -> 237        0.38426
     235 -> 238       -0.25595
     236 -> 237        0.48115
     236 -> 238        0.22487
 This state for optimization and/or second-order correction.
 Total Energy, E(TD-HF/TD-DFT) =  -2732.88715242
 Copying the excited state density for this state as the 1-particle RhoCI density.

 The electronic state is 1-A.
 Alpha  occ. eigenvalues --  -19.18283 -19.17254 -19.13327 -19.12630 -19.12345
 Alpha  occ. eigenvalues --  -14.38310 -14.36339 -14.32133 -14.30864 -10.32149
 Alpha  occ. eigenvalues --  -10.31082 -10.28409 -10.26473 -10.25216 -10.24947
 Alpha  occ. eigenvalues --  -10.24434 -10.23018 -10.22917 -10.22775 -10.22758
 Alpha  occ. eigenvalues --  -10.22373 -10.22259 -10.22054 -10.21765 -10.21580
 Alpha  occ. eigenvalues --  -10.21533 -10.21503 -10.21445 -10.21355 -10.21331
 Alpha  occ. eigenvalues --  -10.21277 -10.21025 -10.20770 -10.20705 -10.20661
 Alpha  occ. eigenvalues --  -10.20597 -10.20556 -10.20519 -10.20434 -10.20358
 Alpha  occ. eigenvalues --  -10.20250 -10.20132 -10.19938 -10.19896 -10.19674
 Alpha  occ. eigenvalues --  -10.19548 -10.19354 -10.19310 -10.19211 -10.19195
 Alpha  occ. eigenvalues --  -10.19099 -10.19001 -10.18997 -10.18997 -10.18895
 Alpha  occ. eigenvalues --  -10.18754 -10.18741 -10.18590 -10.18518 -10.18436
 Alpha  occ. eigenvalues --  -10.18104 -10.18069 -10.17358 -10.16657  -1.09958
 Alpha  occ. eigenvalues --   -1.07069  -1.01362  -1.00170  -0.99168  -0.98185
 Alpha  occ. eigenvalues --   -0.97757  -0.96289  -0.91840  -0.83910  -0.83193
 Alpha  occ. eigenvalues --   -0.82485  -0.81695  -0.81656  -0.81509  -0.80757
 Alpha  occ. eigenvalues --   -0.80631  -0.79979  -0.79330  -0.78263  -0.77403
 Alpha  occ. eigenvalues --   -0.76648  -0.75926  -0.75832  -0.74668  -0.74358
 Alpha  occ. eigenvalues --   -0.73165  -0.72607  -0.72263  -0.71003  -0.70694
 Alpha  occ. eigenvalues --   -0.69701  -0.69030  -0.68670  -0.67885  -0.66873
 Alpha  occ. eigenvalues --   -0.66705  -0.66281  -0.65853  -0.65196  -0.65146
 Alpha  occ. eigenvalues --   -0.64293  -0.63368  -0.63088  -0.61908  -0.60946
 Alpha  occ. eigenvalues --   -0.60582  -0.58758  -0.58431  -0.57962  -0.56865
 Alpha  occ. eigenvalues --   -0.56690  -0.56024  -0.55828  -0.55674  -0.55431
 Alpha  occ. eigenvalues --   -0.55029  -0.54215  -0.53649  -0.53256  -0.52540
 Alpha  occ. eigenvalues --   -0.52117  -0.51712  -0.51038  -0.50598  -0.50270
 Alpha  occ. eigenvalues --   -0.49874  -0.49542  -0.48777  -0.48471  -0.48094
 Alpha  occ. eigenvalues --   -0.47715  -0.47230  -0.47070  -0.46861  -0.46718
 Alpha  occ. eigenvalues --   -0.46431  -0.46132  -0.45777  -0.45660  -0.45501
 Alpha  occ. eigenvalues --   -0.45337  -0.45225  -0.44818  -0.44662  -0.44384
 Alpha  occ. eigenvalues --   -0.44196  -0.44079  -0.43850  -0.43521  -0.43408
 Alpha  occ. eigenvalues --   -0.43286  -0.43208  -0.42883  -0.42603  -0.42290
 Alpha  occ. eigenvalues --   -0.42253  -0.41984  -0.41808  -0.41592  -0.41440
 Alpha  occ. eigenvalues --   -0.41193  -0.41007  -0.40899  -0.40849  -0.40550
 Alpha  occ. eigenvalues --   -0.40355  -0.40104  -0.39921  -0.39704  -0.39685
 Alpha  occ. eigenvalues --   -0.39493  -0.39300  -0.38926  -0.38878  -0.38382
 Alpha  occ. eigenvalues --   -0.38325  -0.38184  -0.38042  -0.37837  -0.37637
 Alpha  occ. eigenvalues --   -0.37590  -0.37417  -0.36942  -0.36927  -0.36813
 Alpha  occ. eigenvalues --   -0.36551  -0.36471  -0.36149  -0.36127  -0.35878
 Alpha  occ. eigenvalues --   -0.35519  -0.35419  -0.35183  -0.34983  -0.34576
 Alpha  occ. eigenvalues --   -0.34400  -0.34320  -0.33826  -0.33600  -0.33163
 Alpha  occ. eigenvalues --   -0.32941  -0.32891  -0.32659  -0.32248  -0.31976
 Alpha  occ. eigenvalues --   -0.31917  -0.31680  -0.31486  -0.31249  -0.31190
 Alpha  occ. eigenvalues --   -0.30973  -0.30854  -0.30450  -0.29955  -0.29614
 Alpha  occ. eigenvalues --   -0.29378  -0.29187  -0.28816  -0.28394  -0.28119
 Alpha  occ. eigenvalues --   -0.27806  -0.27675  -0.26673  -0.26220  -0.25811
 Alpha  occ. eigenvalues --   -0.24862  -0.23885  -0.23512  -0.22517  -0.19800
 Alpha  occ. eigenvalues --   -0.19521
 Alpha virt. eigenvalues --   -0.10930  -0.08683  -0.03928  -0.02894  -0.01374
 Alpha virt. eigenvalues --   -0.01120   0.00227   0.00665   0.01993   0.03578
 Alpha virt. eigenvalues --    0.03611   0.03874   0.03904   0.04216   0.04644

 Mulliken charges:
               1
     1  C    0.016869
     2  C   -0.032864
     3  C   -0.087918
     4  C   -0.076056
     5  N   -0.245907
     6  C   -0.073504
     7  C    0.081491
     8  C   -0.048406
     9  C    0.039080
    10  C    0.070621
    11  C   -0.040582
    12  C    0.105674
    13  C    0.136110
    14  O   -0.174133
    15  O   -0.357994
    16  N   -0.053276
    17  C    0.112922
    18  C   -0.075743
    19  C    0.013681
    20  C    0.078110
    21  C   -0.027849
    22  C   -0.091641
    23  C   -0.001071
    24  N   -0.190609
    25  C   -0.034388
    26  C   -0.179060
    27  C   -0.086888
    28  C    0.013356
    29  C    0.169016
    30  C   -0.023431
    31  C    0.148544
    32  N   -0.157461
    33  C    0.132483
    34  C   -0.173552
    35  C   -0.043269
    36  C    0.097248
    37  C    0.202526
    38  C    0.109749
    39  O   -0.209252
    40  C   -0.014107
    41  C    0.236928
    42  O   -0.271737
    43  O   -0.320912
    44  C    0.111739
    45  C    0.233460
    46  C   -0.095135
    47  C   -0.071205
    48  C    0.013201
    49  C   -0.016697
    50  C    0.095960
    51  C   -0.060572
    52  C    0.005067
    53  C   -0.000214
    54  C   -0.032036
    55  C    0.071262
    56  C   -0.021908
    57  C   -0.129064
    58  C   -0.058619
    59  C   -0.014518
    60  C    0.078222
    61  C    0.003846
    62  C   -0.050943
    63  C    0.015735
    64  C   -0.051143
    65  H   -0.050519
    66  H    0.003840
    67  H   -0.024154
    68  H   -0.066177
    69  H    0.002874
    70  H    0.015510
    71  H    0.004921
    72  H    0.040922
    73  H    0.023367
    74  H    0.021279
    75  H    0.026901
    76  H    0.050375
    77  H    0.043624
    78  H    0.008005
    79  H    0.041271
    80  H    0.029384
    81  H    0.060115
    82  H   -0.013231
    83  H    0.027567
    84  H    0.011953
    85  H    0.008696
    86  H    0.005035
    87  H    0.009276
    88  H    0.001133
    89  H   -0.055981
    90  H   -0.018995
    91  H    0.018952
    92  H    0.013646
    93  H    0.019441
    94  H    0.066672
    95  H    0.052640
    96  H    0.075591
    97  H    0.067716
    98  H    0.047721
    99  H    0.015513
   100  H    0.000172
   101  H    0.021992
   102  H    0.032965
   103  H    0.036724
   104  H    0.013530
   105  H   -0.009777
   106  H    0.015921
   107  H   -0.017848
   108  H    0.005652
   109  H    0.011655
   110  H   -0.038087
   111  H    0.015827
   112  H    0.018996
   113  H    0.015102
   114  H   -0.017481
   115  H   -0.021621
   116  H    0.015638
   117  H   -0.008521
   118  H    0.010659
   119  H    0.034723
   120  H    0.017912
   121  H    0.048952
   122  H    0.027994
   123  H    0.042617
   124  H    0.008652
   125  H   -0.003613
   126  H   -0.020996
   127  H   -0.046777
   128  H   -0.006330
   129  H   -0.011293
   130  H   -0.026144
   131  H    0.009932
   132  H    0.010771
   133  H    0.011647
   134  H    0.018627
   135  H    0.045592
   136  H    0.022091
   137  H    0.189568
   138  H    0.240457
 Sum of Mulliken charges =  -0.00000

 Dipole moment (field-independent basis, Debye):
    X=              0.3921    Y=              2.8080    Z=             -0.4572  Tot=              2.8719
 Quadrupole moment (field-independent basis, Debye-Ang):
   XX=           -361.0751   YY=           -381.9557   ZZ=           -396.1502
   XY=            -19.8792   XZ=              5.2283   YZ=              0.0571

 Normal termination of Gaussian 16 at Sat Aug 31 03:55:30 2019.
