 Gaussian 16, Revision A.03,
 Gaussian 16:  ES64L-G16RevA.03 25-Dec-2016

 --------------------------
 # td=(NStates=1) B3LYP/SVP
 --------------------------

 --
 TD
 --
 Symbolic Z-matrix:
 Charge =  0 Multiplicity = 1

                         Standard orientation:
 ---------------------------------------------------------------------
 Center     Atomic      Atomic             Coordinates (Angstroms)
 Number     Number       Type             X           Y           Z
 ---------------------------------------------------------------------
      1          6           0       -5.108937   -1.961705    0.420799
      2          6           0       -4.608809    2.712377    1.269016
      3          6           0       -9.155649    3.464764   -0.206663
      4          6           0       -9.967849   -1.326985   -0.630096
      5          7           0       -5.144377    0.464774    0.737959
      6          6           0       -4.454150   -0.738867    0.810371
      7          6           0       -3.010197   -0.622444    1.242792
      8          6           0       -3.057706    0.859803    1.666242
      9          6           0       -4.340705    1.355815    1.179520
     10          6           0       -2.903840    1.080671    3.207693
     11          6           0       -2.043256   -0.976762    0.036079
     12          6           0       -0.611210   -0.999535    0.435459
     13          6           0        0.391204   -1.321039   -0.675175
     14          8           0        0.126922   -1.676978   -1.806461
     15          8           0        1.695916   -1.048204   -0.273101
     16          7           0       -6.910775    2.827706    0.465637
     17          6           0       -5.723456    3.481423    0.975782
     18          6           0       -6.110600    4.844444    0.967801
     19          6           0       -7.331672    5.097984    0.364536
     20          6           0       -7.858996    3.770169    0.148292
     21          6           0       -5.037026    5.795143    1.539361
     22          6           0       -7.902336    6.379355    0.318307
     23          6           0       -8.998346    6.740310   -0.446100
     24          7           0       -9.277416    0.986034   -0.306736
     25          6           0       -9.822253    2.264306   -0.433654
     26          6           0      -11.259848    2.058003   -0.941331
     27          6           0      -11.476404    0.716756   -1.014032
     28          6           0      -10.161491    0.103487   -0.689418
     29          6           0      -12.124651    3.204572   -1.310566
     30          6           0      -12.707595    0.016867   -1.527018
     31          6           0      -12.661985   -0.446873   -2.980156
     32          7           0       -7.537864   -1.252644   -0.150667
     33          6           0       -8.708853   -1.963479   -0.462410
     34          6           0       -8.300908   -3.426811   -0.489597
     35          6           0       -6.897200   -3.417181   -0.212811
     36          6           0       -6.505821   -2.073368    0.106236
     37          6           0       -9.218011   -4.550888   -0.800650
     38          6           0       -5.822500   -4.306228    0.023422
     39          8           0       -5.701880   -5.464560    0.018267
     40          6           0       -4.548087   -3.475206    0.435793
     41          6           0       -3.919272   -3.854348    1.736127
     42          8           0       -4.305976   -3.580383    2.830609
     43          8           0       -3.058481   -4.853222    1.452901
     44          6           0       -2.585533   -5.556820    2.532429
     45          6           0        2.677746   -1.426115   -1.231410
     46          6           0        3.999473   -1.044988   -0.648374
     47          6           0        5.007296   -0.188565   -1.109734
     48          6           0        4.715324    0.785807   -2.217747
     49          6           0        6.308945   -0.036761   -0.411278
     50          6           0        7.570756   -0.530560   -1.051136
     51          6           0        8.768761   -0.349881   -0.288704
     52          6           0       10.060916   -0.887202   -0.933604
     53          6           0       10.057672   -2.292083   -1.245255
     54          6           0       11.253655   -0.297593   -0.090479
     55          6           0       12.587066   -0.562529   -0.578241
     56          6           0       13.723046   -0.057823    0.239261
     57          6           0       15.164511   -0.176460   -0.339145
     58          6           0       15.598945   -1.728327   -0.374773
     59          6           0       16.163449    0.597934    0.462690
     60          6           0       17.606308    0.784871   -0.104447
     61          6           0       18.531636    1.741892    0.635826
     62          6           0       20.019678    1.870094    0.298015
     63          6           0       20.150131    2.508451   -1.130101
     64          6           0       20.828850    2.782077    1.324590
     65          1           0       -3.713282    3.228666    1.762046
     66          1           0       -9.822513    4.350009   -0.231876
     67          1           0      -10.864405   -1.917978   -1.151644
     68          1           0       -3.029254   -1.228330    2.405397
     69          1           0       -2.317785    1.433987    1.080497
     70          1           0       -2.022699    0.572631    3.534495
     71          1           0       -2.815654    2.196240    3.475533
     72          1           0       -3.878776    0.743620    3.611507
     73          1           0       -2.291792   -1.845032   -0.611967
     74          1           0       -2.023896   -0.160722   -0.571882
     75          1           0       -0.413494   -0.139547    0.748633
     76          1           0       -0.361086   -1.835803    1.308457
     77          1           0       -4.137415    6.044438    0.844601
     78          1           0       -5.627485    6.688692    1.817905
     79          1           0       -4.721707    5.526383    2.561627
     80          1           0       -7.576932    7.187069    0.816871
     81          1           0       -9.434826    6.249172   -1.408060
     82          1           0       -9.441259    7.679380   -0.360575
     83          1           0      -12.460962    4.031872   -0.427396
     84          1           0      -11.563985    3.948925   -2.039258
     85          1           0      -13.147725    3.133322   -1.798559
     86          1           0      -12.956270   -0.938196   -1.002533
     87          1           0      -13.834854    0.426706   -1.256750
     88          1           0      -12.384440    0.424352   -3.681233
     89          1           0      -11.853495   -1.247077   -3.271277
     90          1           0      -13.596126   -0.985577   -3.284937
     91          1           0       -9.949837   -4.653806   -0.082250
     92          1           0       -9.767062   -4.427011   -1.864397
     93          1           0       -8.445607   -5.351575   -0.996748
     94          1           0       -3.840268   -3.508535   -0.317114
     95          1           0       -1.832194   -6.302033    2.071814
     96          1           0       -1.949999   -5.038691    3.329385
     97          1           0       -3.264440   -6.062543    3.066469
     98          1           0        2.804169   -2.503875   -1.497518
     99          1           0        2.595781   -0.946237   -2.115517
    100          1           0        4.275507   -1.599680    0.295889
    101          1           0        4.944093    1.773384   -1.910525
    102          1           0        5.444779    0.693459   -3.088349
    103          1           0        3.665165    0.860714   -2.477552
    104          1           0        6.316939    1.101193   -0.243866
    105          1           0        6.039785   -0.528925    0.618676
    106          1           0        7.304018   -1.546301   -1.497682
    107          1           0        7.735941   -0.005986   -1.955208
    108          1           0        8.764971    0.801428    0.272622
    109          1           0        8.649365   -1.009757    0.578049
    110          1           0       10.224422   -0.091372   -1.853957
    111          1           0        9.206481   -2.747471   -1.972639
    112          1           0       10.845691   -2.841322   -1.726779
    113          1           0        9.868344   -2.976537   -0.266675
    114          1           0       10.967475    0.686143   -0.169797
    115          1           0       11.274805   -0.725901    1.058754
    116          1           0       12.711742   -1.613591   -0.750594
    117          1           0       12.580672   -0.265759   -1.742007
    118          1           0       13.353469    1.076726    0.568156
    119          1           0       13.853301   -0.386803    1.308179
    120          1           0       15.372413    0.223106   -1.577289
    121          1           0       15.032841   -2.405783   -1.163810
    122          1           0       16.566822   -1.654709   -0.725133
    123          1           0       15.549362   -2.034534    0.642533
    124          1           0       15.986739    1.570799    0.553076
    125          1           0       16.288798    0.199600    1.511439
    126          1           0       18.058556   -0.255658   -0.263411
    127          1           0       17.705609    1.018113   -1.369582
    128          1           0       17.832593    2.696161    0.685607
    129          1           0       18.415277    1.484968    1.597046
    130          1           0       20.551476    0.969044    0.635371
    131          1           0       19.929347    3.580849   -1.157212
    132          1           0       21.157694    2.521358   -1.622093
    133          1           0       19.723642    1.752291   -2.021219
    134          1           0       20.825779    2.383766    2.363359
    135          1           0       21.864247    2.607770    1.109878
    136          1           0       20.355255    3.634684    1.362575
    137          1           0       -7.305437    1.804511    0.226413
    138          1           0       -7.396692   -0.236880   -0.111079
 ---------------------------------------------------------------------

 SCF Done:  E(RB3LYP) =  -2733.00694508     A.U. after   17 cycles

 Excitation energies and oscillator strengths:

 Excited State   1:      Singlet-A      1.9761 eV  627.40 nm  f=0.1856  <S**2>=0.000
     235 -> 237       -0.14627
     235 -> 238       -0.27022
     236 -> 237        0.61729
     236 -> 238       -0.14878
 This state for optimization and/or second-order correction.
 Total Energy, E(TD-HF/TD-DFT) =  -2732.93432295
 Copying the excited state density for this state as the 1-particle RhoCI density.

 The electronic state is 1-A.
 Alpha  occ. eigenvalues --  -19.18043 -19.17958 -19.13468 -19.12714 -19.12138
 Alpha  occ. eigenvalues --  -14.37659 -14.36513 -14.32383 -14.30396 -10.32253
 Alpha  occ. eigenvalues --  -10.31285 -10.27421 -10.24646 -10.24137 -10.23863
 Alpha  occ. eigenvalues --  -10.23804 -10.23694 -10.23559 -10.23379 -10.22831
 Alpha  occ. eigenvalues --  -10.22653 -10.22109 -10.21904 -10.21866 -10.21374
 Alpha  occ. eigenvalues --  -10.21135 -10.21076 -10.21046 -10.20734 -10.20629
 Alpha  occ. eigenvalues --  -10.20603 -10.20583 -10.20533 -10.20445 -10.20347
 Alpha  occ. eigenvalues --  -10.20341 -10.20271 -10.20236 -10.20215 -10.20119
 Alpha  occ. eigenvalues --  -10.20065 -10.20015 -10.19985 -10.19863 -10.19652
 Alpha  occ. eigenvalues --  -10.19640 -10.19576 -10.19512 -10.19501 -10.19491
 Alpha  occ. eigenvalues --  -10.19488 -10.19469 -10.19429 -10.19366 -10.18957
 Alpha  occ. eigenvalues --  -10.18756 -10.18530 -10.18218 -10.17979 -10.17932
 Alpha  occ. eigenvalues --  -10.17929 -10.17879 -10.17667 -10.16957  -1.10963
 Alpha  occ. eigenvalues --   -1.09013  -1.05760  -1.02042  -1.00930  -0.98119
 Alpha  occ. eigenvalues --   -0.96867  -0.96087  -0.93645  -0.84058  -0.83513
 Alpha  occ. eigenvalues --   -0.82764  -0.82057  -0.81783  -0.81084  -0.81016
 Alpha  occ. eigenvalues --   -0.79968  -0.79585  -0.79112  -0.79007  -0.78239
 Alpha  occ. eigenvalues --   -0.77686  -0.76756  -0.75869  -0.75442  -0.74321
 Alpha  occ. eigenvalues --   -0.73738  -0.73423  -0.72907  -0.72536  -0.70862
 Alpha  occ. eigenvalues --   -0.70106  -0.68984  -0.68605  -0.68335  -0.67895
 Alpha  occ. eigenvalues --   -0.67479  -0.67141  -0.67041  -0.66070  -0.65530
 Alpha  occ. eigenvalues --   -0.64104  -0.63601  -0.63121  -0.61896  -0.61280
 Alpha  occ. eigenvalues --   -0.60636  -0.59081  -0.58932  -0.57985  -0.57684
 Alpha  occ. eigenvalues --   -0.57082  -0.56799  -0.55992  -0.55675  -0.55632
 Alpha  occ. eigenvalues --   -0.55108  -0.54990  -0.53933  -0.53832  -0.53312
 Alpha  occ. eigenvalues --   -0.52663  -0.52078  -0.51698  -0.51393  -0.50837
 Alpha  occ. eigenvalues --   -0.50109  -0.49719  -0.49500  -0.49223  -0.49018
 Alpha  occ. eigenvalues --   -0.48242  -0.48124  -0.48071  -0.47892  -0.47703
 Alpha  occ. eigenvalues --   -0.47386  -0.47226  -0.46566  -0.46335  -0.46261
 Alpha  occ. eigenvalues --   -0.46141  -0.45841  -0.45160  -0.44853  -0.44642
 Alpha  occ. eigenvalues --   -0.44590  -0.44290  -0.44033  -0.43830  -0.43628
 Alpha  occ. eigenvalues --   -0.43464  -0.43052  -0.42791  -0.42707  -0.42299
 Alpha  occ. eigenvalues --   -0.42195  -0.41948  -0.41653  -0.41347  -0.41112
 Alpha  occ. eigenvalues --   -0.41083  -0.41033  -0.40908  -0.40684  -0.40594
 Alpha  occ. eigenvalues --   -0.40370  -0.40163  -0.39981  -0.39777  -0.39517
 Alpha  occ. eigenvalues --   -0.39347  -0.39123  -0.38844  -0.38761  -0.38420
 Alpha  occ. eigenvalues --   -0.38114  -0.37959  -0.37938  -0.37695  -0.37568
 Alpha  occ. eigenvalues --   -0.37401  -0.37088  -0.36861  -0.36768  -0.36704
 Alpha  occ. eigenvalues --   -0.36666  -0.36389  -0.36130  -0.36059  -0.35801
 Alpha  occ. eigenvalues --   -0.35579  -0.35548  -0.35393  -0.35242  -0.35178
 Alpha  occ. eigenvalues --   -0.34984  -0.34786  -0.34489  -0.34449  -0.34112
 Alpha  occ. eigenvalues --   -0.33855  -0.33630  -0.33556  -0.32821  -0.32206
 Alpha  occ. eigenvalues --   -0.31921  -0.31758  -0.31420  -0.31258  -0.30957
 Alpha  occ. eigenvalues --   -0.30930  -0.30707  -0.30216  -0.29883  -0.29753
 Alpha  occ. eigenvalues --   -0.29217  -0.28795  -0.28702  -0.28650  -0.28110
 Alpha  occ. eigenvalues --   -0.28068  -0.27863  -0.26672  -0.26246  -0.26114
 Alpha  occ. eigenvalues --   -0.25032  -0.23676  -0.23456  -0.23303  -0.20065
 Alpha  occ. eigenvalues --   -0.18603
 Alpha virt. eigenvalues --   -0.10476  -0.08107  -0.04629  -0.02254  -0.00995
 Alpha virt. eigenvalues --   -0.00634  -0.00364   0.00667   0.01909   0.03577
 Alpha virt. eigenvalues --    0.03858   0.03869   0.04472   0.04645   0.04893

 Mulliken charges:
               1
     1  C   -0.057066
     2  C   -0.079648
     3  C   -0.067737
     4  C   -0.076749
     5  N   -0.118326
     6  C   -0.077925
     7  C   -0.087686
     8  C   -0.036411
     9  C   -0.071874
    10  C    0.066835
    11  C    0.109794
    12  C    0.119453
    13  C    0.169902
    14  O   -0.228659
    15  O   -0.329075
    16  N   -0.183440
    17  C    0.180261
    18  C   -0.149951
    19  C    0.128398
    20  C    0.071588
    21  C    0.077906
    22  C   -0.038088
    23  C   -0.066974
    24  N   -0.225152
    25  C    0.030501
    26  C   -0.021046
    27  C   -0.046854
    28  C   -0.009085
    29  C   -0.040734
    30  C    0.002298
    31  C   -0.044806
    32  N   -0.037684
    33  C    0.093565
    34  C   -0.127858
    35  C   -0.031227
    36  C    0.062380
    37  C    0.080500
    38  C    0.036220
    39  O   -0.112525
    40  C    0.040300
    41  C    0.188471
    42  O   -0.205267
    43  O   -0.268055
    44  C    0.195106
    45  C    0.371439
    46  C   -0.158010
    47  C   -0.167330
    48  C    0.099060
    49  C    0.032734
    50  C    0.103638
    51  C   -0.011583
    52  C   -0.069892
    53  C   -0.005652
    54  C    0.031472
    55  C    0.099599
    56  C    0.014639
    57  C   -0.136449
    58  C    0.062481
    59  C    0.111203
    60  C   -0.088552
    61  C    0.090377
    62  C   -0.064073
    63  C   -0.005451
    64  C    0.079193
    65  H   -0.016280
    66  H   -0.014134
    67  H    0.028914
    68  H    0.071771
    69  H   -0.003260
    70  H    0.021603
    71  H    0.022871
    72  H    0.036157
    73  H    0.038519
    74  H   -0.023735
    75  H   -0.054089
    76  H    0.054715
    77  H    0.058919
    78  H   -0.002024
    79  H    0.019079
    80  H   -0.043601
    81  H    0.049242
    82  H    0.002852
    83  H    0.031541
    84  H    0.030192
    85  H    0.025413
    86  H   -0.003216
    87  H    0.023815
    88  H    0.025775
    89  H    0.017157
    90  H    0.017610
    91  H    0.027144
    92  H    0.041082
    93  H    0.052276
    94  H    0.009589
    95  H    0.026897
    96  H    0.016047
    97  H   -0.003104
    98  H    0.027056
    99  H   -0.038280
   100  H   -0.007249
   101  H   -0.012615
   102  H    0.019647
   103  H    0.010219
   104  H    0.002756
   105  H    0.006915
   106  H    0.005056
   107  H   -0.042030
   108  H    0.025037
   109  H   -0.021266
   110  H    0.000423
   111  H    0.018210
   112  H    0.012820
   113  H    0.016634
   114  H   -0.025528
   115  H   -0.000637
   116  H   -0.030391
   117  H   -0.012939
   118  H   -0.008562
   119  H   -0.004628
   120  H    0.011642
   121  H    0.032991
   122  H   -0.014231
   123  H   -0.001769
   124  H   -0.044521
   125  H   -0.003259
   126  H   -0.011871
   127  H   -0.000818
   128  H   -0.010240
   129  H   -0.058524
   130  H    0.000035
   131  H    0.021426
   132  H   -0.004025
   133  H    0.033345
   134  H   -0.009544
   135  H    0.008452
   136  H   -0.026201
   137  H    0.201175
   138  H    0.147135
 Sum of Mulliken charges =  -0.00000

 Dipole moment (field-independent basis, Debye):
    X=              2.6970    Y=              3.7382    Z=              0.4873  Tot=              4.6352
 Quadrupole moment (field-independent basis, Debye-Ang):
   XX=           -343.9706   YY=           -381.9969   ZZ=           -397.8149
   XY=            -23.2618   XZ=             19.8522   YZ=              2.3744

 Normal termination of Gaussian 16 at Mon Aug 19 08:21:11 2019.
