 Gaussian 16, Revision A.03,
 Gaussian 16:  ES64L-G16RevA.03 25-Dec-2016

 --------------------------
 # td=(NStates=1) B3LYP/SVP
 --------------------------

 --
 TD
 --
 Symbolic Z-matrix:
 Charge =  0 Multiplicity = 1

                         Standard orientation:
 ---------------------------------------------------------------------
 Center     Atomic      Atomic             Coordinates (Angstroms)
 Number     Number       Type             X           Y           Z
 ---------------------------------------------------------------------
      1          6           0       -4.950519   -1.894806    0.415991
      2          6           0       -4.789249    2.875450    1.271736
      3          6           0       -9.563711    3.236419   -0.227701
      4          6           0       -9.698400   -1.634689   -0.854865
      5          7           0       -5.222762    0.567637    0.716281
      6          6           0       -4.477152   -0.605306    0.852299
      7          6           0       -3.009866   -0.372144    1.245994
      8          6           0       -3.045225    1.140804    1.723166
      9          6           0       -4.376008    1.545538    1.234753
     10          6           0       -2.796318    1.298418    3.317052
     11          6           0       -2.056664   -0.617998    0.096219
     12          6           0       -0.530765   -0.440169    0.405344
     13          6           0        0.354339   -0.837626   -0.809857
     14          8           0        0.075006   -1.108191   -1.898318
     15          8           0        1.673287   -0.766370   -0.304584
     16          7           0       -7.074652    2.741751    0.331526
     17          6           0       -5.985685    3.390729    0.825718
     18          6           0       -6.408491    4.826707    0.814545
     19          6           0       -7.793777    4.966421    0.422858
     20          6           0       -8.241751    3.571685    0.103498
     21          6           0       -5.428656    5.906484    1.272059
     22          6           0       -8.436543    6.237041    0.272181
     23          6           0       -9.534165    6.577849   -0.559994
     24          7           0       -9.296408    0.686112   -0.412526
     25          6           0      -10.053928    1.910999   -0.419705
     26          6           0      -11.385290    1.597421   -0.772104
     27          6           0      -11.399988    0.235164   -0.973179
     28          6           0      -10.069476   -0.264908   -0.793757
     29          6           0      -12.575628    2.693318   -0.949850
     30          6           0      -12.589103   -0.589969   -1.437681
     31          6           0      -12.625804   -0.928019   -2.920496
     32          7           0       -7.352906   -1.372291   -0.214055
     33          6           0       -8.455130   -2.215977   -0.721899
     34          6           0       -7.974961   -3.496529   -0.674073
     35          6           0       -6.631509   -3.399983   -0.226416
     36          6           0       -6.352836   -2.072658   -0.009973
     37          6           0       -8.885356   -4.743880   -0.840917
     38          6           0       -5.535977   -4.297616   -0.041960
     39          8           0       -5.414184   -5.460952   -0.074204
     40          6           0       -4.307198   -3.215626    0.476976
     41          6           0       -3.843486   -3.615927    1.876657
     42          8           0       -4.080185   -3.098077    2.977257
     43          8           0       -3.050019   -4.800743    1.755352
     44          6           0       -2.539274   -5.375445    2.951768
     45          6           0        2.607441   -1.043328   -1.405023
     46          6           0        3.992357   -0.874328   -0.687849
     47          6           0        4.892422    0.146153   -1.103313
     48          6           0        4.842183    1.045368   -2.439603
     49          6           0        6.144897    0.283979   -0.249005
     50          6           0        7.485347   -0.259833   -0.968224
     51          6           0        8.785591   -0.180935   -0.122818
     52          6           0       10.072584   -0.734030   -0.943671
     53          6           0       10.000769   -2.168413   -1.329671
     54          6           0       11.206952   -0.218232   -0.034071
     55          6           0       12.617651   -0.616309   -0.558627
     56          6           0       13.844510    0.077678    0.199197
     57          6           0       15.313157   -0.165930   -0.367479
     58          6           0       15.496084   -1.740110   -0.456736
     59          6           0       16.356005    0.529744    0.597177
     60          6           0       17.735502    0.740842   -0.218283
     61          6           0       18.748788    1.464064    0.665401
     62          6           0       20.112166    1.412577    0.202631
     63          6           0       20.176189    2.345040   -1.041133
     64          6           0       21.182117    2.026691    1.342142
     65          1           0       -4.045866    3.519855    1.644064
     66          1           0      -10.182438    4.029992   -0.022341
     67          1           0      -10.487453   -2.427300   -1.092422
     68          1           0       -2.714864   -1.068080    2.031987
     69          1           0       -2.199708    1.677689    1.183821
     70          1           0       -1.969873    0.594293    3.531968
     71          1           0       -2.598326    2.394550    3.562216
     72          1           0       -3.623776    0.706591    3.665770
     73          1           0       -2.259927   -1.493086   -0.362224
     74          1           0       -2.253684    0.079691   -0.646182
     75          1           0       -0.356699    0.800550    0.666485
     76          1           0       -0.315795   -0.983575    1.128492
     77          1           0       -4.292521    5.615509    0.829478
     78          1           0       -5.799180    6.964866    0.872721
     79          1           0       -5.330142    5.960847    2.532439
     80          1           0       -8.094972    6.880350    0.979612
     81          1           0       -9.740593    5.747070   -1.367365
     82          1           0       -9.681166    7.592494   -0.592729
     83          1           0      -12.675100    3.152224   -0.088347
     84          1           0      -12.275939    3.168346   -1.730817
     85          1           0      -13.519180    2.128383   -1.136302
     86          1           0      -12.603420   -1.573198   -0.956371
     87          1           0      -13.528455   -0.013261   -1.094860
     88          1           0      -12.703836    0.068292   -3.513396
     89          1           0      -11.537662   -1.217434   -3.066808
     90          1           0      -13.461143   -1.619441   -3.124084
     91          1           0       -9.323708   -4.783300    0.129835
     92          1           0       -9.815373   -4.670378   -1.583029
     93          1           0       -8.266246   -5.741052   -0.886159
     94          1           0       -3.686308   -3.442093   -0.407804
     95          1           0       -1.744853   -6.078104    2.619406
     96          1           0       -2.253915   -4.629817    3.761559
     97          1           0       -3.356486   -6.049038    3.407263
     98          1           0        2.520301   -2.128620   -1.729622
     99          1           0        2.292653   -0.365593   -2.220795
    100          1           0        4.181266   -1.371583    0.060350
    101          1           0        4.832270    2.246809   -1.891856
    102          1           0        5.799515    0.841437   -3.132925
    103          1           0        3.969125    1.064604   -3.053552
    104          1           0        6.364768    1.445327   -0.113862
    105          1           0        6.074135   -0.312405    0.838498
    106          1           0        7.414408   -1.290499   -1.277914
    107          1           0        7.602859    0.390360   -2.033674
    108          1           0        8.853937    0.682563    0.280266
    109          1           0        8.704035   -0.818747    0.713209
    110          1           0       10.230909   -0.326310   -1.971003
    111          1           0        9.174616   -2.466395   -1.981361
    112          1           0       11.021489   -2.603113   -1.824538
    113          1           0       10.039783   -2.717845   -0.394305
    114          1           0       11.021833    0.878079    0.066915
    115          1           0       11.048132   -0.793738    0.950416
    116          1           0       12.750748   -1.735681   -0.582390
    117          1           0       12.561325   -0.368253   -1.479687
    118          1           0       13.667355    1.200995    0.292740
    119          1           0       13.868507   -0.169943    1.252922
    120          1           0       15.572749    0.305993   -1.379740
    121          1           0       14.860623   -2.434565   -0.913787
    122          1           0       16.489068   -2.122803   -0.882062
    123          1           0       15.527965   -2.297664    0.605971
    124          1           0       15.914962    1.652941    0.768680
    125          1           0       16.547704    0.199333    1.502166
    126          1           0       18.041703   -0.451260   -0.538540
    127          1           0       17.525992    1.566569   -1.137840
    128          1           0       18.415255    2.635460    0.976679
    129          1           0       18.704035    1.167380    1.852085
    130          1           0       20.412533    0.363409   -0.010800
    131          1           0       19.947608    3.536192   -0.964641
    132          1           0       21.147023    2.442852   -1.419037
    133          1           0       19.763757    1.850266   -2.081164
    134          1           0       20.980488    1.312488    2.258511
    135          1           0       22.139748    1.940226    0.916186
    136          1           0       20.900160    3.154766    1.553448
    137          1           0       -7.408073    1.780739    0.419759
    138          1           0       -7.497775   -0.435164   -0.314764
 ---------------------------------------------------------------------

 SCF Done:  E(RB3LYP) =  -2732.93722554     A.U. after   17 cycles

 Excitation energies and oscillator strengths:

 Excited State   1:      Singlet-A      1.9582 eV  633.15 nm  f=0.1245  <S**2>=0.000
     235 -> 237       -0.21991
     235 -> 238        0.24362
     236 -> 237        0.59824
     236 -> 238        0.16766
 This state for optimization and/or second-order correction.
 Total Energy, E(TD-HF/TD-DFT) =  -2732.86526287
 Copying the excited state density for this state as the 1-particle RhoCI density.

 The electronic state is 1-A.
 Alpha  occ. eigenvalues --  -19.16346 -19.16282 -19.14251 -19.13683 -19.13032
 Alpha  occ. eigenvalues --  -14.37153 -14.36543 -14.32929 -14.29521 -10.32183
 Alpha  occ. eigenvalues --  -10.31512 -10.28439 -10.24848 -10.24625 -10.24516
 Alpha  occ. eigenvalues --  -10.24204 -10.23597 -10.23593 -10.23388 -10.23215
 Alpha  occ. eigenvalues --  -10.23166 -10.22479 -10.22362 -10.21702 -10.21691
 Alpha  occ. eigenvalues --  -10.21690 -10.21594 -10.21542 -10.21405 -10.21376
 Alpha  occ. eigenvalues --  -10.21366 -10.21216 -10.20982 -10.20897 -10.20818
 Alpha  occ. eigenvalues --  -10.20664 -10.20655 -10.20540 -10.20467 -10.20430
 Alpha  occ. eigenvalues --  -10.20099 -10.19943 -10.19699 -10.19696 -10.19573
 Alpha  occ. eigenvalues --  -10.19513 -10.19027 -10.19021 -10.18913 -10.18898
 Alpha  occ. eigenvalues --  -10.18890 -10.18847 -10.18686 -10.18657 -10.18567
 Alpha  occ. eigenvalues --  -10.18564 -10.18545 -10.18310 -10.18239 -10.17806
 Alpha  occ. eigenvalues --  -10.17761 -10.17666 -10.17091 -10.16974  -1.10002
 Alpha  occ. eigenvalues --   -1.06385  -1.05808  -1.01239  -1.01163  -0.98940
 Alpha  occ. eigenvalues --   -0.96523  -0.94119  -0.93130  -0.84472  -0.82394
 Alpha  occ. eigenvalues --   -0.81625  -0.81406  -0.81172  -0.80566  -0.80323
 Alpha  occ. eigenvalues --   -0.79516  -0.79453  -0.78627  -0.78305  -0.77044
 Alpha  occ. eigenvalues --   -0.76065  -0.75575  -0.74938  -0.74467  -0.73273
 Alpha  occ. eigenvalues --   -0.72679  -0.72231  -0.71329  -0.70748  -0.70086
 Alpha  occ. eigenvalues --   -0.69488  -0.69183  -0.68029  -0.67875  -0.67359
 Alpha  occ. eigenvalues --   -0.66631  -0.66494  -0.66028  -0.65947  -0.64930
 Alpha  occ. eigenvalues --   -0.64679  -0.63833  -0.62992  -0.62076  -0.61071
 Alpha  occ. eigenvalues --   -0.60133  -0.59114  -0.58332  -0.58154  -0.57294
 Alpha  occ. eigenvalues --   -0.56964  -0.56055  -0.55532  -0.55440  -0.55179
 Alpha  occ. eigenvalues --   -0.55030  -0.54591  -0.53591  -0.53178  -0.53021
 Alpha  occ. eigenvalues --   -0.52856  -0.52143  -0.51990  -0.51240  -0.50514
 Alpha  occ. eigenvalues --   -0.50066  -0.49341  -0.48667  -0.48261  -0.48016
 Alpha  occ. eigenvalues --   -0.47967  -0.47335  -0.46989  -0.46778  -0.46424
 Alpha  occ. eigenvalues --   -0.46344  -0.46281  -0.46153  -0.45780  -0.45592
 Alpha  occ. eigenvalues --   -0.45398  -0.45294  -0.44885  -0.44608  -0.44491
 Alpha  occ. eigenvalues --   -0.44335  -0.44191  -0.43735  -0.43607  -0.43316
 Alpha  occ. eigenvalues --   -0.43119  -0.42781  -0.42540  -0.42295  -0.42095
 Alpha  occ. eigenvalues --   -0.41875  -0.41732  -0.41487  -0.41371  -0.41147
 Alpha  occ. eigenvalues --   -0.40858  -0.40648  -0.40633  -0.40469  -0.40246
 Alpha  occ. eigenvalues --   -0.40102  -0.39897  -0.39735  -0.39544  -0.39407
 Alpha  occ. eigenvalues --   -0.39271  -0.39209  -0.38732  -0.38579  -0.38475
 Alpha  occ. eigenvalues --   -0.38359  -0.37941  -0.37875  -0.37733  -0.37623
 Alpha  occ. eigenvalues --   -0.37181  -0.37093  -0.37015  -0.36907  -0.36464
 Alpha  occ. eigenvalues --   -0.36371  -0.36343  -0.36264  -0.35866  -0.35681
 Alpha  occ. eigenvalues --   -0.35482  -0.35458  -0.35084  -0.34916  -0.34684
 Alpha  occ. eigenvalues --   -0.34412  -0.34243  -0.34045  -0.33899  -0.33635
 Alpha  occ. eigenvalues --   -0.33573  -0.33309  -0.33134  -0.33051  -0.32808
 Alpha  occ. eigenvalues --   -0.32552  -0.32209  -0.31977  -0.31671  -0.31476
 Alpha  occ. eigenvalues --   -0.30942  -0.30518  -0.30297  -0.30288  -0.29651
 Alpha  occ. eigenvalues --   -0.29060  -0.28795  -0.28616  -0.28289  -0.28175
 Alpha  occ. eigenvalues --   -0.28121  -0.27800  -0.27077  -0.26585  -0.25944
 Alpha  occ. eigenvalues --   -0.24865  -0.23466  -0.23365  -0.22699  -0.20111
 Alpha  occ. eigenvalues --   -0.19186
 Alpha virt. eigenvalues --   -0.10944  -0.08519  -0.04723  -0.02906  -0.01258
 Alpha virt. eigenvalues --   -0.01015  -0.00289   0.00425   0.01878   0.03392
 Alpha virt. eigenvalues --    0.03482   0.03916   0.04072   0.04306   0.04741

 Mulliken charges:
               1
     1  C   -0.061050
     2  C   -0.060499
     3  C   -0.044934
     4  C   -0.073177
     5  N   -0.205465
     6  C   -0.004161
     7  C   -0.028606
     8  C   -0.072147
     9  C    0.013489
    10  C    0.077527
    11  C    0.129649
    12  C    0.080007
    13  C    0.168986
    14  O   -0.160541
    15  O   -0.371001
    16  N   -0.093011
    17  C    0.188295
    18  C   -0.130721
    19  C    0.031984
    20  C    0.051760
    21  C   -0.060485
    22  C   -0.066838
    23  C   -0.000689
    24  N   -0.236404
    25  C    0.069247
    26  C   -0.189381
    27  C   -0.116489
    28  C    0.046659
    29  C    0.266760
    30  C    0.036487
    31  C    0.006557
    32  N    0.089676
    33  C    0.043177
    34  C   -0.091981
    35  C   -0.057835
    36  C    0.052311
    37  C    0.050797
    38  C    0.019331
    39  O   -0.099696
    40  C   -0.089955
    41  C    0.282248
    42  O   -0.241960
    43  O   -0.348127
    44  C    0.152311
    45  C    0.246143
    46  C    0.045893
    47  C   -0.092675
    48  C   -0.029394
    49  C   -0.005062
    50  C   -0.038837
    51  C    0.164086
    52  C   -0.122109
    53  C    0.005218
    54  C   -0.001926
    55  C    0.132925
    56  C    0.032864
    57  C   -0.015825
    58  C   -0.011171
    59  C    0.037030
    60  C   -0.063249
    61  C   -0.027634
    62  C   -0.074167
    63  C   -0.018976
    64  C   -0.012320
    65  H   -0.059964
    66  H   -0.027835
    67  H    0.000763
    68  H   -0.002514
    69  H    0.010919
    70  H    0.015352
    71  H    0.048071
    72  H    0.023920
    73  H   -0.033774
    74  H   -0.025481
    75  H    0.063169
    76  H   -0.050747
    77  H    0.059762
    78  H    0.049629
    79  H    0.062205
    80  H   -0.019175
    81  H    0.061201
    82  H    0.012711
    83  H   -0.011645
    84  H   -0.019213
    85  H    0.001096
    86  H   -0.009309
    87  H    0.004515
    88  H    0.011129
    89  H    0.014555
    90  H    0.030505
    91  H    0.028025
    92  H    0.054263
    93  H    0.059858
    94  H    0.064708
    95  H    0.034043
    96  H    0.043951
    97  H    0.026550
    98  H    0.027563
    99  H    0.024960
   100  H   -0.114325
   101  H    0.037903
   102  H    0.067373
   103  H    0.020208
   104  H    0.019470
   105  H    0.031925
   106  H   -0.008021
   107  H    0.011478
   108  H   -0.073958
   109  H   -0.030714
   110  H   -0.007643
   111  H    0.030225
   112  H    0.019301
   113  H   -0.012410
   114  H    0.011986
   115  H   -0.002322
   116  H    0.005780
   117  H   -0.069229
   118  H   -0.010579
   119  H   -0.012196
   120  H    0.010715
   121  H   -0.005474
   122  H   -0.001530
   123  H   -0.000991
   124  H    0.003834
   125  H   -0.038896
   126  H    0.039187
   127  H    0.048985
   128  H    0.004517
   129  H   -0.011659
   130  H    0.006821
   131  H    0.029275
   132  H   -0.028140
   133  H    0.022707
   134  H    0.033268
   135  H    0.011319
   136  H    0.032151
   137  H    0.158055
   138  H    0.094915
 Sum of Mulliken charges =  -0.00000

 Dipole moment (field-independent basis, Debye):
    X=              1.4257    Y=              3.4174    Z=              0.2166  Tot=              3.7093
 Quadrupole moment (field-independent basis, Debye-Ang):
   XX=           -347.2924   YY=           -377.9505   ZZ=           -399.3046
   XY=            -16.9181   XZ=              2.7800   YZ=              1.9805

 Normal termination of Gaussian 16 at Thu Aug 15 11:27:32 2019.
