 Gaussian 16, Revision A.03,
 Gaussian 16:  ES64L-G16RevA.03 25-Dec-2016

 --------------------------
 # td=(NStates=1) B3LYP/SVP
 --------------------------

 --
 TD
 --
 Symbolic Z-matrix:
 Charge =  0 Multiplicity = 1

                         Standard orientation:
 ---------------------------------------------------------------------
 Center     Atomic      Atomic             Coordinates (Angstroms)
 Number     Number       Type             X           Y           Z
 ---------------------------------------------------------------------
      1          6           0       -5.077098   -1.953062    0.584023
      2          6           0       -4.757480    2.799167    1.393763
      3          6           0       -9.273496    3.452186   -0.306235
      4          6           0       -9.857634   -1.393665   -0.727971
      5          7           0       -5.200862    0.496398    0.842012
      6          6           0       -4.539505   -0.705566    1.003980
      7          6           0       -3.059945   -0.562511    1.366682
      8          6           0       -3.131448    0.909467    1.919730
      9          6           0       -4.413154    1.416788    1.315151
     10          6           0       -3.265248    0.885575    3.405259
     11          6           0       -2.067305   -0.678600    0.084990
     12          6           0       -0.622105   -0.633969    0.510741
     13          6           0        0.321578   -0.984062   -0.557191
     14          8           0       -0.030961   -1.426015   -1.712044
     15          8           0        1.583617   -0.821367   -0.211856
     16          7           0       -7.107147    2.839130    0.502163
     17          6           0       -5.895168    3.394081    0.959340
     18          6           0       -6.182794    4.858454    0.988495
     19          6           0       -7.462445    5.050047    0.456857
     20          6           0       -8.021915    3.773502    0.102146
     21          6           0       -5.221964    5.871738    1.491431
     22          6           0       -8.067370    6.306026    0.250576
     23          6           0       -8.916365    6.785218   -0.745574
     24          7           0       -9.111240    0.986028   -0.531183
     25          6           0       -9.816326    2.187114   -0.611142
     26          6           0      -11.171841    1.950584   -0.976563
     27          6           0      -11.353614    0.622179   -1.028981
     28          6           0      -10.101602    0.021629   -0.747939
     29          6           0      -12.228040    2.976001   -1.269979
     30          6           0      -12.582573   -0.279894   -1.465219
     31          6           0      -12.605884   -0.523774   -3.015984
     32          7           0       -7.507093   -1.193786    0.021009
     33          6           0       -8.566724   -1.972995   -0.464894
     34          6           0       -8.212597   -3.342160   -0.549258
     35          6           0       -6.857738   -3.379357   -0.270624
     36          6           0       -6.549338   -2.061467    0.163029
     37          6           0       -9.028593   -4.578553   -1.126465
     38          6           0       -5.775217   -4.324488   -0.015398
     39          8           0       -5.691756   -5.546507   -0.257449
     40          6           0       -4.527644   -3.450677    0.400340
     41          6           0       -3.771113   -3.941345    1.678923
     42          8           0       -4.118212   -3.642403    2.864097
     43          8           0       -3.041094   -4.956455    1.383016
     44          6           0       -2.453743   -5.704915    2.437602
     45          6           0        2.753072   -1.172922   -1.187663
     46          6           0        3.927975   -0.753969   -0.453623
     47          6           0        4.948321    0.033146   -0.973723
     48          6           0        4.951350    0.708380   -2.335875
     49          6           0        6.358901    0.024809   -0.228063
     50          6           0        7.436062   -0.670742   -0.901062
     51          6           0        8.709551   -0.609996   -0.022195
     52          6           0       10.102529   -0.889070   -0.844043
     53          6           0       10.056345   -2.374978   -1.261202
     54          6           0       11.302227   -0.501424    0.037707
     55          6           0       12.701908   -0.582646   -0.711090
     56          6           0       13.786829   -0.042447    0.265302
     57          6           0       15.163149   -0.051358   -0.561706
     58          6           0       15.600837   -1.487909   -0.974941
     59          6           0       16.203995    0.564702    0.451131
     60          6           0       17.608048    0.870193   -0.239929
     61          6           0       18.664822    1.505875    0.798665
     62          6           0       20.085712    1.848302    0.156128
     63          6           0       20.110453    2.886002   -1.093604
     64          6           0       21.018365    2.243023    1.417252
     65          1           0       -3.760454    3.354375    1.580151
     66          1           0       -9.958130    4.390594   -0.344930
     67          1           0      -10.809258   -2.116055   -0.839432
     68          1           0       -2.803723   -1.198195    2.197469
     69          1           0       -2.302284    1.384189    1.500819
     70          1           0       -2.447463    0.435683    3.945925
     71          1           0       -3.411484    1.737576    4.023551
     72          1           0       -4.108257    0.231553    3.582819
     73          1           0       -2.261376   -1.520894   -0.541613
     74          1           0       -2.254388    0.145490   -0.590752
     75          1           0       -0.137727    0.345591    0.815357
     76          1           0       -0.503738   -1.478557    1.274984
     77          1           0       -4.023971    5.477203    1.083046
     78          1           0       -5.488717    7.043727    1.213268
     79          1           0       -5.166617    5.769285    2.588352
     80          1           0       -7.707279    6.974052    0.928469
     81          1           0       -9.190428    6.103679   -1.473798
     82          1           0       -9.482580    7.694104   -0.861401
     83          1           0      -12.614732    3.653257   -0.327962
     84          1           0      -11.947703    3.761986   -2.017699
     85          1           0      -13.145781    2.529138   -1.600682
     86          1           0      -12.506538   -1.165105   -0.801814
     87          1           0      -13.523231    0.363008   -1.121938
     88          1           0      -12.535481    0.495128   -3.521474
     89          1           0      -11.963555   -1.255930   -3.455499
     90          1           0      -13.753346   -0.970342   -3.222656
     91          1           0      -10.108595   -4.774182   -0.764985
     92          1           0       -9.342634   -4.325505   -2.256904
     93          1           0       -8.579658   -5.547224   -1.088889
     94          1           0       -3.858330   -3.403817   -0.313697
     95          1           0       -1.596171   -6.212590    2.083189
     96          1           0       -1.694597   -5.148135    3.026765
     97          1           0       -3.281821   -5.911366    3.144308
     98          1           0        2.634509   -2.293751   -1.324065
     99          1           0        2.394722   -0.595740   -2.213941
    100          1           0        3.829687   -1.227786    0.407181
    101          1           0        5.274326    1.748447   -2.170370
    102          1           0        5.390645   -0.042709   -3.000913
    103          1           0        4.026441    0.866213   -2.663059
    104          1           0        6.575899    1.103781   -0.113497
    105          1           0        6.130780   -0.394697    0.871746
    106          1           0        7.165340   -1.602058   -1.017696
    107          1           0        7.687859   -0.440389   -1.991655
    108          1           0        8.783977    0.365221    0.185126
    109          1           0        8.505606   -1.129548    0.956643
    110          1           0       10.308734   -0.200215   -1.784191
    111          1           0        9.255178   -2.655240   -1.929082
    112          1           0       10.927572   -2.490731   -2.041564
    113          1           0       10.214083   -3.017685   -0.230814
    114          1           0       11.037513    0.384935    0.511572
    115          1           0       11.333309   -1.314363    0.917539
    116          1           0       12.885163   -1.591292   -1.098696
    117          1           0       12.506532    0.124769   -1.416016
    118          1           0       13.465530    0.968321    0.803969
    119          1           0       14.124798   -0.639473    1.079496
    120          1           0       15.002397    0.639072   -1.413899
    121          1           0       14.893420   -1.626530   -1.816392
    122          1           0       16.783411   -1.542805   -1.427775
    123          1           0       15.593600   -2.515396   -0.071727
    124          1           0       15.709561    1.527532    0.676237
    125          1           0       16.360171   -0.079521    1.314347
    126          1           0       18.079786   -0.175719   -0.563647
    127          1           0       17.366361    1.536359   -1.116290
    128          1           0       18.320970    2.609345    1.078008
    129          1           0       18.569458    1.120722    1.707961
    130          1           0       20.396286    0.841251   -0.091329
    131          1           0       19.710795    3.699144   -0.936178
    132          1           0       21.072551    3.119484   -1.382681
    133          1           0       19.678479    2.525518   -2.076600
    134          1           0       20.839039    1.711136    2.342982
    135          1           0       21.984063    2.220262    0.974735
    136          1           0       20.779261    3.284795    1.925629
    137          1           0       -7.320193    1.826358    0.152867
    138          1           0       -7.397943   -0.275155   -0.047062
 ---------------------------------------------------------------------

 SCF Done:  E(RB3LYP) =  -2732.98514246     A.U. after   17 cycles

 Excitation energies and oscillator strengths:

 Excited State   1:      Singlet-A      2.0955 eV  591.68 nm  f=0.1619  <S**2>=0.000
     235 -> 237       -0.18424
     235 -> 238        0.26070
     236 -> 237        0.60710
     236 -> 238        0.15078
 This state for optimization and/or second-order correction.
 Total Energy, E(TD-HF/TD-DFT) =  -2732.90813594
 Copying the excited state density for this state as the 1-particle RhoCI density.

 The electronic state is 1-A.
 Alpha  occ. eigenvalues --  -19.19318 -19.17130 -19.12095 -19.11403 -19.10353
 Alpha  occ. eigenvalues --  -14.37403 -14.36239 -14.32211 -14.29960 -10.31725
 Alpha  occ. eigenvalues --  -10.30604 -10.28225 -10.26769 -10.24852 -10.24428
 Alpha  occ. eigenvalues --  -10.23735 -10.23671 -10.22903 -10.22888 -10.22729
 Alpha  occ. eigenvalues --  -10.22488 -10.22101 -10.21948 -10.21944 -10.21679
 Alpha  occ. eigenvalues --  -10.21198 -10.21179 -10.21158 -10.21045 -10.21030
 Alpha  occ. eigenvalues --  -10.20915 -10.20844 -10.20822 -10.20477 -10.20426
 Alpha  occ. eigenvalues --  -10.20193 -10.20166 -10.19996 -10.19949 -10.19871
 Alpha  occ. eigenvalues --  -10.19702 -10.19641 -10.19568 -10.19528 -10.19467
 Alpha  occ. eigenvalues --  -10.19430 -10.19329 -10.19291 -10.19269 -10.19227
 Alpha  occ. eigenvalues --  -10.19011 -10.18884 -10.18849 -10.18457 -10.18306
 Alpha  occ. eigenvalues --  -10.18302 -10.18237 -10.17945 -10.17921 -10.17867
 Alpha  occ. eigenvalues --  -10.17817 -10.17728 -10.17631 -10.16772  -1.11656
 Alpha  occ. eigenvalues --   -1.07023  -1.00997  -1.00285  -0.97670  -0.96875
 Alpha  occ. eigenvalues --   -0.95769  -0.95280  -0.92513  -0.83438  -0.83071
 Alpha  occ. eigenvalues --   -0.81766  -0.81432  -0.81296  -0.80943  -0.80283
 Alpha  occ. eigenvalues --   -0.80003  -0.78662  -0.78287  -0.78259  -0.77867
 Alpha  occ. eigenvalues --   -0.77294  -0.76548  -0.75357  -0.74779  -0.73948
 Alpha  occ. eigenvalues --   -0.73491  -0.73395  -0.72167  -0.71071  -0.70180
 Alpha  occ. eigenvalues --   -0.69756  -0.69342  -0.69009  -0.68565  -0.67948
 Alpha  occ. eigenvalues --   -0.67377  -0.66224  -0.65968  -0.65669  -0.65182
 Alpha  occ. eigenvalues --   -0.64070  -0.63427  -0.63046  -0.62230  -0.61271
 Alpha  occ. eigenvalues --   -0.60856  -0.59649  -0.59461  -0.58155  -0.57812
 Alpha  occ. eigenvalues --   -0.57522  -0.56777  -0.56312  -0.55980  -0.55204
 Alpha  occ. eigenvalues --   -0.54911  -0.54845  -0.54089  -0.53646  -0.53318
 Alpha  occ. eigenvalues --   -0.52993  -0.52178  -0.51573  -0.50883  -0.50427
 Alpha  occ. eigenvalues --   -0.50282  -0.49821  -0.49387  -0.48742  -0.48342
 Alpha  occ. eigenvalues --   -0.48074  -0.47496  -0.47439  -0.47289  -0.46862
 Alpha  occ. eigenvalues --   -0.46807  -0.46328  -0.46263  -0.46069  -0.45473
 Alpha  occ. eigenvalues --   -0.45134  -0.45053  -0.44472  -0.44312  -0.44116
 Alpha  occ. eigenvalues --   -0.44053  -0.43890  -0.43850  -0.43589  -0.43341
 Alpha  occ. eigenvalues --   -0.43064  -0.42807  -0.42671  -0.42541  -0.42193
 Alpha  occ. eigenvalues --   -0.41939  -0.41692  -0.41554  -0.41460  -0.41000
 Alpha  occ. eigenvalues --   -0.40725  -0.40694  -0.40501  -0.40406  -0.39877
 Alpha  occ. eigenvalues --   -0.39624  -0.39550  -0.39463  -0.39325  -0.39002
 Alpha  occ. eigenvalues --   -0.38736  -0.38449  -0.38386  -0.38237  -0.38030
 Alpha  occ. eigenvalues --   -0.37931  -0.37818  -0.37661  -0.37550  -0.37332
 Alpha  occ. eigenvalues --   -0.37203  -0.37007  -0.36955  -0.36852  -0.36498
 Alpha  occ. eigenvalues --   -0.36339  -0.36196  -0.36154  -0.36011  -0.35870
 Alpha  occ. eigenvalues --   -0.35588  -0.35538  -0.35307  -0.35025  -0.34845
 Alpha  occ. eigenvalues --   -0.34720  -0.34505  -0.34338  -0.33948  -0.33805
 Alpha  occ. eigenvalues --   -0.33738  -0.33335  -0.33220  -0.32945  -0.32836
 Alpha  occ. eigenvalues --   -0.32332  -0.31995  -0.31642  -0.31555  -0.31483
 Alpha  occ. eigenvalues --   -0.31089  -0.30347  -0.30300  -0.29996  -0.29463
 Alpha  occ. eigenvalues --   -0.29113  -0.28989  -0.27770  -0.27637  -0.27283
 Alpha  occ. eigenvalues --   -0.26958  -0.26790  -0.26533  -0.26162  -0.25969
 Alpha  occ. eigenvalues --   -0.25058  -0.24964  -0.23095  -0.22563  -0.19777
 Alpha  occ. eigenvalues --   -0.18834
 Alpha virt. eigenvalues --   -0.10102  -0.07638  -0.04839  -0.02473  -0.02056
 Alpha virt. eigenvalues --   -0.01213   0.00347   0.00455   0.01949   0.03482
 Alpha virt. eigenvalues --    0.03842   0.03868   0.04243   0.04531   0.04841

 Mulliken charges:
               1
     1  C   -0.002754
     2  C   -0.113433
     3  C   -0.127759
     4  C   -0.111279
     5  N   -0.137888
     6  C   -0.063346
     7  C   -0.058755
     8  C    0.047758
     9  C   -0.113534
    10  C    0.115091
    11  C    0.107663
    12  C    0.036837
    13  C    0.160053
    14  O   -0.326300
    15  O   -0.342582
    16  N   -0.138512
    17  C    0.218663
    18  C   -0.103028
    19  C    0.079828
    20  C    0.072687
    21  C   -0.018064
    22  C   -0.064908
    23  C    0.002671
    24  N   -0.304041
    25  C    0.097916
    26  C   -0.103708
    27  C   -0.104713
    28  C    0.058720
    29  C    0.057550
    30  C    0.034111
    31  C   -0.012626
    32  N    0.112023
    33  C    0.063745
    34  C   -0.096586
    35  C   -0.034643
    36  C   -0.019720
    37  C    0.039529
    38  C    0.133069
    39  O   -0.205710
    40  C    0.088489
    41  C    0.171683
    42  O   -0.298139
    43  O   -0.226757
    44  C    0.211609
    45  C    0.184803
    46  C    0.013805
    47  C   -0.188281
    48  C    0.183401
    49  C    0.018793
    50  C    0.102465
    51  C    0.075429
    52  C   -0.135312
    53  C    0.011243
    54  C    0.007955
    55  C    0.116481
    56  C   -0.001666
    57  C   -0.094484
    58  C   -0.083088
    59  C    0.030597
    60  C   -0.004736
    61  C    0.025780
    62  C   -0.067627
    63  C    0.148894
    64  C    0.008091
    65  H    0.003692
    66  H    0.005965
    67  H    0.033196
    68  H   -0.000420
    69  H   -0.041293
    70  H   -0.003019
    71  H   -0.000906
    72  H    0.012070
    73  H    0.011267
    74  H   -0.004058
    75  H    0.047477
    76  H    0.041699
    77  H    0.051745
    78  H    0.061294
    79  H    0.042846
    80  H   -0.041091
    81  H    0.000855
    82  H    0.026569
    83  H    0.025373
    84  H    0.020148
    85  H   -0.003672
    86  H    0.016548
    87  H    0.022266
    88  H    0.035713
    89  H    0.024039
    90  H    0.021009
    91  H    0.022798
    92  H    0.038048
    93  H    0.040581
    94  H   -0.012101
    95  H    0.019267
    96  H   -0.001106
    97  H    0.061749
    98  H    0.050922
    99  H    0.067364
   100  H   -0.062418
   101  H    0.022599
   102  H    0.044379
   103  H   -0.044449
   104  H   -0.001212
   105  H    0.018615
   106  H   -0.055722
   107  H    0.002189
   108  H   -0.047817
   109  H    0.007512
   110  H    0.003344
   111  H    0.007411
   112  H    0.004793
   113  H    0.038489
   114  H   -0.023598
   115  H   -0.011638
   116  H    0.026162
   117  H   -0.036073
   118  H    0.013738
   119  H   -0.015757
   120  H   -0.001131
   121  H    0.027983
   122  H    0.044220
   123  H    0.041375
   124  H   -0.005667
   125  H   -0.002272
   126  H    0.014049
   127  H    0.009103
   128  H   -0.019236
   129  H   -0.046109
   130  H   -0.004285
   131  H   -0.062039
   132  H   -0.021019
   133  H    0.009347
   134  H    0.004852
   135  H    0.014130
   136  H    0.004035
   137  H    0.192490
   138  H    0.079338
 Sum of Mulliken charges =  -0.00000

 Dipole moment (field-independent basis, Debye):
    X=              4.9961    Y=              4.0266    Z=              0.2190  Tot=              6.4204
 Quadrupole moment (field-independent basis, Debye-Ang):
   XX=           -360.6777   YY=           -385.7398   ZZ=           -395.7876
   XY=            -20.2681   XZ=              4.8175   YZ=             -3.2044

 Normal termination of Gaussian 16 at Tue Aug 13 07:47:54 2019.
