 Gaussian 16, Revision A.03,
 Gaussian 16:  ES64L-G16RevA.03 25-Dec-2016

 --------------------------
 # td=(NStates=1) B3LYP/SVP
 --------------------------

 --
 TD
 --
 Symbolic Z-matrix:
 Charge =  0 Multiplicity = 1

                         Standard orientation:
 ---------------------------------------------------------------------
 Center     Atomic      Atomic             Coordinates (Angstroms)
 Number     Number       Type             X           Y           Z
 ---------------------------------------------------------------------
      1          6           0       -5.112077   -1.910140    0.393610
      2          6           0       -4.657657    2.772991    1.276186
      3          6           0       -9.276952    3.438346   -0.173838
      4          6           0       -9.852282   -1.413129   -0.823003
      5          7           0       -5.178787    0.486671    0.859220
      6          6           0       -4.563857   -0.733606    0.861892
      7          6           0       -3.014339   -0.518967    1.222516
      8          6           0       -2.913057    0.898558    1.808355
      9          6           0       -4.392656    1.396789    1.321283
     10          6           0       -2.946107    0.807016    3.316819
     11          6           0       -1.991650   -0.752398   -0.005500
     12          6           0       -0.523009   -0.718229    0.380059
     13          6           0        0.293381   -0.929022   -0.850774
     14          8           0        0.039423   -1.317604   -1.926880
     15          8           0        1.629364   -0.867261   -0.437720
     16          7           0       -7.101593    2.734752    0.639221
     17          6           0       -5.871700    3.434262    0.901915
     18          6           0       -6.136014    4.770255    0.945071
     19          6           0       -7.477474    4.997573    0.424029
     20          6           0       -7.926129    3.651853    0.228350
     21          6           0       -5.076131    5.790126    1.510723
     22          6           0       -8.062833    6.305982    0.280978
     23          6           0       -8.978091    6.620195   -0.608141
     24          7           0       -9.152203    0.969487   -0.425410
     25          6           0       -9.824887    2.204961   -0.423307
     26          6           0      -11.234054    1.859505   -0.870416
     27          6           0      -11.419581    0.534416   -1.032138
     28          6           0      -10.121155   -0.003208   -0.751107
     29          6           0      -12.274871    3.083391   -0.953873
     30          6           0      -12.634401   -0.201097   -1.523216
     31          6           0      -12.666538   -0.346553   -3.116408
     32          7           0       -7.542313   -1.277543   -0.224767
     33          6           0       -8.606360   -2.054334   -0.581004
     34          6           0       -8.265104   -3.439366   -0.508623
     35          6           0       -6.922977   -3.439757   -0.143380
     36          6           0       -6.477305   -2.118107   -0.076093
     37          6           0       -9.158833   -4.613206   -0.830758
     38          6           0       -5.795096   -4.381121    0.089052
     39          8           0       -5.673401   -5.583860    0.025944
     40          6           0       -4.521401   -3.371123    0.403156
     41          6           0       -3.826880   -3.842167    1.697696
     42          8           0       -4.190393   -3.381123    2.854490
     43          8           0       -2.851490   -4.701579    1.486345
     44          6           0       -2.374414   -5.346381    2.663818
     45          6           0        2.682850   -1.178552   -1.425249
     46          6           0        3.900246   -0.882440   -0.698711
     47          6           0        4.909085   -0.099462   -1.068388
     48          6           0        4.885773    0.799389   -2.361216
     49          6           0        6.263694    0.032358   -0.235938
     50          6           0        7.430773   -0.464617   -1.048872
     51          6           0        8.737951   -0.415863   -0.196393
     52          6           0       10.076914   -0.943980   -0.771249
     53          6           0       10.008010   -2.478860   -1.000638
     54          6           0       11.253003   -0.448214    0.144995
     55          6           0       12.631033   -0.522852   -0.632174
     56          6           0       13.799940   -0.024606    0.217506
     57          6           0       15.213778   -0.170769   -0.326506
     58          6           0       15.732568   -1.645968   -0.624684
     59          6           0       16.167080    0.562987    0.518720
     60          6           0       17.457655    0.896481   -0.239184
     61          6           0       18.418272    1.632864    0.631673
     62          6           0       19.984621    1.787817    0.231061
     63          6           0       20.186891    2.630606   -1.083039
     64          6           0       20.769256    2.468250    1.357821
     65          1           0       -3.937391    3.753949    1.818456
     66          1           0       -9.958320    4.106365   -0.456936
     67          1           0      -10.789384   -2.030027   -1.353554
     68          1           0       -2.690510   -1.310679    1.966986
     69          1           0       -2.096359    1.397278    1.202308
     70          1           0       -2.159010    0.330355    3.850791
     71          1           0       -3.109902    1.960976    3.858042
     72          1           0       -3.882431    0.004873    3.401888
     73          1           0       -2.205873   -1.620418   -0.481884
     74          1           0       -1.955593   -0.043481   -0.930375
     75          1           0       -0.195022    0.203842    0.788172
     76          1           0       -0.341839   -1.583637    1.210950
     77          1           0       -4.156672    5.893920    0.784953
     78          1           0       -5.651104    6.851568    1.278709
     79          1           0       -4.806539    5.734405    2.539534
     80          1           0       -7.473013    7.021723    0.791655
     81          1           0       -9.305935    5.743871   -1.410720
     82          1           0       -9.445226    7.569834   -0.795335
     83          1           0      -12.033293    3.973258   -0.038097
     84          1           0      -12.075986    3.829220   -1.835320
     85          1           0      -13.435555    2.736964   -0.731242
     86          1           0      -12.641949   -1.155048   -0.942734
     87          1           0      -13.718945    0.234807   -1.138879
     88          1           0      -12.574956    0.739475   -3.615202
     89          1           0      -11.777783   -0.915245   -3.235176
     90          1           0      -13.531365   -0.921608   -3.516287
     91          1           0      -10.282384   -4.684488   -0.490428
     92          1           0       -9.251456   -4.751487   -1.999498
     93          1           0       -8.663325   -5.679321   -0.099213
     94          1           0       -3.787197   -3.818338   -0.262389
     95          1           0       -1.703971   -6.142651    2.402045
     96          1           0       -1.589920   -4.741521    3.201706
     97          1           0       -3.235098   -5.763225    3.215664
     98          1           0        2.602147   -2.265867   -1.923339
     99          1           0        2.418705   -0.503022   -2.280763
    100          1           0        4.206161   -1.434613    0.144500
    101          1           0        5.376771    1.823360   -2.401726
    102          1           0        5.277520    0.047529   -3.168055
    103          1           0        3.850442    0.957717   -2.446248
    104          1           0        6.388083    1.075112   -0.013748
    105          1           0        6.289216   -0.871578    0.689437
    106          1           0        7.323155   -1.563029   -1.402014
    107          1           0        7.674806    0.118442   -1.800427
    108          1           0        8.790761    0.568777    0.176905
    109          1           0        8.591045   -0.943695    0.750843
    110          1           0       10.397020   -0.469883   -1.815368
    111          1           0        9.316998   -2.435891   -1.973778
    112          1           0       10.913899   -2.920326   -1.306217
    113          1           0        9.719523   -3.197553   -0.229901
    114          1           0       11.120268    0.634849    0.408770
    115          1           0       11.055650   -1.198294    0.848075
    116          1           0       12.960091   -1.590735   -0.936875
    117          1           0       12.783475    0.082868   -1.511309
    118          1           0       13.632468    0.900067    0.361150
    119          1           0       13.957277   -0.603279    1.208251
    120          1           0       15.228188    0.227280   -1.377938
    121          1           0       15.147391   -2.277981   -1.184883
    122          1           0       16.609388   -1.562560   -1.164510
    123          1           0       15.589212   -2.213687    0.255948
    124          1           0       15.515344    1.509910    0.813264
    125          1           0       16.335234   -0.012108    1.323052
    126          1           0       17.904942   -0.307512   -0.673238
    127          1           0       17.339901    1.532930   -1.294939
    128          1           0       18.122614    2.718959    0.846831
    129          1           0       18.294523    1.244309    1.771380
    130          1           0       20.531538    0.705053    0.053476
    131          1           0       19.739151    3.520375   -0.819355
    132          1           0       21.175270    2.829778   -1.280243
    133          1           0       19.844214    2.202159   -2.077947
    134          1           0       20.690175    1.688314    2.193610
    135          1           0       22.021946    2.745013    1.256077
    136          1           0       20.359542    3.452741    1.672591
    137          1           0       -7.256693    1.633176    0.639799
    138          1           0       -7.619187   -0.168041   -0.325821
 ---------------------------------------------------------------------

 SCF Done:  E(RB3LYP) =  -2732.92186035     A.U. after   18 cycles

 Excitation energies and oscillator strengths:

 Excited State   1:      Singlet-A      1.9901 eV  622.99 nm  f=0.1818  <S**2>=0.000
     235 -> 237       -0.25464
     235 -> 238       -0.23408
     236 -> 237        0.59217
     236 -> 238       -0.16114
 This state for optimization and/or second-order correction.
 Total Energy, E(TD-HF/TD-DFT) =  -2732.84872371
 Copying the excited state density for this state as the 1-particle RhoCI density.

 The electronic state is 1-A.
 Alpha  occ. eigenvalues --  -19.19942 -19.15469 -19.13461 -19.13298 -19.11249
 Alpha  occ. eigenvalues --  -14.37481 -14.37405 -14.32915 -14.31089 -10.31982
 Alpha  occ. eigenvalues --  -10.31043 -10.29092 -10.25188 -10.25185 -10.24164
 Alpha  occ. eigenvalues --  -10.23981 -10.23685 -10.23618 -10.23474 -10.23380
 Alpha  occ. eigenvalues --  -10.23258 -10.22847 -10.22439 -10.22254 -10.21970
 Alpha  occ. eigenvalues --  -10.21912 -10.21905 -10.21894 -10.21874 -10.21581
 Alpha  occ. eigenvalues --  -10.21446 -10.21380 -10.20980 -10.20889 -10.20887
 Alpha  occ. eigenvalues --  -10.20882 -10.20853 -10.20829 -10.20798 -10.20706
 Alpha  occ. eigenvalues --  -10.20553 -10.20414 -10.20344 -10.20146 -10.20033
 Alpha  occ. eigenvalues --  -10.19956 -10.19918 -10.19783 -10.19716 -10.19702
 Alpha  occ. eigenvalues --  -10.19155 -10.19071 -10.18978 -10.18515 -10.18401
 Alpha  occ. eigenvalues --  -10.18379 -10.17989 -10.17798 -10.17793 -10.17552
 Alpha  occ. eigenvalues --  -10.17514 -10.16650 -10.16501 -10.15960  -1.10727
 Alpha  occ. eigenvalues --   -1.09019  -1.03618  -1.00045  -0.99035  -0.98907
 Alpha  occ. eigenvalues --   -0.96574  -0.95408  -0.92196  -0.83864  -0.82585
 Alpha  occ. eigenvalues --   -0.82182  -0.82007  -0.81256  -0.81047  -0.80253
 Alpha  occ. eigenvalues --   -0.80088  -0.79091  -0.78852  -0.77992  -0.77697
 Alpha  occ. eigenvalues --   -0.76822  -0.76340  -0.76116  -0.74941  -0.73836
 Alpha  occ. eigenvalues --   -0.73290  -0.72552  -0.72319  -0.71610  -0.70008
 Alpha  occ. eigenvalues --   -0.69407  -0.68806  -0.68604  -0.68089  -0.67511
 Alpha  occ. eigenvalues --   -0.67170  -0.66582  -0.66303  -0.65878  -0.64870
 Alpha  occ. eigenvalues --   -0.63114  -0.62586  -0.62246  -0.61855  -0.61619
 Alpha  occ. eigenvalues --   -0.60697  -0.58454  -0.58218  -0.57571  -0.56858
 Alpha  occ. eigenvalues --   -0.56571  -0.56431  -0.55717  -0.55602  -0.54929
 Alpha  occ. eigenvalues --   -0.54682  -0.54536  -0.53770  -0.53449  -0.52626
 Alpha  occ. eigenvalues --   -0.52248  -0.51592  -0.50942  -0.50525  -0.50098
 Alpha  occ. eigenvalues --   -0.49791  -0.49251  -0.49162  -0.48736  -0.48556
 Alpha  occ. eigenvalues --   -0.48393  -0.48090  -0.47754  -0.46975  -0.46869
 Alpha  occ. eigenvalues --   -0.46847  -0.46516  -0.46276  -0.46017  -0.45732
 Alpha  occ. eigenvalues --   -0.45635  -0.45399  -0.45280  -0.44761  -0.44631
 Alpha  occ. eigenvalues --   -0.44214  -0.44071  -0.44022  -0.43758  -0.43423
 Alpha  occ. eigenvalues --   -0.43079  -0.43038  -0.42916  -0.42619  -0.42515
 Alpha  occ. eigenvalues --   -0.42234  -0.41720  -0.41484  -0.41323  -0.41040
 Alpha  occ. eigenvalues --   -0.40978  -0.40692  -0.40515  -0.40411  -0.40096
 Alpha  occ. eigenvalues --   -0.39900  -0.39565  -0.39414  -0.39248  -0.39205
 Alpha  occ. eigenvalues --   -0.38911  -0.38789  -0.38456  -0.38367  -0.38166
 Alpha  occ. eigenvalues --   -0.37813  -0.37741  -0.37687  -0.37676  -0.37540
 Alpha  occ. eigenvalues --   -0.37408  -0.37272  -0.36939  -0.36669  -0.36538
 Alpha  occ. eigenvalues --   -0.36223  -0.35922  -0.35856  -0.35393  -0.35329
 Alpha  occ. eigenvalues --   -0.35278  -0.35158  -0.34855  -0.34713  -0.34307
 Alpha  occ. eigenvalues --   -0.34066  -0.34045  -0.33716  -0.33400  -0.33395
 Alpha  occ. eigenvalues --   -0.33282  -0.32716  -0.32621  -0.32405  -0.32152
 Alpha  occ. eigenvalues --   -0.32078  -0.31890  -0.31648  -0.31524  -0.31426
 Alpha  occ. eigenvalues --   -0.31029  -0.30552  -0.30308  -0.30065  -0.29612
 Alpha  occ. eigenvalues --   -0.29388  -0.28800  -0.28624  -0.28488  -0.27819
 Alpha  occ. eigenvalues --   -0.27581  -0.27236  -0.26863  -0.26740  -0.26073
 Alpha  occ. eigenvalues --   -0.25372  -0.24963  -0.24124  -0.23426  -0.20164
 Alpha  occ. eigenvalues --   -0.19277
 Alpha virt. eigenvalues --   -0.11233  -0.07886  -0.04854  -0.01928  -0.01253
 Alpha virt. eigenvalues --   -0.00617   0.00182   0.00960   0.02128   0.02808
 Alpha virt. eigenvalues --    0.03196   0.03633   0.03792   0.04252   0.04625

 Mulliken charges:
               1
     1  C    0.109479
     2  C   -0.089713
     3  C   -0.013161
     4  C   -0.135413
     5  N   -0.113612
     6  C   -0.038032
     7  C   -0.071292
     8  C    0.003037
     9  C   -0.039640
    10  C   -0.012985
    11  C    0.065671
    12  C    0.002811
    13  C    0.167048
    14  O   -0.182715
    15  O   -0.374436
    16  N   -0.090146
    17  C    0.083075
    18  C   -0.128563
    19  C   -0.012918
    20  C    0.146863
    21  C    0.018384
    22  C    0.035419
    23  C   -0.064636
    24  N   -0.328300
    25  C    0.040370
    26  C   -0.054734
    27  C   -0.075550
    28  C    0.060450
    29  C   -0.071703
    30  C   -0.022501
    31  C    0.014635
    32  N   -0.087664
    33  C    0.078347
    34  C   -0.072618
    35  C   -0.022603
    36  C    0.045367
    37  C   -0.072552
    38  C    0.098203
    39  O   -0.153036
    40  C   -0.061911
    41  C    0.198232
    42  O   -0.318695
    43  O   -0.260013
    44  C    0.190494
    45  C    0.238516
    46  C    0.001536
    47  C   -0.194929
    48  C    0.037829
    49  C    0.045219
    50  C    0.063884
    51  C    0.057009
    52  C   -0.116458
    53  C    0.025631
    54  C    0.085008
    55  C    0.020394
    56  C    0.095143
    57  C   -0.128260
    58  C    0.110299
    59  C    0.109176
    60  C   -0.065900
    61  C   -0.007300
    62  C   -0.108874
    63  C    0.089053
    64  C   -0.052678
    65  H    0.039510
    66  H   -0.118737
    67  H    0.037676
    68  H    0.016740
    69  H    0.015640
    70  H    0.020109
    71  H    0.034050
    72  H    0.060626
    73  H   -0.025150
    74  H    0.012863
    75  H    0.019966
    76  H    0.060106
    77  H    0.054985
    78  H    0.023843
    79  H    0.052110
    80  H   -0.027275
    81  H    0.059929
    82  H    0.022324
    83  H    0.038664
    84  H    0.047121
    85  H    0.058232
    86  H    0.017033
    87  H    0.019491
    88  H    0.046279
    89  H    0.003053
    90  H    0.029373
    91  H    0.048602
    92  H    0.062736
    93  H    0.070512
    94  H    0.033963
    95  H    0.011356
    96  H    0.033528
    97  H    0.056089
    98  H    0.048582
    99  H    0.017464
   100  H   -0.038431
   101  H    0.033180
   102  H    0.050532
   103  H    0.008721
   104  H    0.004919
   105  H    0.024838
   106  H    0.013641
   107  H   -0.042426
   108  H   -0.041784
   109  H   -0.031122
   110  H   -0.005952
   111  H    0.030366
   112  H   -0.012880
   113  H    0.012814
   114  H    0.007810
   115  H   -0.014695
   116  H   -0.000848
   117  H   -0.012375
   118  H   -0.071956
   119  H   -0.011404
   120  H   -0.028572
   121  H   -0.034373
   122  H   -0.006578
   123  H   -0.022111
   124  H    0.007705
   125  H   -0.035161
   126  H    0.024696
   127  H    0.029679
   128  H    0.002172
   129  H    0.004181
   130  H    0.013613
   131  H   -0.022522
   132  H   -0.019802
   133  H    0.016494
   134  H    0.025966
   135  H    0.029625
   136  H    0.015749
   137  H    0.202313
   138  H    0.199544
 Sum of Mulliken charges =  -0.00000

 Dipole moment (field-independent basis, Debye):
    X=              1.3080    Y=              3.7878    Z=             -0.5270  Tot=              4.0418
 Quadrupole moment (field-independent basis, Debye-Ang):
   XX=           -369.3529   YY=           -374.9394   ZZ=           -401.2749
   XY=            -18.7999   XZ=             13.5575   YZ=             -2.1907

 Normal termination of Gaussian 16 at Sun Sep  1 11:55:10 2019.
