 Gaussian 16, Revision A.03,
 Gaussian 16:  ES64L-G16RevA.03 25-Dec-2016

 --------------------------
 # td=(NStates=1) B3LYP/SVP
 --------------------------

 --
 TD
 --
 Symbolic Z-matrix:
 Charge =  0 Multiplicity = 1

                         Standard orientation:
 ---------------------------------------------------------------------
 Center     Atomic      Atomic             Coordinates (Angstroms)
 Number     Number       Type             X           Y           Z
 ---------------------------------------------------------------------
      1          6           0       -5.122980   -2.052811    0.409222
      2          6           0       -4.723407    2.788010    1.344030
      3          6           0       -9.290154    3.412112   -0.149125
      4          6           0       -9.903923   -1.363315   -0.796579
      5          7           0       -5.185347    0.419663    0.786303
      6          6           0       -4.494740   -0.862704    0.797873
      7          6           0       -3.084706   -0.685646    1.255882
      8          6           0       -3.045557    0.770761    1.942700
      9          6           0       -4.288769    1.375983    1.312154
     10          6           0       -3.096434    0.672537    3.528758
     11          6           0       -2.164268   -0.793986    0.152448
     12          6           0       -0.588859   -0.743244    0.409717
     13          6           0        0.323871   -1.204950   -0.718189
     14          8           0        0.025322   -1.588723   -1.778033
     15          8           0        1.605188   -0.801534   -0.273081
     16          7           0       -6.963114    2.780260    0.322469
     17          6           0       -5.837200    3.377288    0.934287
     18          6           0       -6.056110    4.767239    0.964747
     19          6           0       -7.363601    5.027138    0.482331
     20          6           0       -7.926571    3.691403    0.195987
     21          6           0       -5.098180    5.797818    1.560437
     22          6           0       -8.100028    6.274138    0.301544
     23          6           0       -8.952080    6.739761   -0.567856
     24          7           0       -9.218047    0.901582   -0.432526
     25          6           0       -9.788332    2.176133   -0.511946
     26          6           0      -11.275553    1.936207   -0.897373
     27          6           0      -11.393661    0.594037   -1.098913
     28          6           0      -10.171207   -0.037189   -0.756010
     29          6           0      -12.142218    3.154129   -1.137167
     30          6           0      -12.689739   -0.085078   -1.654399
     31          6           0      -12.586348   -0.492489   -3.164494
     32          7           0       -7.555468   -1.222176   -0.145401
     33          6           0       -8.646981   -1.941757   -0.543026
     34          6           0       -8.258368   -3.298452   -0.591478
     35          6           0       -6.867666   -3.390580   -0.245407
     36          6           0       -6.483062   -2.087050    0.010687
     37          6           0       -9.111228   -4.419746   -0.929326
     38          6           0       -5.835524   -4.349676    0.017245
     39          8           0       -5.733648   -5.572320   -0.088345
     40          6           0       -4.514867   -3.415494    0.450309
     41          6           0       -3.995992   -3.681196    1.712398
     42          8           0       -4.473808   -3.384945    2.772253
     43          8           0       -2.965141   -4.677880    1.518711
     44          6           0       -2.551635   -5.306122    2.721329
     45          6           0        2.699090   -1.175856   -1.240359
     46          6           0        3.970304   -0.646609   -0.671621
     47          6           0        4.979759   -0.079853   -1.223207
     48          6           0        4.950189    0.337336   -2.669796
     49          6           0        6.336245    0.283012   -0.439776
     50          6           0        7.483691   -0.620761   -0.985879
     51          6           0        8.789548   -0.247934   -0.153537
     52          6           0       10.068199   -0.943507   -0.727365
     53          6           0       10.149781   -2.445738   -0.670422
     54          6           0       11.309495   -0.239476    0.131052
     55          6           0       12.633322   -0.485778   -0.543832
     56          6           0       13.789257   -0.005564    0.295119
     57          6           0       15.182873   -0.120931   -0.370511
     58          6           0       15.639916   -1.647167   -0.717719
     59          6           0       16.232988    0.574522    0.367194
     60          6           0       17.660392    0.704684   -0.205795
     61          6           0       18.611745    1.599919    0.637725
     62          6           0       20.036015    1.739656    0.217423
     63          6           0       20.135736    2.443864   -1.231020
     64          6           0       20.843583    2.537722    1.289978
     65          1           0       -4.007060    3.505858    1.968686
     66          1           0       -9.957081    4.246293    0.068556
     67          1           0      -10.593363   -1.980338   -1.018155
     68          1           0       -2.650831   -1.279533    2.110352
     69          1           0       -1.969777    1.399718    1.640869
     70          1           0       -2.129248    0.416631    3.926711
     71          1           0       -3.345116    1.688730    3.870347
     72          1           0       -3.815976    0.104174    3.843233
     73          1           0       -2.324999   -1.920624   -0.079132
     74          1           0       -2.123243   -0.078411   -0.743048
     75          1           0       -0.386988    0.232491    0.661405
     76          1           0       -0.495164   -1.548572    1.271667
     77          1           0       -3.915147    5.560165    1.234647
     78          1           0       -5.353189    6.793045    1.198598
     79          1           0       -5.025127    5.777641    2.676053
     80          1           0       -7.529417    7.136275    0.915485
     81          1           0       -9.334933    6.000804   -1.454296
     82          1           0       -9.256593    7.731092   -0.829077
     83          1           0      -12.336749    3.781508   -0.219972
     84          1           0      -11.787520    3.840535   -1.893959
     85          1           0      -13.154595    2.845615   -1.476120
     86          1           0      -12.782836   -1.080206   -1.045491
     87          1           0      -13.620421    0.452762   -1.352635
     88          1           0      -12.268426    0.507342   -3.658376
     89          1           0      -11.806675   -1.155460   -3.207032
     90          1           0      -13.627631   -0.871046   -3.439591
     91          1           0      -10.057675   -4.676642   -0.334560
     92          1           0       -9.559278   -4.219113   -1.874306
     93          1           0       -8.675325   -5.447869   -0.976012
     94          1           0       -3.696536   -3.638397   -0.291914
     95          1           0       -1.936796   -6.173028    2.472026
     96          1           0       -2.112521   -4.518818    3.310270
     97          1           0       -3.419836   -5.697019    3.350724
     98          1           0        2.845000   -2.321215   -1.280980
     99          1           0        2.688990   -0.781947   -2.430026
    100          1           0        3.930259   -0.968062    0.373525
    101          1           0        5.049003    1.387161   -2.614826
    102          1           0        5.757940   -0.171109   -3.223688
    103          1           0        3.941541    0.356533   -3.317922
    104          1           0        6.527330    1.461352   -0.657674
    105          1           0        5.954339    0.187486    0.672777
    106          1           0        7.222341   -1.662364   -1.011884
    107          1           0        7.455606   -0.442647   -2.087163
    108          1           0        8.830912    1.037969   -0.283619
    109          1           0        8.764093   -0.411557    0.977113
    110          1           0       10.267617   -0.745761   -1.752440
    111          1           0        9.288288   -2.748976   -1.427622
    112          1           0       11.040776   -2.749075   -1.258267
    113          1           0       10.012934   -2.760778    0.485274
    114          1           0       11.056290    0.916334    0.046694
    115          1           0       11.447079   -0.431359    1.295305
    116          1           0       12.693032   -1.669845   -0.858209
    117          1           0       12.512953   -0.046471   -1.527544
    118          1           0       13.864576    1.120522    0.427631
    119          1           0       13.750577   -0.488282    1.268127
    120          1           0       14.937820    0.266375   -1.476263
    121          1           0       14.770835   -2.261790   -1.216966
    122          1           0       16.511881   -1.538922   -1.173136
    123          1           0       15.729900   -2.138954    0.261140
    124          1           0       15.972924    1.582773    0.591011
    125          1           0       16.485573   -0.004541    1.304467
    126          1           0       18.204064   -0.270532   -0.133616
    127          1           0       17.483723    0.843025   -1.300543
    128          1           0       18.359643    2.827364    0.602714
    129          1           0       18.689739    1.286005    1.746316
    130          1           0       20.464943    0.648463    0.127348
    131          1           0       19.993053    3.563410   -1.179518
    132          1           0       21.208106    2.282239   -1.354170
    133          1           0       19.495502    1.946089   -1.972312
    134          1           0       20.718544    2.058316    2.277537
    135          1           0       21.930231    2.691926    0.961557
    136          1           0       20.364868    3.509200    1.445709
    137          1           0       -7.094470    1.719808    0.351776
    138          1           0       -7.538061   -0.194364   -0.214221
 ---------------------------------------------------------------------

 SCF Done:  E(RB3LYP) =  -2733.09911878     A.U. after   18 cycles

 Excitation energies and oscillator strengths:

 Excited State   1:      Singlet-A      1.9956 eV  621.30 nm  f=0.1761  <S**2>=0.000
     235 -> 237        0.17677
     235 -> 238       -0.25824
     236 -> 237        0.61803
     236 -> 238        0.13696
 This state for optimization and/or second-order correction.
 Total Energy, E(TD-HF/TD-DFT) =  -2733.02578330
 Copying the excited state density for this state as the 1-particle RhoCI density.

 The electronic state is 1-A.
 Alpha  occ. eigenvalues --  -19.17345 -19.16132 -19.13856 -19.13023 -19.12970
 Alpha  occ. eigenvalues --  -14.37497 -14.37060 -14.33959 -14.30086 -10.31657
 Alpha  occ. eigenvalues --  -10.30721 -10.28964 -10.25737 -10.24644 -10.24527
 Alpha  occ. eigenvalues --  -10.23632 -10.23487 -10.23449 -10.23224 -10.23006
 Alpha  occ. eigenvalues --  -10.22743 -10.22108 -10.21992 -10.21920 -10.21818
 Alpha  occ. eigenvalues --  -10.21627 -10.21392 -10.21275 -10.21126 -10.21060
 Alpha  occ. eigenvalues --  -10.21013 -10.20997 -10.20889 -10.20721 -10.20598
 Alpha  occ. eigenvalues --  -10.20269 -10.20214 -10.20017 -10.20013 -10.19923
 Alpha  occ. eigenvalues --  -10.19833 -10.19744 -10.19699 -10.19428 -10.19387
 Alpha  occ. eigenvalues --  -10.19371 -10.19356 -10.19325 -10.19311 -10.19212
 Alpha  occ. eigenvalues --  -10.19172 -10.19019 -10.18964 -10.18952 -10.18730
 Alpha  occ. eigenvalues --  -10.18641 -10.18608 -10.18582 -10.18259 -10.18236
 Alpha  occ. eigenvalues --  -10.18090 -10.17687 -10.17326 -10.17321  -1.08835
 Alpha  occ. eigenvalues --   -1.07448  -1.02004  -1.00889  -1.00361  -0.98684
 Alpha  occ. eigenvalues --   -0.98429  -0.92392  -0.91827  -0.85727  -0.82243
 Alpha  occ. eigenvalues --   -0.82055  -0.81854  -0.81722  -0.81070  -0.80495
 Alpha  occ. eigenvalues --   -0.80372  -0.79593  -0.79321  -0.78365  -0.76949
 Alpha  occ. eigenvalues --   -0.76614  -0.76488  -0.75992  -0.74971  -0.74225
 Alpha  occ. eigenvalues --   -0.73814  -0.73407  -0.72194  -0.71606  -0.70617
 Alpha  occ. eigenvalues --   -0.70496  -0.69257  -0.68459  -0.67596  -0.67145
 Alpha  occ. eigenvalues --   -0.67075  -0.66832  -0.66251  -0.65993  -0.64719
 Alpha  occ. eigenvalues --   -0.64394  -0.63474  -0.62828  -0.61864  -0.60681
 Alpha  occ. eigenvalues --   -0.60465  -0.59062  -0.58541  -0.58271  -0.56690
 Alpha  occ. eigenvalues --   -0.56170  -0.55791  -0.55370  -0.55128  -0.54789
 Alpha  occ. eigenvalues --   -0.54174  -0.53901  -0.53801  -0.53076  -0.53019
 Alpha  occ. eigenvalues --   -0.52451  -0.51950  -0.51323  -0.50878  -0.50467
 Alpha  occ. eigenvalues --   -0.49769  -0.49113  -0.48654  -0.48096  -0.47894
 Alpha  occ. eigenvalues --   -0.47584  -0.47490  -0.47245  -0.47102  -0.46880
 Alpha  occ. eigenvalues --   -0.46548  -0.46361  -0.46001  -0.45493  -0.45440
 Alpha  occ. eigenvalues --   -0.45371  -0.45188  -0.45090  -0.44854  -0.44731
 Alpha  occ. eigenvalues --   -0.44639  -0.44236  -0.44134  -0.44043  -0.43898
 Alpha  occ. eigenvalues --   -0.43677  -0.43606  -0.43465  -0.43120  -0.42862
 Alpha  occ. eigenvalues --   -0.42751  -0.42611  -0.42193  -0.41782  -0.41665
 Alpha  occ. eigenvalues --   -0.41470  -0.41208  -0.41180  -0.40817  -0.40746
 Alpha  occ. eigenvalues --   -0.40424  -0.40026  -0.39862  -0.39814  -0.39703
 Alpha  occ. eigenvalues --   -0.39111  -0.39019  -0.38901  -0.38726  -0.38555
 Alpha  occ. eigenvalues --   -0.38348  -0.38213  -0.38077  -0.37907  -0.37725
 Alpha  occ. eigenvalues --   -0.37684  -0.37501  -0.37283  -0.37168  -0.37031
 Alpha  occ. eigenvalues --   -0.36714  -0.36557  -0.36393  -0.36242  -0.35896
 Alpha  occ. eigenvalues --   -0.35533  -0.35390  -0.35109  -0.35066  -0.34614
 Alpha  occ. eigenvalues --   -0.34201  -0.34117  -0.33760  -0.33745  -0.33285
 Alpha  occ. eigenvalues --   -0.33179  -0.33073  -0.32743  -0.32562  -0.32324
 Alpha  occ. eigenvalues --   -0.32314  -0.31965  -0.31855  -0.31450  -0.30871
 Alpha  occ. eigenvalues --   -0.30471  -0.30289  -0.30112  -0.29883  -0.29325
 Alpha  occ. eigenvalues --   -0.29179  -0.29166  -0.28776  -0.28557  -0.28192
 Alpha  occ. eigenvalues --   -0.28167  -0.27621  -0.27213  -0.25823  -0.25664
 Alpha  occ. eigenvalues --   -0.25313  -0.25264  -0.24776  -0.23056  -0.20190
 Alpha  occ. eigenvalues --   -0.19056
 Alpha virt. eigenvalues --   -0.10833  -0.07873  -0.05364  -0.02819  -0.01786
 Alpha virt. eigenvalues --   -0.00613   0.00003   0.01442   0.01985   0.03201
 Alpha virt. eigenvalues --    0.03386   0.03735   0.04237   0.04315   0.04501

 Mulliken charges:
               1
     1  C   -0.044642
     2  C   -0.132060
     3  C   -0.097322
     4  C   -0.010334
     5  N   -0.256063
     6  C    0.017859
     7  C   -0.003333
     8  C   -0.162366
     9  C    0.026252
    10  C    0.166830
    11  C   -0.001693
    12  C    0.009120
    13  C    0.199150
    14  O   -0.157897
    15  O   -0.373765
    16  N   -0.077048
    17  C    0.169917
    18  C   -0.099394
    19  C    0.024654
    20  C    0.051300
    21  C    0.029013
    22  C   -0.033475
    23  C   -0.083447
    24  N   -0.294276
    25  C    0.095284
    26  C   -0.131336
    27  C   -0.090630
    28  C    0.140919
    29  C    0.092362
    30  C   -0.004697
    31  C    0.042228
    32  N   -0.033150
    33  C    0.079530
    34  C   -0.110069
    35  C    0.008150
    36  C    0.138199
    37  C    0.067451
    38  C    0.083942
    39  O   -0.166890
    40  C   -0.059376
    41  C    0.208337
    42  O   -0.199530
    43  O   -0.370967
    44  C    0.197603
    45  C    0.206232
    46  C   -0.107544
    47  C   -0.127627
    48  C    0.040170
    49  C    0.001704
    50  C    0.040296
    51  C   -0.004311
    52  C   -0.062717
    53  C    0.011655
    54  C   -0.045119
    55  C    0.008919
    56  C    0.068927
    57  C   -0.129692
    58  C    0.045649
    59  C    0.069593
    60  C    0.018586
    61  C   -0.032356
    62  C   -0.144707
    63  C    0.020633
    64  C    0.036410
    65  H    0.011637
    66  H   -0.000477
    67  H   -0.140834
    68  H    0.015464
    69  H    0.030287
    70  H    0.018241
    71  H   -0.001981
    72  H   -0.015877
    73  H    0.020925
    74  H    0.030941
    75  H    0.013994
    76  H    0.036874
    77  H    0.041033
    78  H    0.028965
    79  H    0.045891
    80  H    0.016192
    81  H    0.043153
    82  H    0.029697
    83  H    0.026098
    84  H    0.020794
    85  H    0.000639
    86  H    0.002458
    87  H    0.012536
    88  H    0.028432
    89  H   -0.003896
    90  H    0.036874
    91  H    0.023924
    92  H    0.006370
    93  H    0.035122
    94  H    0.075194
    95  H    0.033602
    96  H    0.006520
    97  H    0.026378
    98  H    0.040972
    99  H    0.045068
   100  H   -0.018935
   101  H    0.005312
   102  H    0.034903
   103  H    0.028063
   104  H    0.027597
   105  H    0.026730
   106  H    0.001105
   107  H   -0.004053
   108  H    0.020223
   109  H    0.025088
   110  H   -0.026957
   111  H    0.012576
   112  H    0.019962
   113  H    0.042060
   114  H    0.004680
   115  H    0.011158
   116  H    0.005857
   117  H   -0.018108
   118  H    0.000350
   119  H   -0.009634
   120  H   -0.003820
   121  H    0.022692
   122  H   -0.015640
   123  H   -0.006334
   124  H   -0.011264
   125  H   -0.005299
   126  H   -0.001982
   127  H    0.007170
   128  H    0.000037
   129  H    0.007879
   130  H   -0.001381
   131  H    0.015788
   132  H    0.006120
   133  H    0.025846
   134  H    0.007032
   135  H    0.024823
   136  H   -0.001110
   137  H    0.181779
   138  H    0.149433
 Sum of Mulliken charges =  -0.00000

 Dipole moment (field-independent basis, Debye):
    X=              1.8349    Y=              5.4547    Z=              0.4995  Tot=              5.7767
 Quadrupole moment (field-independent basis, Debye-Ang):
   XX=           -350.8047   YY=           -385.5451   ZZ=           -394.1759
   XY=            -31.8821   XZ=              9.1207   YZ=              0.7606

 Normal termination of Gaussian 16 at Wed Aug 28 09:37:25 2019.
