 Gaussian 16, Revision A.03,
 Gaussian 16:  ES64L-G16RevA.03 25-Dec-2016

 --------------------------
 # td=(NStates=1) B3LYP/SVP
 --------------------------

 --
 TD
 --
 Symbolic Z-matrix:
 Charge =  0 Multiplicity = 1

                         Standard orientation:
 ---------------------------------------------------------------------
 Center     Atomic      Atomic             Coordinates (Angstroms)
 Number     Number       Type             X           Y           Z
 ---------------------------------------------------------------------
      1          6           0       -5.052180   -1.901498    0.476293
      2          6           0       -4.683081    2.864213    1.432056
      3          6           0       -9.373851    3.329519   -0.273471
      4          6           0       -9.859966   -1.552464   -0.724116
      5          7           0       -5.156611    0.554805    0.784144
      6          6           0       -4.470281   -0.602621    0.821665
      7          6           0       -3.042196   -0.397380    1.269151
      8          6           0       -2.979409    0.950111    1.880655
      9          6           0       -4.329734    1.507457    1.285654
     10          6           0       -2.983577    0.995618    3.371705
     11          6           0       -2.036102   -0.664526    0.092276
     12          6           0       -0.540897   -0.621440    0.451132
     13          6           0        0.343675   -0.924392   -0.780283
     14          8           0        0.040996   -1.475949   -1.817989
     15          8           0        1.668211   -0.718882   -0.412383
     16          7           0       -7.056784    2.757946    0.569369
     17          6           0       -5.976034    3.475294    1.060506
     18          6           0       -6.312621    4.834457    1.103183
     19          6           0       -7.546698    5.045836    0.511576
     20          6           0       -8.093906    3.631521    0.240313
     21          6           0       -5.246190    5.787864    1.489195
     22          6           0       -8.034257    6.307432    0.250649
     23          6           0       -9.013702    6.543888   -0.734943
     24          7           0       -9.217114    0.833636   -0.410486
     25          6           0       -9.888933    2.070845   -0.509607
     26          6           0      -11.296710    1.784503   -0.972208
     27          6           0      -11.387266    0.401736   -1.169817
     28          6           0      -10.095928   -0.132609   -0.811124
     29          6           0      -12.319958    2.835817   -1.202030
     30          6           0      -12.631457   -0.355132   -1.561556
     31          6           0      -12.707721   -0.629292   -3.051493
     32          7           0       -7.487027   -1.310682   -0.144014
     33          6           0       -8.573679   -2.077434   -0.501618
     34          6           0       -8.126767   -3.479260   -0.524198
     35          6           0       -6.809416   -3.470298   -0.168784
     36          6           0       -6.391281   -2.017325    0.080353
     37          6           0       -8.905308   -4.677935   -0.798106
     38          6           0       -5.660034   -4.257977    0.033996
     39          8           0       -5.504627   -5.486543   -0.000698
     40          6           0       -4.449693   -3.297400    0.373258
     41          6           0       -3.825148   -3.817086    1.657443
     42          8           0       -3.959945   -3.402634    2.842363
     43          8           0       -2.905431   -4.811934    1.454119
     44          6           0       -2.351997   -5.586603    2.435449
     45          6           0        2.666868   -0.875037   -1.378197
     46          6           0        3.965735   -0.559314   -0.667772
     47          6           0        4.931637    0.154119   -1.203238
     48          6           0        4.878368    0.899645   -2.474478
     49          6           0        6.198570    0.334274   -0.408896
     50          6           0        7.419611   -0.426812   -0.965897
     51          6           0        8.669598   -0.281344   -0.204367
     52          6           0       10.001294   -0.848990   -0.667728
     53          6           0        9.874121   -2.290024   -0.897837
     54          6           0       11.210434   -0.464314    0.189909
     55          6           0       12.644125   -0.735403   -0.518209
     56          6           0       13.781167   -0.091687    0.346243
     57          6           0       15.190279   -0.249396   -0.285084
     58          6           0       15.626992   -1.703462   -0.407867
     59          6           0       16.200787    0.570221    0.593098
     60          6           0       17.556419    0.744412   -0.055641
     61          6           0       18.561994    1.723135    0.653786
     62          6           0       20.038314    1.602511    0.132691
     63          6           0       20.140248    2.052671   -1.380851
     64          6           0       20.841084    2.615084    0.983481
     65          1           0       -3.846219    3.612640    1.836152
     66          1           0      -10.145147    4.057480   -0.522497
     67          1           0      -10.780400   -2.260657   -0.828334
     68          1           0       -2.815750   -1.207355    2.035886
     69          1           0       -2.210225    1.521397    1.634267
     70          1           0       -2.076785    0.520536    3.609167
     71          1           0       -3.079075    2.146889    3.688982
     72          1           0       -3.964186    0.319831    3.755320
     73          1           0       -2.135951   -1.645997   -0.464980
     74          1           0       -2.098775    0.184329   -0.719047
     75          1           0       -0.336926    0.314367    0.727018
     76          1           0       -0.163919   -1.094836    1.371127
     77          1           0       -4.525523    5.985776    0.565854
     78          1           0       -5.729430    6.749357    1.878686
     79          1           0       -4.673559    5.755320    2.453803
     80          1           0       -7.609428    7.094889    0.688376
     81          1           0       -9.375604    5.941025   -1.536064
     82          1           0       -9.278417    7.593602   -0.862486
     83          1           0      -12.527048    3.230380   -0.203004
     84          1           0      -11.930229    3.614434   -1.743608
     85          1           0      -13.215001    2.387375   -1.666057
     86          1           0      -12.465788   -1.305785   -0.989267
     87          1           0      -13.558590    0.139415   -1.191881
     88          1           0      -13.306133    0.372811   -3.598076
     89          1           0      -11.696914   -0.897816   -3.366178
     90          1           0      -13.459068   -1.544286   -3.249457
     91          1           0       -9.989725   -4.483423   -0.361584
     92          1           0       -9.005711   -4.948452   -2.034648
     93          1           0       -8.591729   -5.702766   -0.161685
     94          1           0       -3.915022   -3.385223   -0.486464
     95          1           0       -1.806614   -6.457521    1.866110
     96          1           0       -1.755776   -4.788035    2.975788
     97          1           0       -3.016659   -6.070825    3.321306
     98          1           0        2.713346   -2.074016   -1.572967
     99          1           0        2.442357   -0.279426   -2.221674
    100          1           0        4.319623   -1.333298    0.065352
    101          1           0        5.212819    1.970876   -2.337803
    102          1           0        5.612102    0.336373   -3.258523
    103          1           0        3.847620    0.810813   -2.786594
    104          1           0        6.412505    1.345355   -0.350280
    105          1           0        6.155147    0.024349    0.586049
    106          1           0        7.129849   -1.605680   -1.122907
    107          1           0        7.590599   -0.223691   -1.941926
    108          1           0        8.672089    0.867943   -0.046470
    109          1           0        8.578571   -0.721425    0.909931
    110          1           0       10.249363   -0.439707   -1.733350
    111          1           0        9.039371   -2.363781   -1.497854
    112          1           0       10.731034   -2.886807   -1.308222
    113          1           0        9.523319   -2.716181    0.060050
    114          1           0       10.929983    0.481654    0.611410
    115          1           0       11.057607   -0.942416    1.106157
    116          1           0       12.825789   -1.731451   -0.758195
    117          1           0       12.887711   -0.212024   -1.550271
    118          1           0       13.458176    1.090038    0.421466
    119          1           0       13.799218   -0.651471    1.289996
    120          1           0       15.170387    0.476827   -1.303068
    121          1           0       14.869389   -2.259372   -1.059395
    122          1           0       16.520925   -1.731023   -0.918971
    123          1           0       15.685655   -2.069094    0.456239
    124          1           0       15.757154    1.671970    0.574464
    125          1           0       16.257633    0.343223    1.856959
    126          1           0       18.024891   -0.288207   -0.167059
    127          1           0       17.421210    1.065164   -1.189434
    128          1           0       18.072581    2.823485    0.731156
    129          1           0       18.454993    1.117879    1.812935
    130          1           0       20.316525    0.711992    0.062383
    131          1           0       19.420510    3.005674   -1.403232
    132          1           0       21.127640    2.227638   -1.620496
    133          1           0       19.969198    1.190182   -2.221296
    134          1           0       20.400158    2.544810    2.049881
    135          1           0       21.891492    2.548533    0.681164
    136          1           0       20.384191    3.625528    0.614683
    137          1           0       -7.091162    1.605911    0.786109
    138          1           0       -7.519147   -0.230786   -0.343119
 ---------------------------------------------------------------------

 SCF Done:  E(RB3LYP) =  -2733.02080922     A.U. after   16 cycles

 Excitation energies and oscillator strengths:

 Excited State   1:      Singlet-A      1.9425 eV  638.29 nm  f=0.2032  <S**2>=0.000
     235 -> 238        0.28365
     236 -> 237        0.63703
 This state for optimization and/or second-order correction.
 Total Energy, E(TD-HF/TD-DFT) =  -2732.94942541
 Copying the excited state density for this state as the 1-particle RhoCI density.

 The electronic state is 1-A.
 Alpha  occ. eigenvalues --  -19.16861 -19.16823 -19.13452 -19.12118 -19.12017
 Alpha  occ. eigenvalues --  -14.38106 -14.37853 -14.33249 -14.30157 -10.32397
 Alpha  occ. eigenvalues --  -10.32141 -10.27758 -10.25433 -10.24951 -10.24915
 Alpha  occ. eigenvalues --  -10.24421 -10.24274 -10.24216 -10.23768 -10.23233
 Alpha  occ. eigenvalues --  -10.22889 -10.22255 -10.21732 -10.21706 -10.21600
 Alpha  occ. eigenvalues --  -10.21333 -10.21255 -10.21091 -10.21072 -10.20957
 Alpha  occ. eigenvalues --  -10.20888 -10.20743 -10.20716 -10.20519 -10.20469
 Alpha  occ. eigenvalues --  -10.20417 -10.20330 -10.20303 -10.20146 -10.20019
 Alpha  occ. eigenvalues --  -10.19876 -10.19857 -10.19761 -10.19536 -10.19509
 Alpha  occ. eigenvalues --  -10.19369 -10.19366 -10.19203 -10.19138 -10.19103
 Alpha  occ. eigenvalues --  -10.19085 -10.19046 -10.18939 -10.18755 -10.18662
 Alpha  occ. eigenvalues --  -10.18588 -10.18438 -10.18196 -10.18106 -10.17978
 Alpha  occ. eigenvalues --  -10.17723 -10.17652 -10.16563 -10.16510  -1.08813
 Alpha  occ. eigenvalues --   -1.08617  -1.01453  -1.00999  -0.99050  -0.98223
 Alpha  occ. eigenvalues --   -0.96773  -0.95300  -0.91919  -0.84937  -0.83608
 Alpha  occ. eigenvalues --   -0.82474  -0.82117  -0.81860  -0.81333  -0.80984
 Alpha  occ. eigenvalues --   -0.80267  -0.79718  -0.79257  -0.79107  -0.78268
 Alpha  occ. eigenvalues --   -0.77002  -0.76214  -0.76004  -0.74732  -0.74577
 Alpha  occ. eigenvalues --   -0.73465  -0.73120  -0.72312  -0.71880  -0.70242
 Alpha  occ. eigenvalues --   -0.69610  -0.69244  -0.68523  -0.68262  -0.68187
 Alpha  occ. eigenvalues --   -0.67548  -0.66427  -0.66118  -0.65849  -0.65485
 Alpha  occ. eigenvalues --   -0.64089  -0.63016  -0.62341  -0.61923  -0.61267
 Alpha  occ. eigenvalues --   -0.60231  -0.59271  -0.58260  -0.57834  -0.57408
 Alpha  occ. eigenvalues --   -0.57249  -0.56043  -0.55585  -0.55358  -0.55078
 Alpha  occ. eigenvalues --   -0.54779  -0.54728  -0.53878  -0.53313  -0.53143
 Alpha  occ. eigenvalues --   -0.52571  -0.52200  -0.51967  -0.51557  -0.51156
 Alpha  occ. eigenvalues --   -0.49862  -0.49525  -0.49194  -0.48178  -0.48015
 Alpha  occ. eigenvalues --   -0.47855  -0.47593  -0.47483  -0.47218  -0.47074
 Alpha  occ. eigenvalues --   -0.46883  -0.46552  -0.46153  -0.45683  -0.45525
 Alpha  occ. eigenvalues --   -0.45478  -0.45334  -0.45159  -0.44977  -0.44868
 Alpha  occ. eigenvalues --   -0.44564  -0.44336  -0.44066  -0.43980  -0.43641
 Alpha  occ. eigenvalues --   -0.43433  -0.43288  -0.43096  -0.42975  -0.42728
 Alpha  occ. eigenvalues --   -0.42645  -0.42090  -0.41895  -0.41717  -0.41538
 Alpha  occ. eigenvalues --   -0.41370  -0.41206  -0.40918  -0.40901  -0.40471
 Alpha  occ. eigenvalues --   -0.40234  -0.39762  -0.39636  -0.39628  -0.39194
 Alpha  occ. eigenvalues --   -0.39020  -0.38833  -0.38569  -0.38445  -0.38239
 Alpha  occ. eigenvalues --   -0.38192  -0.38131  -0.37942  -0.37673  -0.37479
 Alpha  occ. eigenvalues --   -0.37373  -0.37071  -0.36899  -0.36669  -0.36630
 Alpha  occ. eigenvalues --   -0.36358  -0.36182  -0.36059  -0.35942  -0.35720
 Alpha  occ. eigenvalues --   -0.35515  -0.35162  -0.34984  -0.34802  -0.34592
 Alpha  occ. eigenvalues --   -0.34381  -0.34209  -0.34143  -0.33704  -0.33563
 Alpha  occ. eigenvalues --   -0.33477  -0.33109  -0.32948  -0.32626  -0.32163
 Alpha  occ. eigenvalues --   -0.32157  -0.31921  -0.31758  -0.31529  -0.31427
 Alpha  occ. eigenvalues --   -0.30897  -0.30546  -0.30042  -0.30022  -0.29838
 Alpha  occ. eigenvalues --   -0.29354  -0.28723  -0.28556  -0.28503  -0.28136
 Alpha  occ. eigenvalues --   -0.28026  -0.27161  -0.27068  -0.26720  -0.25950
 Alpha  occ. eigenvalues --   -0.25005  -0.24973  -0.23214  -0.22093  -0.20083
 Alpha  occ. eigenvalues --   -0.18849
 Alpha virt. eigenvalues --   -0.10718  -0.08329  -0.05149  -0.02823  -0.01442
 Alpha virt. eigenvalues --   -0.01002   0.00109   0.00523   0.01827   0.03436
 Alpha virt. eigenvalues --    0.03574   0.03746   0.03901   0.04247   0.04436

 Mulliken charges:
               1
     1  C   -0.030001
     2  C   -0.087537
     3  C   -0.068634
     4  C   -0.120075
     5  N   -0.168890
     6  C   -0.026908
     7  C   -0.020390
     8  C    0.047371
     9  C   -0.000728
    10  C    0.031679
    11  C   -0.013609
    12  C    0.097354
    13  C    0.181599
    14  O   -0.221143
    15  O   -0.330149
    16  N   -0.144021
    17  C    0.066230
    18  C   -0.109037
    19  C    0.077831
    20  C    0.148570
    21  C    0.017639
    22  C   -0.029772
    23  C   -0.030244
    24  N   -0.278137
    25  C    0.034380
    26  C   -0.176215
    27  C   -0.113145
    28  C    0.061757
    29  C    0.173878
    30  C    0.055393
    31  C   -0.039452
    32  N   -0.034837
    33  C    0.081142
    34  C   -0.091750
    35  C    0.068658
    36  C    0.025729
    37  C   -0.069372
    38  C   -0.012318
    39  O   -0.194291
    40  C    0.070183
    41  C    0.240060
    42  O   -0.270623
    43  O   -0.278806
    44  C    0.113556
    45  C    0.245438
    46  C   -0.067852
    47  C   -0.188644
    48  C    0.083216
    49  C    0.171898
    50  C    0.016391
    51  C   -0.042882
    52  C   -0.096610
    53  C    0.099429
    54  C    0.141585
    55  C    0.043829
    56  C   -0.007935
    57  C   -0.149438
    58  C    0.182321
    59  C   -0.043064
    60  C   -0.005024
    61  C   -0.084254
    62  C    0.016502
    63  C   -0.028742
    64  C    0.052133
    65  H    0.018754
    66  H   -0.032313
    67  H    0.024904
    68  H    0.022736
    69  H   -0.062283
    70  H    0.008818
    71  H    0.034910
    72  H    0.052609
    73  H    0.043030
    74  H    0.018019
    75  H   -0.036276
    76  H    0.029683
    77  H    0.060076
    78  H    0.009200
    79  H    0.028697
    80  H   -0.057481
    81  H    0.029335
    82  H    0.014748
    83  H    0.017652
    84  H    0.000529
    85  H    0.011783
    86  H    0.001474
    87  H    0.010797
    88  H    0.036256
    89  H    0.029547
    90  H    0.025158
    91  H    0.038381
    92  H    0.075521
    93  H    0.077693
    94  H    0.025283
    95  H    0.058952
    96  H    0.026103
    97  H    0.045247
    98  H    0.031663
    99  H    0.005457
   100  H    0.009324
   101  H    0.030492
   102  H    0.052057
   103  H   -0.005624
   104  H   -0.030424
   105  H   -0.033256
   106  H    0.000718
   107  H   -0.041796
   108  H    0.000773
   109  H   -0.000362
   110  H   -0.014967
   111  H   -0.030681
   112  H    0.020414
   113  H   -0.022362
   114  H   -0.041781
   115  H   -0.051000
   116  H   -0.016769
   117  H   -0.000561
   118  H    0.024913
   119  H   -0.005524
   120  H    0.011956
   121  H    0.010862
   122  H   -0.009799
   123  H   -0.048473
   124  H   -0.003078
   125  H    0.018066
   126  H   -0.001180
   127  H    0.006547
   128  H    0.032463
   129  H    0.014539
   130  H   -0.079587
   131  H    0.033238
   132  H   -0.011868
   133  H    0.019877
   134  H    0.027110
   135  H    0.018325
   136  H    0.002639
   137  H    0.229119
   138  H    0.189773
 Sum of Mulliken charges =  -0.00000

 Dipole moment (field-independent basis, Debye):
    X=              1.9182    Y=              4.5450    Z=             -0.4632  Tot=              4.9549
 Quadrupole moment (field-independent basis, Debye-Ang):
   XX=           -341.5775   YY=           -384.9435   ZZ=           -402.6743
   XY=            -27.0903   XZ=              2.9089   YZ=              1.6446

 Normal termination of Gaussian 16 at Sat Aug 24 08:30:31 2019.
