 Gaussian 16, Revision A.03,
 Gaussian 16:  ES64L-G16RevA.03 25-Dec-2016

 --------------------------
 # td=(NStates=1) B3LYP/SVP
 --------------------------

 --
 TD
 --
 Symbolic Z-matrix:
 Charge =  0 Multiplicity = 1

                         Standard orientation:
 ---------------------------------------------------------------------
 Center     Atomic      Atomic             Coordinates (Angstroms)
 Number     Number       Type             X           Y           Z
 ---------------------------------------------------------------------
      1          6           0       -5.112830   -1.886326    0.538543
      2          6           0       -4.836714    2.775873    1.571939
      3          6           0       -9.459840    3.237050   -0.332443
      4          6           0       -9.856864   -1.498683   -0.900610
      5          7           0       -5.220812    0.484222    0.878294
      6          6           0       -4.503633   -0.604092    0.821550
      7          6           0       -3.022183   -0.502773    1.161669
      8          6           0       -3.171793    0.963265    1.881521
      9          6           0       -4.447242    1.462141    1.461830
     10          6           0       -3.098691    0.936022    3.367526
     11          6           0       -2.081290   -0.661759    0.046030
     12          6           0       -0.561980   -0.724110    0.557438
     13          6           0        0.413341   -1.011243   -0.574522
     14          8           0        0.196008   -1.645618   -1.516471
     15          8           0        1.735086   -0.675360   -0.133973
     16          7           0       -7.127927    2.769480    0.556335
     17          6           0       -6.045211    3.400175    1.022216
     18          6           0       -6.365367    4.771116    1.049371
     19          6           0       -7.636730    4.957781    0.476503
     20          6           0       -8.202845    3.546588    0.183882
     21          6           0       -5.369207    5.762944    1.607680
     22          6           0       -8.343543    6.262971    0.169127
     23          6           0       -9.315161    6.539750   -0.707602
     24          7           0       -9.264885    0.742710   -0.433074
     25          6           0       -9.912630    2.009414   -0.597620
     26          6           0      -11.276790    1.704754   -1.049476
     27          6           0      -11.462120    0.407169   -1.231093
     28          6           0      -10.178508   -0.166947   -0.807091
     29          6           0      -12.539504    2.708360   -1.091676
     30          6           0      -12.586999   -0.415657   -1.639139
     31          6           0      -12.678959   -0.592102   -3.224676
     32          7           0       -7.505092   -1.256384   -0.261153
     33          6           0       -8.649983   -2.063857   -0.558428
     34          6           0       -8.153881   -3.431174   -0.585505
     35          6           0       -6.774404   -3.364740   -0.318940
     36          6           0       -6.387638   -2.037926    0.018531
     37          6           0       -8.928398   -4.715815   -0.967310
     38          6           0       -5.721124   -4.252937    0.082478
     39          8           0       -5.510613   -5.451528    0.099297
     40          6           0       -4.488221   -3.156870    0.484301
     41          6           0       -3.832540   -3.681913    1.786956
     42          8           0       -4.027578   -3.342763    2.858579
     43          8           0       -2.889583   -4.655247    1.500819
     44          6           0       -2.148068   -5.353069    2.566360
     45          6           0        2.718341   -1.142940   -1.032496
     46          6           0        3.993813   -0.580151   -0.604300
     47          6           0        4.980539    0.172764   -1.231989
     48          6           0        4.818299    0.577475   -2.662030
     49          6           0        6.250756    0.469997   -0.464874
     50          6           0        7.550347   -0.267404   -1.069303
     51          6           0        8.832494   -0.036217   -0.256142
     52          6           0       10.199543   -0.714106   -0.864000
     53          6           0       10.152784   -2.235676   -0.905119
     54          6           0       11.292930   -0.098418    0.015957
     55          6           0       12.670628   -0.476441   -0.550309
     56          6           0       13.823307    0.049481    0.338131
     57          6           0       15.311099   -0.220363   -0.179697
     58          6           0       15.581026   -1.767090   -0.176205
     59          6           0       16.262353    0.681205    0.468316
     60          6           0       17.726872    0.515310   -0.043868
     61          6           0       18.706656    1.541536    0.577757
     62          6           0       20.056232    1.619157    0.018357
     63          6           0       20.217687    1.913840   -1.437718
     64          6           0       20.922055    2.678905    0.975601
     65          1           0       -4.290448    3.611394    1.901814
     66          1           0      -10.087025    4.124051   -0.597246
     67          1           0      -10.647242   -2.147576   -1.334760
     68          1           0       -2.822825   -1.138147    2.022237
     69          1           0       -2.406278    1.685141    1.617076
     70          1           0       -2.117026    0.319552    3.696550
     71          1           0       -3.072186    1.936612    3.987425
     72          1           0       -4.003629    0.544059    3.725737
     73          1           0       -2.268383   -1.639575   -0.531962
     74          1           0       -2.365178    0.166689   -0.487571
     75          1           0       -0.399877    0.377614    1.039949
     76          1           0       -0.492389   -1.585825    1.220685
     77          1           0       -4.334617    5.717231    0.887096
     78          1           0       -5.726970    6.775666    1.410521
     79          1           0       -4.935968    5.527482    2.677846
     80          1           0       -8.128543    6.979628    0.948521
     81          1           0       -9.821660    5.827521   -1.458005
     82          1           0       -9.845168    7.368704   -0.718268
     83          1           0      -12.458867    3.164900   -0.234626
     84          1           0      -12.352494    3.431545   -1.940546
     85          1           0      -13.551036    2.211974   -0.959179
     86          1           0      -12.541096   -1.480727   -1.270394
     87          1           0      -13.547440    0.204977   -1.245442
     88          1           0      -12.861911    0.359208   -3.732532
     89          1           0      -11.907955   -1.270092   -3.667278
     90          1           0      -13.693236   -1.003286   -3.449536
     91          1           0       -9.957219   -4.535215   -0.434623
     92          1           0       -9.037294   -4.764789   -2.081042
     93          1           0       -8.509441   -5.642184   -0.503584
     94          1           0       -3.486994   -3.313485   -0.353287
     95          1           0       -1.347305   -5.794687    2.008171
     96          1           0       -1.845498   -4.616615    3.365185
     97          1           0       -2.807574   -6.014012    3.105874
     98          1           0        2.684486   -2.246832   -1.002799
     99          1           0        2.486735   -0.857101   -2.083097
    100          1           0        4.316850   -0.773927    0.464266
    101          1           0        5.317135    1.518906   -2.959604
    102          1           0        5.306566   -0.230829   -3.285205
    103          1           0        3.788293    0.612964   -2.999224
    104          1           0        6.585430    1.425587   -0.597751
    105          1           0        6.265993    0.106496    0.517319
    106          1           0        7.164899   -1.286755   -1.283215
    107          1           0        7.567211    0.107828   -2.150151
    108          1           0        9.001786    1.101715   -0.323313
    109          1           0        8.798898   -0.373080    0.786615
    110          1           0       10.514538   -0.317432   -1.903339
    111          1           0        9.038961   -2.376677   -1.436558
    112          1           0       11.036297   -2.634658   -1.412584
    113          1           0       10.217701   -2.487268    0.177750
    114          1           0       11.237472    0.974483   -0.063594
    115          1           0       11.376498   -0.659647    1.139348
    116          1           0       12.688519   -1.598391   -0.532075
    117          1           0       12.973313   -0.019477   -1.574231
    118          1           0       13.551826    1.105777    0.414237
    119          1           0       13.913399   -0.303527    1.265570
    120          1           0       15.367101    0.071676   -1.307688
    121          1           0       14.845608   -2.437261   -0.632053
    122          1           0       16.469715   -1.823694   -0.815147
    123          1           0       15.688350   -1.892237    1.002110
    124          1           0       15.882908    1.598725    0.245628
    125          1           0       16.251474    0.440737    1.693106
    126          1           0       18.076626   -0.490398    0.136901
    127          1           0       17.712578    0.615145   -1.039613
    128          1           0       18.307459    2.538405    0.431073
    129          1           0       18.914339    1.428702    1.666861
    130          1           0       20.637020    0.577100    0.271686
    131          1           0       19.799400    2.953105   -1.781919
    132          1           0       21.305889    1.819819   -1.746456
    133          1           0       19.691259    1.326437   -2.230708
    134          1           0       20.883177    2.348737    1.940275
    135          1           0       21.988753    2.541284    0.649346
    136          1           0       20.630922    3.695014    0.782521
    137          1           0       -7.096203    1.760144    0.335331
    138          1           0       -7.695230   -0.288833   -0.135591
 ---------------------------------------------------------------------

 SCF Done:  E(RB3LYP) =  -2733.14318501     A.U. after   16 cycles

 Excitation energies and oscillator strengths:

 Excited State   1:      Singlet-A      2.0230 eV  612.87 nm  f=0.2004  <S**2>=0.000
     235 -> 237        0.10553
     235 -> 238        0.28552
     236 -> 237        0.63423
 This state for optimization and/or second-order correction.
 Total Energy, E(TD-HF/TD-DFT) =  -2733.06884038
 Copying the excited state density for this state as the 1-particle RhoCI density.

 The electronic state is 1-A.
 Alpha  occ. eigenvalues --  -19.16270 -19.14873 -19.14230 -19.12604 -19.11879
 Alpha  occ. eigenvalues --  -14.37610 -14.35945 -14.32641 -14.30424 -10.31678
 Alpha  occ. eigenvalues --  -10.30055 -10.28102 -10.24251 -10.23891 -10.23802
 Alpha  occ. eigenvalues --  -10.23798 -10.23647 -10.23516 -10.23481 -10.22722
 Alpha  occ. eigenvalues --  -10.22490 -10.22154 -10.22110 -10.21558 -10.21546
 Alpha  occ. eigenvalues --  -10.21477 -10.21197 -10.21173 -10.20968 -10.20936
 Alpha  occ. eigenvalues --  -10.20548 -10.20315 -10.20307 -10.20251 -10.19913
 Alpha  occ. eigenvalues --  -10.19851 -10.19821 -10.19790 -10.19767 -10.19742
 Alpha  occ. eigenvalues --  -10.19730 -10.19718 -10.19597 -10.19431 -10.19222
 Alpha  occ. eigenvalues --  -10.19163 -10.19159 -10.19130 -10.19124 -10.19104
 Alpha  occ. eigenvalues --  -10.19005 -10.18837 -10.18805 -10.18747 -10.18564
 Alpha  occ. eigenvalues --  -10.18470 -10.18238 -10.18172 -10.17867 -10.17609
 Alpha  occ. eigenvalues --  -10.17506 -10.17346 -10.17011 -10.16568  -1.10200
 Alpha  occ. eigenvalues --   -1.09240  -1.02363  -1.02029  -0.99638  -0.98681
 Alpha  occ. eigenvalues --   -0.96882  -0.95949  -0.93215  -0.85289  -0.82064
 Alpha  occ. eigenvalues --   -0.81828  -0.81667  -0.81521  -0.80809  -0.80642
 Alpha  occ. eigenvalues --   -0.80412  -0.79730  -0.79574  -0.79433  -0.77928
 Alpha  occ. eigenvalues --   -0.76586  -0.76095  -0.75555  -0.74634  -0.74117
 Alpha  occ. eigenvalues --   -0.73238  -0.72463  -0.72051  -0.71484  -0.70340
 Alpha  occ. eigenvalues --   -0.69860  -0.69215  -0.68478  -0.67902  -0.67733
 Alpha  occ. eigenvalues --   -0.67696  -0.67230  -0.66545  -0.66481  -0.64816
 Alpha  occ. eigenvalues --   -0.64407  -0.63192  -0.62718  -0.62487  -0.61874
 Alpha  occ. eigenvalues --   -0.61668  -0.59165  -0.58823  -0.58517  -0.58067
 Alpha  occ. eigenvalues --   -0.56552  -0.55854  -0.55383  -0.54970  -0.54394
 Alpha  occ. eigenvalues --   -0.54237  -0.53869  -0.53563  -0.53222  -0.52756
 Alpha  occ. eigenvalues --   -0.52504  -0.52214  -0.51251  -0.50763  -0.49997
 Alpha  occ. eigenvalues --   -0.49838  -0.49288  -0.49022  -0.48671  -0.48403
 Alpha  occ. eigenvalues --   -0.48160  -0.47892  -0.47771  -0.47389  -0.47319
 Alpha  occ. eigenvalues --   -0.46867  -0.46636  -0.46183  -0.45985  -0.45674
 Alpha  occ. eigenvalues --   -0.45269  -0.45069  -0.44970  -0.44611  -0.44557
 Alpha  occ. eigenvalues --   -0.44467  -0.44175  -0.43957  -0.43671  -0.43495
 Alpha  occ. eigenvalues --   -0.43418  -0.43331  -0.43132  -0.42993  -0.42784
 Alpha  occ. eigenvalues --   -0.42600  -0.42449  -0.42019  -0.41632  -0.41616
 Alpha  occ. eigenvalues --   -0.41317  -0.41225  -0.40999  -0.40815  -0.40612
 Alpha  occ. eigenvalues --   -0.40378  -0.40288  -0.39988  -0.39756  -0.39465
 Alpha  occ. eigenvalues --   -0.39271  -0.39174  -0.39039  -0.39004  -0.38941
 Alpha  occ. eigenvalues --   -0.38451  -0.38408  -0.38242  -0.38189  -0.38150
 Alpha  occ. eigenvalues --   -0.37981  -0.37351  -0.37190  -0.37041  -0.36830
 Alpha  occ. eigenvalues --   -0.36642  -0.36446  -0.36309  -0.36222  -0.35988
 Alpha  occ. eigenvalues --   -0.35974  -0.35584  -0.35371  -0.34841  -0.34597
 Alpha  occ. eigenvalues --   -0.34527  -0.34345  -0.34304  -0.34275  -0.34166
 Alpha  occ. eigenvalues --   -0.33739  -0.33579  -0.33294  -0.32843  -0.32823
 Alpha  occ. eigenvalues --   -0.32421  -0.32362  -0.31644  -0.31477  -0.31032
 Alpha  occ. eigenvalues --   -0.30588  -0.30514  -0.30412  -0.29939  -0.29499
 Alpha  occ. eigenvalues --   -0.29179  -0.29073  -0.29011  -0.28489  -0.28027
 Alpha  occ. eigenvalues --   -0.27924  -0.27362  -0.27065  -0.26389  -0.26112
 Alpha  occ. eigenvalues --   -0.24464  -0.24166  -0.23305  -0.23270  -0.20121
 Alpha  occ. eigenvalues --   -0.19228
 Alpha virt. eigenvalues --   -0.10856  -0.07742  -0.04464  -0.02280  -0.00393
 Alpha virt. eigenvalues --   -0.00158  -0.00015   0.01516   0.02368   0.03476
 Alpha virt. eigenvalues --    0.03861   0.03956   0.04478   0.04670   0.04750

 Mulliken charges:
               1
     1  C    0.112542
     2  C   -0.010822
     3  C   -0.110198
     4  C   -0.106400
     5  N   -0.132447
     6  C   -0.120533
     7  C    0.001568
     8  C   -0.037249
     9  C    0.066811
    10  C    0.022945
    11  C    0.108259
    12  C   -0.004524
    13  C    0.186731
    14  O   -0.159910
    15  O   -0.358725
    16  N   -0.028684
    17  C   -0.014227
    18  C   -0.107109
    19  C   -0.035772
    20  C    0.078179
    21  C    0.012947
    22  C   -0.009124
    23  C   -0.012837
    24  N   -0.275716
    25  C    0.141972
    26  C   -0.179613
    27  C   -0.006593
    28  C    0.040937
    29  C    0.134893
    30  C   -0.008845
    31  C    0.008386
    32  N   -0.087282
    33  C    0.122496
    34  C   -0.131259
    35  C   -0.013123
    36  C    0.104470
    37  C    0.063183
    38  C    0.099097
    39  O   -0.164115
    40  C   -0.244297
    41  C    0.179847
    42  O   -0.145813
    43  O   -0.366126
    44  C    0.199946
    45  C    0.309411
    46  C   -0.108410
    47  C   -0.176344
    48  C    0.063706
    49  C    0.178873
    50  C   -0.072680
    51  C    0.060959
    52  C   -0.123095
    53  C    0.018394
    54  C    0.006885
    55  C   -0.016342
    56  C    0.092131
    57  C   -0.139330
    58  C    0.014990
    59  C    0.065371
    60  C    0.115720
    61  C    0.081244
    62  C   -0.155511
    63  C    0.000343
    64  C    0.053638
    65  H   -0.064561
    66  H   -0.014002
    67  H   -0.020106
    68  H    0.000200
    69  H   -0.015074
    70  H    0.034924
    71  H    0.026155
    72  H    0.008703
    73  H    0.037762
    74  H   -0.017384
    75  H    0.059175
    76  H    0.047882
    77  H    0.040081
    78  H    0.017939
    79  H    0.062459
    80  H    0.008613
    81  H    0.037197
    82  H   -0.018256
    83  H   -0.025462
    84  H    0.030258
    85  H    0.022071
    86  H    0.018647
    87  H    0.020546
    88  H    0.008575
    89  H    0.034479
    90  H    0.001433
    91  H    0.032931
    92  H    0.055875
    93  H    0.053897
    94  H    0.095691
    95  H    0.040537
    96  H    0.025290
    97  H    0.027522
    98  H    0.009267
    99  H    0.000502
   100  H   -0.009526
   101  H    0.013405
   102  H    0.029648
   103  H    0.015570
   104  H   -0.032590
   105  H   -0.016191
   106  H    0.004897
   107  H   -0.003932
   108  H    0.008333
   109  H    0.005262
   110  H   -0.004010
   111  H    0.046225
   112  H    0.030820
   113  H    0.006518
   114  H   -0.007343
   115  H    0.017776
   116  H   -0.004403
   117  H    0.008755
   118  H   -0.025152
   119  H   -0.055562
   120  H   -0.022518
   121  H    0.018633
   122  H    0.015215
   123  H    0.022322
   124  H   -0.030844
   125  H    0.000463
   126  H   -0.011541
   127  H   -0.054569
   128  H   -0.027921
   129  H   -0.009671
   130  H   -0.002791
   131  H    0.005118
   132  H    0.016075
   133  H    0.011026
   134  H   -0.008266
   135  H    0.002983
   136  H    0.012683
   137  H    0.154957
   138  H    0.112556
 Sum of Mulliken charges =  -0.00000

 Dipole moment (field-independent basis, Debye):
    X=              0.3846    Y=              4.4637    Z=             -0.5426  Tot=              4.5130
 Quadrupole moment (field-independent basis, Debye-Ang):
   XX=           -337.7861   YY=           -388.2623   ZZ=           -393.2857
   XY=            -20.3170   XZ=              6.1522   YZ=              0.4468

 Normal termination of Gaussian 16 at Mon Aug 12 20:30:48 2019.
