 Gaussian 16, Revision A.03,
 Gaussian 16:  ES64L-G16RevA.03 25-Dec-2016

 --------------------------
 # td=(NStates=1) B3LYP/SVP
 --------------------------

 --
 TD
 --
 Symbolic Z-matrix:
 Charge =  0 Multiplicity = 1

                         Standard orientation:
 ---------------------------------------------------------------------
 Center     Atomic      Atomic             Coordinates (Angstroms)
 Number     Number       Type             X           Y           Z
 ---------------------------------------------------------------------
      1          6           0       -5.220439   -2.031519    0.376835
      2          6           0       -4.711602    2.648402    1.489687
      3          6           0       -9.243419    3.536190   -0.240088
      4          6           0       -9.902313   -1.296359   -1.048244
      5          7           0       -5.225011    0.328731    0.878523
      6          6           0       -4.570012   -0.740661    0.742806
      7          6           0       -3.095492   -0.627776    1.202702
      8          6           0       -3.099032    0.751486    1.841907
      9          6           0       -4.501174    1.276955    1.395084
     10          6           0       -2.910145    0.679297    3.338056
     11          6           0       -2.100062   -0.794744   -0.027074
     12          6           0       -0.654329   -0.914410    0.554486
     13          6           0        0.377526   -1.141809   -0.460642
     14          8           0        0.120371   -1.312443   -1.754009
     15          8           0        1.604450   -0.999715   -0.118838
     16          7           0       -6.944833    2.731227    0.589841
     17          6           0       -5.839236    3.338058    1.069583
     18          6           0       -6.036882    4.761945    1.165228
     19          6           0       -7.287215    5.066078    0.717813
     20          6           0       -7.978631    3.721029    0.295550
     21          6           0       -5.024869    5.815541    1.651725
     22          6           0       -7.995912    6.243679    0.659310
     23          6           0       -8.773420    6.616104   -0.474441
     24          7           0       -9.108337    1.014466   -0.437347
     25          6           0       -9.775656    2.315100   -0.636063
     26          6           0      -11.187337    2.051586   -1.004232
     27          6           0      -11.332121    0.700730   -1.288414
     28          6           0      -10.128470    0.115098   -0.927304
     29          6           0      -12.172012    3.181261   -1.162917
     30          6           0      -12.496526    0.055101   -1.867484
     31          6           0      -12.448587   -0.269798   -3.374384
     32          7           0       -7.505379   -1.240330   -0.234375
     33          6           0       -8.708063   -1.936684   -0.621298
     34          6           0       -8.336426   -3.372597   -0.743125
     35          6           0       -6.981115   -3.485955   -0.301757
     36          6           0       -6.572699   -2.091303   -0.003398
     37          6           0       -9.154291   -4.443409   -1.205797
     38          6           0       -5.842766   -4.330554    0.074571
     39          8           0       -5.731716   -5.480738   -0.145404
     40          6           0       -4.657590   -3.345093    0.475429
     41          6           0       -4.038891   -3.945622    1.769491
     42          8           0       -4.403653   -3.561354    2.815228
     43          8           0       -3.207396   -4.952271    1.491831
     44          6           0       -2.679480   -5.675659    2.624746
     45          6           0        2.820844   -1.297420   -1.035024
     46          6           0        4.047196   -0.896793   -0.423109
     47          6           0        5.003115   -0.085014   -0.939531
     48          6           0        5.005959    0.685470   -2.342776
     49          6           0        6.161923    0.162968   -0.177443
     50          6           0        7.423904   -0.581990   -0.769585
     51          6           0        8.756369   -0.227481   -0.130595
     52          6           0       10.025689   -0.799187   -0.791960
     53          6           0       10.038328   -2.254535   -0.830495
     54          6           0       11.249992   -0.207339    0.030648
     55          6           0       12.682051   -0.617578   -0.504705
     56          6           0       13.850183    0.160586    0.214699
     57          6           0       15.218895   -0.161019   -0.340836
     58          6           0       15.595624   -1.708771   -0.137263
     59          6           0       16.329524    0.758413    0.373814
     60          6           0       17.639163    0.692348   -0.245644
     61          6           0       18.486279    1.753438    0.492841
     62          6           0       19.949084    1.648503   -0.090629
     63          6           0       20.103959    2.244712   -1.553571
     64          6           0       20.973784    2.516324    0.890452
     65          1           0       -3.999388    3.307240    1.963116
     66          1           0       -9.985225    4.375713   -0.131209
     67          1           0      -10.741872   -1.763373   -1.643806
     68          1           0       -3.064292   -1.603740    1.848279
     69          1           0       -2.288059    1.287442    1.621061
     70          1           0       -1.974624    0.310430    3.796327
     71          1           0       -2.522507    1.841190    3.650121
     72          1           0       -3.745392    0.222129    3.931827
     73          1           0       -2.332864   -1.588641   -0.747168
     74          1           0       -2.323780    0.221188   -0.569959
     75          1           0       -0.274189   -0.114891    1.178129
     76          1           0       -0.822677   -1.771327    1.182190
     77          1           0       -4.154738    5.604622    0.975814
     78          1           0       -5.418682    6.724069    1.628032
     79          1           0       -4.708089    5.642208    2.721300
     80          1           0       -7.859780    7.150630    1.250029
     81          1           0       -9.160702    6.150532   -1.351046
     82          1           0       -9.374871    7.485710   -0.315695
     83          1           0      -12.005528    3.931077   -0.128111
     84          1           0      -12.000020    3.903059   -2.182868
     85          1           0      -13.213926    2.883854   -1.273784
     86          1           0      -12.698390   -0.968971   -1.347877
     87          1           0      -13.488652    0.723808   -1.660962
     88          1           0      -12.507319    0.796279   -3.915960
     89          1           0      -11.440231   -0.841553   -3.769428
     90          1           0      -13.271061   -0.900891   -3.945199
     91          1           0       -9.932513   -4.597232   -0.543721
     92          1           0       -9.427082   -4.492286   -2.237234
     93          1           0       -8.554247   -5.249341   -1.185962
     94          1           0       -3.974834   -3.510741   -0.392059
     95          1           0       -1.810454   -6.288113    2.148906
     96          1           0       -2.453892   -5.040344    3.316974
     97          1           0       -3.433346   -6.425376    3.063258
     98          1           0        2.920660   -2.263677   -1.465159
     99          1           0        2.595433   -0.809664   -2.164965
    100          1           0        4.219184   -1.347154    0.528918
    101          1           0        5.005731    1.761560   -2.215683
    102          1           0        5.834803    0.725587   -3.061057
    103          1           0        3.939571    0.484871   -2.731113
    104          1           0        6.458519    1.297618   -0.100607
    105          1           0        5.972018   -0.131023    0.878894
    106          1           0        7.265502   -1.661168   -0.769225
    107          1           0        7.470846   -0.125836   -1.773032
    108          1           0        8.941690    0.911993   -0.244629
    109          1           0        8.957791   -0.628227    1.106503
    110          1           0        9.991333   -0.395010   -1.775623
    111          1           0        9.208205   -2.612064   -1.403581
    112          1           0       11.061091   -2.726517   -1.125877
    113          1           0       10.128245   -2.713484    0.197164
    114          1           0       11.026998    0.973637   -0.122667
    115          1           0       11.376484   -0.447531    0.966475
    116          1           0       12.747355   -1.717754   -0.537678
    117          1           0       12.885514   -0.422382   -1.689147
    118          1           0       13.390435    1.128620    0.184617
    119          1           0       13.732452    0.219635    1.331146
    120          1           0       15.127855   -0.001797   -1.375682
    121          1           0       14.739205   -2.264582   -0.500145
    122          1           0       16.519030   -1.972197   -0.755785
    123          1           0       15.720971   -2.115169    0.848766
    124          1           0       15.691477    1.890259    0.317596
    125          1           0       16.274715    0.630722    1.535783
    126          1           0       18.095368   -0.200436   -0.170515
    127          1           0       17.555695    0.780608   -1.257602
    128          1           0       18.323614    2.849015    0.228403
    129          1           0       18.608046    1.608226    1.627196
    130          1           0       20.249720    0.488593    0.062654
    131          1           0       19.912448    3.468607   -1.459162
    132          1           0       21.112290    2.029388   -1.680073
    133          1           0       19.561127    1.666682   -2.369990
    134          1           0       21.006396    2.072106    2.008572
    135          1           0       22.058130    2.520433    0.354365
    136          1           0       20.463306    3.372490    0.936007
    137          1           0       -6.964717    1.704530    0.510014
    138          1           0       -7.491895   -0.112310   -0.180161
 ---------------------------------------------------------------------

 SCF Done:  E(RB3LYP) =  -2732.96953262     A.U. after   17 cycles

 Excitation energies and oscillator strengths:

 Excited State   1:      Singlet-A      2.0032 eV  618.94 nm  f=0.1045  <S**2>=0.000
     235 -> 237       -0.20703
     235 -> 238       -0.33485
     236 -> 237        0.55590
     236 -> 238       -0.17928
 This state for optimization and/or second-order correction.
 Total Energy, E(TD-HF/TD-DFT) =  -2732.89591693
 Copying the excited state density for this state as the 1-particle RhoCI density.

 The electronic state is 1-A.
 Alpha  occ. eigenvalues --  -19.18579 -19.18182 -19.12541 -19.11968 -19.09331
 Alpha  occ. eigenvalues --  -14.37279 -14.36936 -14.32156 -14.30225 -10.31486
 Alpha  occ. eigenvalues --  -10.31002 -10.27396 -10.26617 -10.24831 -10.24530
 Alpha  occ. eigenvalues --  -10.23841 -10.23450 -10.23093 -10.23023 -10.22646
 Alpha  occ. eigenvalues --  -10.21957 -10.21639 -10.21501 -10.21063 -10.21036
 Alpha  occ. eigenvalues --  -10.20985 -10.20954 -10.20755 -10.20624 -10.20591
 Alpha  occ. eigenvalues --  -10.20589 -10.20579 -10.20577 -10.20377 -10.20332
 Alpha  occ. eigenvalues --  -10.20325 -10.20264 -10.20159 -10.20140 -10.20096
 Alpha  occ. eigenvalues --  -10.19827 -10.19807 -10.19763 -10.19668 -10.19588
 Alpha  occ. eigenvalues --  -10.19502 -10.19500 -10.19499 -10.19405 -10.19256
 Alpha  occ. eigenvalues --  -10.19120 -10.19087 -10.18930 -10.18853 -10.18831
 Alpha  occ. eigenvalues --  -10.18815 -10.18757 -10.18700 -10.18063 -10.17904
 Alpha  occ. eigenvalues --  -10.17899 -10.17707 -10.17032 -10.16620  -1.10490
 Alpha  occ. eigenvalues --   -1.08733  -1.04649  -1.02580  -0.98395  -0.97363
 Alpha  occ. eigenvalues --   -0.96385  -0.93195  -0.89753  -0.84217  -0.84030
 Alpha  occ. eigenvalues --   -0.82414  -0.81970  -0.81429  -0.81233  -0.81061
 Alpha  occ. eigenvalues --   -0.80403  -0.79106  -0.78809  -0.78307  -0.77871
 Alpha  occ. eigenvalues --   -0.76955  -0.76018  -0.75344  -0.75086  -0.74049
 Alpha  occ. eigenvalues --   -0.73332  -0.72962  -0.72523  -0.71626  -0.70826
 Alpha  occ. eigenvalues --   -0.70470  -0.69141  -0.69058  -0.68623  -0.67214
 Alpha  occ. eigenvalues --   -0.66584  -0.66564  -0.65849  -0.65368  -0.65031
 Alpha  occ. eigenvalues --   -0.63530  -0.63193  -0.62699  -0.61505  -0.61198
 Alpha  occ. eigenvalues --   -0.60329  -0.59740  -0.58756  -0.57878  -0.57481
 Alpha  occ. eigenvalues --   -0.57233  -0.56855  -0.56625  -0.56488  -0.55510
 Alpha  occ. eigenvalues --   -0.54913  -0.54638  -0.54374  -0.54177  -0.52968
 Alpha  occ. eigenvalues --   -0.52427  -0.51960  -0.51698  -0.50906  -0.50390
 Alpha  occ. eigenvalues --   -0.49846  -0.49296  -0.48895  -0.48858  -0.48449
 Alpha  occ. eigenvalues --   -0.47966  -0.47682  -0.47573  -0.47197  -0.46934
 Alpha  occ. eigenvalues --   -0.46735  -0.46346  -0.46137  -0.46089  -0.45911
 Alpha  occ. eigenvalues --   -0.45760  -0.45331  -0.44997  -0.44864  -0.44528
 Alpha  occ. eigenvalues --   -0.44429  -0.44167  -0.43956  -0.43755  -0.43408
 Alpha  occ. eigenvalues --   -0.43346  -0.43320  -0.43077  -0.42689  -0.42438
 Alpha  occ. eigenvalues --   -0.42346  -0.41949  -0.41792  -0.41692  -0.41258
 Alpha  occ. eigenvalues --   -0.41130  -0.41002  -0.40649  -0.40515  -0.40369
 Alpha  occ. eigenvalues --   -0.40273  -0.40129  -0.39981  -0.39728  -0.39548
 Alpha  occ. eigenvalues --   -0.39480  -0.38982  -0.38767  -0.38568  -0.38546
 Alpha  occ. eigenvalues --   -0.38504  -0.38423  -0.38238  -0.37914  -0.37765
 Alpha  occ. eigenvalues --   -0.37570  -0.37499  -0.37324  -0.36539  -0.36402
 Alpha  occ. eigenvalues --   -0.36373  -0.36345  -0.36257  -0.35864  -0.35737
 Alpha  occ. eigenvalues --   -0.35509  -0.35463  -0.35268  -0.34792  -0.34595
 Alpha  occ. eigenvalues --   -0.34483  -0.33927  -0.33859  -0.33612  -0.33249
 Alpha  occ. eigenvalues --   -0.32945  -0.32888  -0.32877  -0.32525  -0.32347
 Alpha  occ. eigenvalues --   -0.32248  -0.32161  -0.31513  -0.31160  -0.30959
 Alpha  occ. eigenvalues --   -0.30907  -0.30540  -0.30340  -0.30209  -0.29619
 Alpha  occ. eigenvalues --   -0.29361  -0.28547  -0.27869  -0.27303  -0.27162
 Alpha  occ. eigenvalues --   -0.26918  -0.26826  -0.25899  -0.25573  -0.25484
 Alpha  occ. eigenvalues --   -0.24564  -0.24383  -0.23589  -0.21510  -0.19373
 Alpha  occ. eigenvalues --   -0.18306
 Alpha virt. eigenvalues --   -0.09614  -0.08202  -0.04350  -0.02748  -0.02114
 Alpha virt. eigenvalues --   -0.00648   0.00244   0.01322   0.02317   0.03190
 Alpha virt. eigenvalues --    0.03428   0.03774   0.04148   0.04487   0.04780

 Mulliken charges:
               1
     1  C    0.007667
     2  C   -0.071247
     3  C   -0.097286
     4  C   -0.109830
     5  N   -0.046068
     6  C   -0.116580
     7  C   -0.096788
     8  C    0.074936
     9  C    0.034849
    10  C   -0.022178
    11  C    0.014876
    12  C    0.098265
    13  C    0.189827
    14  O   -0.364109
    15  O   -0.280251
    16  N   -0.094765
    17  C    0.072416
    18  C   -0.168279
    19  C    0.137815
    20  C    0.128554
    21  C    0.172600
    22  C   -0.128366
    23  C   -0.047984
    24  N   -0.362499
    25  C    0.094044
    26  C   -0.103432
    27  C   -0.017486
    28  C    0.061294
    29  C   -0.024452
    30  C   -0.003877
    31  C   -0.092099
    32  N   -0.060235
    33  C    0.147732
    34  C   -0.201684
    35  C    0.011048
    36  C    0.003604
    37  C    0.233811
    38  C    0.016991
    39  O   -0.131436
    40  C   -0.025428
    41  C    0.166333
    42  O   -0.187826
    43  O   -0.294032
    44  C    0.211091
    45  C    0.232017
    46  C   -0.071330
    47  C   -0.085455
    48  C    0.051739
    49  C    0.044989
    50  C    0.049727
    51  C   -0.052530
    52  C   -0.025330
    53  C    0.038729
    54  C    0.043748
    55  C   -0.048182
    56  C    0.035685
    57  C    0.011314
    58  C    0.023238
    59  C   -0.074794
    60  C    0.226828
    61  C    0.004858
    62  C   -0.210525
    63  C    0.023175
    64  C    0.000243
    65  H   -0.039530
    66  H    0.016052
    67  H    0.006744
    68  H    0.034021
    69  H   -0.059334
    70  H    0.011240
    71  H   -0.002274
    72  H    0.044730
    73  H    0.036983
    74  H    0.022139
    75  H    0.025887
    76  H    0.021375
    77  H    0.038283
    78  H   -0.028090
    79  H    0.029058
    80  H    0.010816
    81  H    0.025731
    82  H    0.007509
    83  H    0.046971
    84  H    0.045881
    85  H    0.012842
    86  H    0.018619
    87  H    0.027599
    88  H    0.025261
    89  H    0.037828
    90  H    0.035162
    91  H    0.009928
    92  H    0.013874
    93  H   -0.026277
    94  H    0.049769
    95  H    0.053655
    96  H   -0.011348
    97  H    0.045064
    98  H    0.033422
    99  H    0.055668
   100  H   -0.011766
   101  H    0.003023
   102  H    0.037895
   103  H    0.018824
   104  H    0.011052
   105  H   -0.004798
   106  H    0.009254
   107  H   -0.008517
   108  H    0.001604
   109  H    0.008371
   110  H   -0.026461
   111  H    0.011636
   112  H    0.010904
   113  H   -0.008288
   114  H    0.011829
   115  H   -0.036197
   116  H    0.007804
   117  H   -0.006458
   118  H   -0.029350
   119  H   -0.026191
   120  H   -0.022657
   121  H   -0.011889
   122  H    0.015795
   123  H    0.002152
   124  H   -0.000515
   125  H    0.010135
   126  H   -0.047340
   127  H   -0.043875
   128  H    0.005209
   129  H    0.013761
   130  H    0.008695
   131  H    0.039091
   132  H   -0.001395
   133  H    0.029743
   134  H    0.027030
   135  H    0.037161
   136  H   -0.017203
   137  H    0.148272
   138  H    0.210716
 Sum of Mulliken charges =  -0.00000

 Dipole moment (field-independent basis, Debye):
    X=              4.0150    Y=              2.9722    Z=              1.0513  Tot=              5.1048
 Quadrupole moment (field-independent basis, Debye-Ang):
   XX=           -359.5038   YY=           -376.3333   ZZ=           -395.6692
   XY=            -26.0375   XZ=              4.7532   YZ=             -2.0808

 Normal termination of Gaussian 16 at Thu Aug 15 20:50:58 2019.
