 Gaussian 16, Revision A.03,
 Gaussian 16:  ES64L-G16RevA.03 25-Dec-2016

 --------------------------
 # td=(NStates=1) B3LYP/SVP
 --------------------------

 --
 TD
 --
 Symbolic Z-matrix:
 Charge =  0 Multiplicity = 1

                         Standard orientation:
 ---------------------------------------------------------------------
 Center     Atomic      Atomic             Coordinates (Angstroms)
 Number     Number       Type             X           Y           Z
 ---------------------------------------------------------------------
      1          6           0       -5.081748   -1.962919    0.414439
      2          6           0       -4.617545    2.669584    1.486492
      3          6           0       -9.085833    3.519369   -0.322741
      4          6           0       -9.882209   -1.338178   -0.968928
      5          7           0       -5.123884    0.456782    0.787114
      6          6           0       -4.556934   -0.745116    0.839137
      7          6           0       -3.060267   -0.610094    1.348989
      8          6           0       -2.958504    0.761440    1.749127
      9          6           0       -4.249606    1.383038    1.281489
     10          6           0       -2.879515    0.839006    3.326561
     11          6           0       -2.058866   -0.970705    0.093035
     12          6           0       -0.612816   -0.863283    0.612867
     13          6           0        0.411437   -1.159059   -0.430435
     14          8           0        0.110095   -1.748699   -1.479096
     15          8           0        1.676574   -0.888153   -0.076418
     16          7           0       -6.964680    2.775980    0.502009
     17          6           0       -5.873789    3.374397    1.108815
     18          6           0       -6.182669    4.739600    1.183562
     19          6           0       -7.440444    4.994099    0.536931
     20          6           0       -7.925082    3.783648    0.146892
     21          6           0       -5.209645    5.850843    1.776545
     22          6           0       -8.016811    6.263346    0.439832
     23          6           0       -8.814387    6.792599   -0.652348
     24          7           0       -9.125686    0.967306   -0.584631
     25          6           0       -9.785509    2.215257   -0.665770
     26          6           0      -11.194832    1.988107   -1.012486
     27          6           0      -11.479472    0.644237   -1.220041
     28          6           0      -10.099194   -0.004265   -0.870193
     29          6           0      -12.101861    3.149585   -1.201817
     30          6           0      -12.631454   -0.035617   -1.750219
     31          6           0      -12.566820   -0.358824   -3.216970
     32          7           0       -7.489483   -1.177354   -0.082090
     33          6           0       -8.692646   -1.974931   -0.618697
     34          6           0       -8.299963   -3.377050   -0.623440
     35          6           0       -6.926383   -3.415483   -0.202638
     36          6           0       -6.431801   -1.979433   -0.010646
     37          6           0       -9.250536   -4.414013   -0.950327
     38          6           0       -5.789154   -4.307059   -0.004859
     39          8           0       -5.811411   -5.498447   -0.125453
     40          6           0       -4.596722   -3.353640    0.403347
     41          6           0       -3.993454   -3.814389    1.751599
     42          8           0       -4.375464   -3.477305    2.747655
     43          8           0       -3.227300   -4.894349    1.514583
     44          6           0       -2.735813   -5.509656    2.764676
     45          6           0        2.676240   -1.284886   -0.949002
     46          6           0        3.897324   -0.783970   -0.458997
     47          6           0        4.861036   -0.027783   -1.092464
     48          6           0        4.757374    0.487088   -2.469404
     49          6           0        6.248194    0.184196   -0.466230
     50          6           0        7.426582   -0.617931   -1.082500
     51          6           0        8.728450   -0.283553   -0.299150
     52          6           0       10.021196   -0.819031   -0.841050
     53          6           0        9.881220   -2.350135   -0.933296
     54          6           0       11.321405   -0.392868   -0.117245
     55          6           0       12.708537   -0.532352   -0.742096
     56          6           0       13.809058    0.174479    0.128858
     57          6           0       15.272124   -0.158122   -0.388632
     58          6           0       15.686521   -1.678354   -0.018291
     59          6           0       16.146470    1.049631    0.239099
     60          6           0       17.672823    0.864588   -0.169627
     61          6           0       18.543436    1.856276    0.470633
     62          6           0       20.127025    1.577767    0.256570
     63          6           0       20.384782    1.865394   -1.307382
     64          6           0       20.832036    2.638233    1.101527
     65          1           0       -3.717966    3.195605    1.966015
     66          1           0       -9.664781    4.371467   -0.625544
     67          1           0      -10.755057   -2.045414   -1.264097
     68          1           0       -2.682743   -1.517284    1.856244
     69          1           0       -2.034362    1.329515    1.191378
     70          1           0       -1.812125    0.494334    3.440395
     71          1           0       -2.970394    1.858866    3.712405
     72          1           0       -3.617427    0.161701    3.666660
     73          1           0       -2.283435   -1.943759   -0.376584
     74          1           0       -2.104376   -0.360317   -0.787313
     75          1           0       -0.472609    0.065361    1.129615
     76          1           0       -0.551997   -1.631396    1.472594
     77          1           0       -4.306032    5.960673    1.130254
     78          1           0       -5.879548    6.801463    2.298410
     79          1           0       -4.591649    5.258238    2.722367
     80          1           0       -7.689062    7.021829    1.166301
     81          1           0       -9.288553    6.321076   -1.476648
     82          1           0       -9.052215    8.043998   -0.438257
     83          1           0      -12.267792    3.717381   -0.106251
     84          1           0      -11.828504    3.978352   -1.920547
     85          1           0      -13.162913    2.807706   -1.203971
     86          1           0      -12.937863   -1.150116   -1.337660
     87          1           0      -13.460479    0.703316   -1.592774
     88          1           0      -12.556535    0.623208   -4.121668
     89          1           0      -11.749256   -0.979293   -3.463692
     90          1           0      -13.463864   -0.835844   -3.337295
     91          1           0       -9.899687   -4.511574   -0.045989
     92          1           0      -10.065065   -4.503840   -1.875675
     93          1           0       -8.569809   -5.240486   -1.000148
     94          1           0       -3.775652   -3.526231   -0.394331
     95          1           0       -2.431072   -6.579818    2.551894
     96          1           0       -1.861045   -4.666683    3.047376
     97          1           0       -3.442700   -5.530658    3.440337
     98          1           0        2.749139   -2.307410   -1.305356
     99          1           0        2.699249   -0.990675   -2.120815
    100          1           0        4.291662   -1.203942    0.445776
    101          1           0        5.089110    1.480315   -2.627750
    102          1           0        5.180001   -0.145609   -3.256025
    103          1           0        3.661091    0.565688   -2.801733
    104          1           0        6.580752    1.279522   -0.507590
    105          1           0        6.178932   -0.188173    0.540757
    106          1           0        7.420128   -1.815957   -0.861195
    107          1           0        7.502159   -0.567461   -2.268373
    108          1           0        8.719531    0.757547   -0.295741
    109          1           0        8.668435   -0.412352    0.793371
    110          1           0       10.061108   -0.588832   -1.931716
    111          1           0        8.965757   -2.719819   -1.422591
    112          1           0       10.695234   -3.171333   -1.018369
    113          1           0        9.539855   -2.744611    0.294845
    114          1           0       11.309351    0.817350   -0.013716
    115          1           0       11.448168   -0.620472    0.996315
    116          1           0       12.900026   -1.546285   -0.974065
    117          1           0       12.841508    0.077802   -1.830433
    118          1           0       13.653344    1.337618    0.170498
    119          1           0       13.658400   -0.200368    1.162291
    120          1           0       15.215840   -0.011774   -1.517290
    121          1           0       14.915741   -2.402410   -0.660317
    122          1           0       16.675266   -1.965188   -0.495604
    123          1           0       15.486412   -1.955166    1.048155
    124          1           0       15.710147    1.999637   -0.095778
    125          1           0       15.986037    1.004065    1.299661
    126          1           0       17.774580   -0.344384   -0.045240
    127          1           0       17.740767    0.674030   -1.371864
    128          1           0       18.288897    3.000636    0.370703
    129          1           0       18.497340    1.661793    1.486683
    130          1           0       20.363335    0.599703    0.466681
    131          1           0       20.267595    3.086027   -1.662111
    132          1           0       21.404628    1.759207   -1.317732
    133          1           0       20.055190    1.162962   -2.023328
    134          1           0       21.115627    2.206481    2.240120
    135          1           0       21.912211    3.023699    0.767197
    136          1           0       20.240235    3.727749    1.224527
    137          1           0       -7.076334    1.825297    0.351910
    138          1           0       -7.479623   -0.198292   -0.084179
 ---------------------------------------------------------------------

 SCF Done:  E(RB3LYP) =  -2732.94633142     A.U. after   17 cycles

 Excitation energies and oscillator strengths:

 Excited State   1:      Singlet-A      1.9724 eV  628.59 nm  f=0.2135  <S**2>=0.000
     235 -> 237       -0.24737
     235 -> 238        0.24474
     236 -> 237        0.59049
     236 -> 238        0.16154
 This state for optimization and/or second-order correction.
 Total Energy, E(TD-HF/TD-DFT) =  -2732.87384612
 Copying the excited state density for this state as the 1-particle RhoCI density.

 The electronic state is 1-A.
 Alpha  occ. eigenvalues --  -19.19435 -19.16845 -19.12878 -19.12499 -19.11733
 Alpha  occ. eigenvalues --  -14.36534 -14.36248 -14.31735 -14.30887 -10.32145
 Alpha  occ. eigenvalues --  -10.30509 -10.27302 -10.25178 -10.25081 -10.24762
 Alpha  occ. eigenvalues --  -10.23821 -10.23765 -10.23565 -10.23269 -10.22600
 Alpha  occ. eigenvalues --  -10.22553 -10.22531 -10.22510 -10.22483 -10.21873
 Alpha  occ. eigenvalues --  -10.21475 -10.21237 -10.21178 -10.21164 -10.21075
 Alpha  occ. eigenvalues --  -10.20970 -10.20965 -10.20836 -10.20798 -10.20583
 Alpha  occ. eigenvalues --  -10.20459 -10.20444 -10.20379 -10.20362 -10.20282
 Alpha  occ. eigenvalues --  -10.20271 -10.20239 -10.20194 -10.20049 -10.19987
 Alpha  occ. eigenvalues --  -10.19758 -10.19731 -10.19660 -10.19605 -10.19603
 Alpha  occ. eigenvalues --  -10.19455 -10.19425 -10.19404 -10.19259 -10.19225
 Alpha  occ. eigenvalues --  -10.19219 -10.19158 -10.19055 -10.18616 -10.18269
 Alpha  occ. eigenvalues --  -10.18141 -10.18044 -10.17927 -10.17920  -1.12079
 Alpha  occ. eigenvalues --   -1.11111  -1.03143  -1.02701  -1.00342  -0.97564
 Alpha  occ. eigenvalues --   -0.95773  -0.94622  -0.90842  -0.84063  -0.83014
 Alpha  occ. eigenvalues --   -0.82788  -0.81832  -0.81482  -0.81216  -0.80573
 Alpha  occ. eigenvalues --   -0.80201  -0.79946  -0.79031  -0.78684  -0.78031
 Alpha  occ. eigenvalues --   -0.76983  -0.75835  -0.74938  -0.74815  -0.74375
 Alpha  occ. eigenvalues --   -0.73315  -0.72981  -0.72095  -0.71234  -0.70407
 Alpha  occ. eigenvalues --   -0.69646  -0.68770  -0.68361  -0.67710  -0.66785
 Alpha  occ. eigenvalues --   -0.66709  -0.66105  -0.66033  -0.65740  -0.65014
 Alpha  occ. eigenvalues --   -0.63898  -0.63200  -0.62302  -0.61487  -0.61141
 Alpha  occ. eigenvalues --   -0.60488  -0.58993  -0.58731  -0.57837  -0.57686
 Alpha  occ. eigenvalues --   -0.57038  -0.56376  -0.55839  -0.55762  -0.55538
 Alpha  occ. eigenvalues --   -0.55307  -0.54635  -0.54522  -0.54307  -0.53544
 Alpha  occ. eigenvalues --   -0.52498  -0.52322  -0.51771  -0.51101  -0.50476
 Alpha  occ. eigenvalues --   -0.50219  -0.49585  -0.49040  -0.48971  -0.48387
 Alpha  occ. eigenvalues --   -0.47857  -0.47351  -0.47242  -0.47093  -0.47072
 Alpha  occ. eigenvalues --   -0.46595  -0.46422  -0.46052  -0.45893  -0.45872
 Alpha  occ. eigenvalues --   -0.45592  -0.45365  -0.45116  -0.45017  -0.44596
 Alpha  occ. eigenvalues --   -0.44332  -0.44045  -0.43922  -0.43573  -0.43256
 Alpha  occ. eigenvalues --   -0.43207  -0.42924  -0.42837  -0.42746  -0.42520
 Alpha  occ. eigenvalues --   -0.41997  -0.41920  -0.41684  -0.41423  -0.41167
 Alpha  occ. eigenvalues --   -0.41133  -0.40960  -0.40549  -0.40495  -0.40348
 Alpha  occ. eigenvalues --   -0.40017  -0.39645  -0.39579  -0.39414  -0.39265
 Alpha  occ. eigenvalues --   -0.39049  -0.38560  -0.38463  -0.38403  -0.38301
 Alpha  occ. eigenvalues --   -0.38256  -0.37862  -0.37734  -0.37486  -0.37396
 Alpha  occ. eigenvalues --   -0.37125  -0.36946  -0.36894  -0.36805  -0.36592
 Alpha  occ. eigenvalues --   -0.35971  -0.35905  -0.35629  -0.35576  -0.35410
 Alpha  occ. eigenvalues --   -0.35344  -0.35103  -0.34991  -0.34896  -0.34721
 Alpha  occ. eigenvalues --   -0.34573  -0.34530  -0.34172  -0.33817  -0.33704
 Alpha  occ. eigenvalues --   -0.33601  -0.33376  -0.33028  -0.32808  -0.32602
 Alpha  occ. eigenvalues --   -0.32434  -0.32127  -0.31874  -0.31786  -0.30963
 Alpha  occ. eigenvalues --   -0.30630  -0.30482  -0.30028  -0.29756  -0.29480
 Alpha  occ. eigenvalues --   -0.29216  -0.28826  -0.28513  -0.28270  -0.27995
 Alpha  occ. eigenvalues --   -0.27101  -0.27036  -0.26484  -0.25935  -0.25444
 Alpha  occ. eigenvalues --   -0.24627  -0.24568  -0.23311  -0.22390  -0.20189
 Alpha  occ. eigenvalues --   -0.18728
 Alpha virt. eigenvalues --   -0.10787  -0.08215  -0.04208  -0.02626  -0.01600
 Alpha virt. eigenvalues --   -0.00777  -0.00004   0.01130   0.01304   0.02693
 Alpha virt. eigenvalues --    0.03146   0.03836   0.03838   0.04264   0.04560

 Mulliken charges:
               1
     1  C    0.029960
     2  C   -0.053691
     3  C   -0.078549
     4  C   -0.096790
     5  N   -0.163810
     6  C   -0.022746
     7  C   -0.091473
     8  C   -0.001121
     9  C   -0.056144
    10  C    0.091293
    11  C    0.006095
    12  C    0.030880
    13  C    0.203759
    14  O   -0.262318
    15  O   -0.249963
    16  N   -0.078955
    17  C    0.155174
    18  C   -0.139131
    19  C    0.116172
    20  C    0.185396
    21  C   -0.015930
    22  C   -0.084276
    23  C   -0.083992
    24  N   -0.286135
    25  C    0.043289
    26  C   -0.101751
    27  C   -0.038502
    28  C    0.079907
    29  C    0.032324
    30  C   -0.005723
    31  C    0.015652
    32  N   -0.062472
    33  C    0.092940
    34  C   -0.076355
    35  C   -0.062009
    36  C    0.053651
    37  C    0.016794
    38  C    0.069522
    39  O   -0.149443
    40  C   -0.070103
    41  C    0.134735
    42  O   -0.121649
    43  O   -0.321087
    44  C    0.189562
    45  C    0.262321
    46  C   -0.047737
    47  C   -0.154104
    48  C    0.064192
    49  C    0.087264
    50  C   -0.090483
    51  C    0.066380
    52  C    0.059905
    53  C   -0.088252
    54  C   -0.011876
    55  C    0.010100
    56  C   -0.025959
    57  C   -0.101144
    58  C   -0.030051
    59  C    0.046412
    60  C   -0.060110
    61  C    0.111489
    62  C   -0.048151
    63  C    0.029224
    64  C   -0.087585
    65  H   -0.017468
    66  H   -0.050263
    67  H    0.009554
    68  H    0.001732
    69  H    0.034359
    70  H    0.013851
    71  H    0.015169
    72  H    0.034229
    73  H    0.018897
    74  H   -0.006306
    75  H    0.010005
    76  H    0.036666
    77  H    0.050252
    78  H    0.075205
    79  H    0.031582
    80  H    0.003076
    81  H    0.038303
    82  H    0.051313
    83  H    0.017069
    84  H    0.048533
    85  H    0.003220
    86  H    0.026851
    87  H    0.007580
    88  H    0.022395
    89  H    0.009595
    90  H   -0.006044
    91  H    0.043494
    92  H    0.062613
    93  H    0.036038
    94  H    0.065487
    95  H    0.056070
    96  H    0.044788
    97  H    0.002810
    98  H    0.014945
    99  H   -0.000078
   100  H   -0.026937
   101  H   -0.000921
   102  H    0.030754
   103  H    0.015232
   104  H    0.017778
   105  H   -0.008850
   106  H    0.022726
   107  H    0.025691
   108  H   -0.045868
   109  H   -0.009014
   110  H   -0.004855
   111  H    0.024459
   112  H    0.037043
   113  H   -0.023343
   114  H   -0.004986
   115  H    0.005100
   116  H   -0.009900
   117  H    0.004819
   118  H    0.016606
   119  H   -0.005550
   120  H    0.004522
   121  H    0.018367
   122  H    0.039449
   123  H    0.034939
   124  H   -0.000886
   125  H   -0.010652
   126  H   -0.000269
   127  H   -0.003529
   128  H    0.020269
   129  H   -0.026535
   130  H   -0.018362
   131  H    0.023378
   132  H   -0.024124
   133  H    0.008518
   134  H    0.028247
   135  H    0.022420
   136  H    0.035743
   137  H    0.097901
   138  H    0.120279
 Sum of Mulliken charges =  -0.00000

 Dipole moment (field-independent basis, Debye):
    X=              1.9150    Y=              3.3090    Z=              1.2549  Tot=              4.0238
 Quadrupole moment (field-independent basis, Debye-Ang):
   XX=           -346.3793   YY=           -385.5276   ZZ=           -395.3720
   XY=            -24.0021   XZ=              9.8158   YZ=             -2.5304

 Normal termination of Gaussian 16 at Sat Aug 24 17:02:26 2019.
