 Gaussian 16, Revision A.03,
 Gaussian 16:  ES64L-G16RevA.03 25-Dec-2016

 --------------------------
 # td=(NStates=1) B3LYP/SVP
 --------------------------

 --
 TD
 --
 Symbolic Z-matrix:
 Charge =  0 Multiplicity = 1

                         Standard orientation:
 ---------------------------------------------------------------------
 Center     Atomic      Atomic             Coordinates (Angstroms)
 Number     Number       Type             X           Y           Z
 ---------------------------------------------------------------------
      1          6           0       -5.117149   -1.950599    0.557492
      2          6           0       -4.759379    2.724011    1.422467
      3          6           0       -9.358041    3.340462   -0.233970
      4          6           0       -9.757640   -1.598681   -1.158266
      5          7           0       -5.200846    0.442506    0.946436
      6          6           0       -4.491537   -0.705522    0.952428
      7          6           0       -3.116792   -0.614651    1.394445
      8          6           0       -3.122136    0.878896    2.003776
      9          6           0       -4.466058    1.372255    1.441484
     10          6           0       -3.097864    0.933106    3.468381
     11          6           0       -2.110900   -0.827314    0.260956
     12          6           0       -0.686929   -0.743005    0.647854
     13          6           0        0.348631   -0.956687   -0.370876
     14          8           0       -0.019490   -1.445550   -1.444579
     15          8           0        1.534134   -0.476804   -0.114659
     16          7           0       -7.079460    2.686042    0.535331
     17          6           0       -5.979622    3.282990    1.057101
     18          6           0       -6.367190    4.738448    1.098242
     19          6           0       -7.566988    4.892882    0.729016
     20          6           0       -8.056305    3.643193    0.164649
     21          6           0       -5.254271    5.752273    1.596469
     22          6           0       -8.237967    6.140394    0.537431
     23          6           0       -9.037730    6.537924   -0.455949
     24          7           0       -9.266918    0.753788   -0.427393
     25          6           0       -9.859971    2.010923   -0.560952
     26          6           0      -11.219893    1.788550   -1.155763
     27          6           0      -11.358912    0.502705   -1.394343
     28          6           0      -10.028421   -0.197639   -0.991894
     29          6           0      -12.249025    2.897754   -1.274350
     30          6           0      -12.584420   -0.207722   -1.961311
     31          6           0      -12.388016   -0.393661   -3.518156
     32          7           0       -7.384420   -1.326831   -0.204067
     33          6           0       -8.498117   -2.041221   -0.684105
     34          6           0       -8.049114   -3.389593   -0.827879
     35          6           0       -6.767076   -3.412920   -0.286811
     36          6           0       -6.424704   -2.159217    0.037841
     37          6           0       -8.911319   -4.608048   -1.247340
     38          6           0       -5.605719   -4.285096   -0.064044
     39          8           0       -5.487483   -5.506057   -0.221435
     40          6           0       -4.469386   -3.312860    0.576169
     41          6           0       -3.995123   -3.891697    1.888478
     42          8           0       -4.371155   -3.515218    2.998074
     43          8           0       -3.212110   -4.816733    1.701936
     44          6           0       -2.764610   -5.579680    2.848865
     45          6           0        2.644197   -0.772841   -1.082961
     46          6           0        3.904156   -0.408559   -0.456002
     47          6           0        4.877705    0.304470   -0.984672
     48          6           0        4.746730    1.058802   -2.376195
     49          6           0        6.272886    0.505722   -0.356721
     50          6           0        7.426554   -0.148629   -1.034130
     51          6           0        8.799693    0.094008   -0.254852
     52          6           0       10.115795   -0.485083   -0.989014
     53          6           0       10.068513   -1.980625   -1.234562
     54          6           0       11.336435   -0.140348   -0.085648
     55          6           0       12.686512   -0.453087   -0.816718
     56          6           0       13.823272    0.110155    0.059171
     57          6           0       15.243177   -0.180427   -0.482689
     58          6           0       15.564773   -1.698397   -0.558640
     59          6           0       16.252272    0.611537    0.400004
     60          6           0       17.748884    0.410839   -0.090544
     61          6           0       18.736631    1.322563    0.574429
     62          6           0       20.186194    1.390841    0.127701
     63          6           0       20.432540    1.858022   -1.226306
     64          6           0       21.090725    2.050613    1.211049
     65          1           0       -4.088545    3.481060    1.799917
     66          1           0      -10.077657    3.996847   -0.449774
     67          1           0      -10.343166   -2.341986   -1.650362
     68          1           0       -2.671398   -1.396133    2.255244
     69          1           0       -2.279622    1.575733    1.406228
     70          1           0       -2.269227    0.450442    4.011044
     71          1           0       -3.137212    1.901252    4.200861
     72          1           0       -3.905566    0.108751    4.094818
     73          1           0       -2.161117   -2.027886   -0.186652
     74          1           0       -2.493625   -0.065555   -0.586441
     75          1           0       -0.483856    0.176977    1.227694
     76          1           0       -0.868088   -1.369744    1.512399
     77          1           0       -4.485833    5.625260    0.989971
     78          1           0       -5.868688    6.859571    1.687523
     79          1           0       -5.086660    5.469949    2.795246
     80          1           0       -7.800684    7.110501    1.020918
     81          1           0       -9.293589    5.901575   -1.258684
     82          1           0       -9.500402    7.547859   -0.372859
     83          1           0      -12.384544    3.341876   -0.232942
     84          1           0      -11.762988    3.885958   -1.704945
     85          1           0      -13.122454    2.631645   -1.745297
     86          1           0      -12.862537   -1.318125   -1.723887
     87          1           0      -13.502419    0.242584   -1.574056
     88          1           0      -12.488837    0.514404   -4.161040
     89          1           0      -11.444682   -0.654507   -4.023421
     90          1           0      -13.267577   -1.116520   -3.930975
     91          1           0       -9.615976   -4.983771   -0.365356
     92          1           0       -9.513405   -4.255598   -2.115430
     93          1           0       -8.130723   -5.309626   -1.499485
     94          1           0       -3.634119   -3.469031   -0.171856
     95          1           0       -2.485498   -6.587871    2.363682
     96          1           0       -1.981699   -4.986497    3.356172
     97          1           0       -3.729468   -5.767900    3.497429
     98          1           0        2.515794   -1.908832   -1.283309
     99          1           0        2.497232   -0.270491   -2.193194
    100          1           0        4.080270   -0.751325    0.524609
    101          1           0        5.212122    1.953021   -2.172288
    102          1           0        5.314141    0.392828   -3.057888
    103          1           0        3.766723    1.235959   -2.790288
    104          1           0        6.468208    1.529897   -0.116643
    105          1           0        6.034650    0.242090    0.784223
    106          1           0        7.394485   -1.214065   -0.957016
    107          1           0        7.262767    0.089295   -2.084434
    108          1           0        8.882279    1.138499   -0.047609
    109          1           0        8.631234   -0.272911    0.832956
    110          1           0       10.030153   -0.044206   -1.895593
    111          1           0        9.155249   -2.410724   -1.559967
    112          1           0       10.935993   -2.136459   -1.846184
    113          1           0       10.160633   -2.668872   -0.277361
    114          1           0       11.265752    0.962231    0.182022
    115          1           0       11.215224   -0.597298    0.750052
    116          1           0       12.891017   -1.504267   -0.742922
    117          1           0       12.589413    0.019402   -1.835842
    118          1           0       13.774344    1.132084    0.335688
    119          1           0       13.679072   -0.432686    1.011342
    120          1           0       15.374655    0.367381   -1.389631
    121          1           0       14.738134   -2.346305   -0.981481
    122          1           0       16.529816   -2.105134   -0.940173
    123          1           0       15.335780   -2.104727    0.542123
    124          1           0       15.869710    1.863309    0.182959
    125          1           0       16.273243    0.299396    1.496686
    126          1           0       18.119007   -0.524049   -0.073930
    127          1           0       17.442989    0.810106   -1.364634
    128          1           0       18.221011    2.352429    0.577919
    129          1           0       18.614605    1.104225    1.679969
    130          1           0       20.653759    0.424649    0.069670
    131          1           0       20.172734    2.900055   -1.594795
    132          1           0       21.491256    1.892979   -1.315346
    133          1           0       20.058964    1.235795   -1.816886
    134          1           0       21.112029    1.701289    2.076433
    135          1           0       22.306663    2.088724    1.077672
    136          1           0       20.854585    3.285747    1.181250
    137          1           0       -7.029166    1.630287    0.147705
    138          1           0       -7.472019   -0.399636    0.070207
 ---------------------------------------------------------------------

 SCF Done:  E(RB3LYP) =  -2732.95746147     A.U. after   16 cycles

 Excitation energies and oscillator strengths:

 Excited State   1:      Singlet-A      2.0986 eV  590.80 nm  f=0.1571  <S**2>=0.000
     235 -> 238       -0.31960
     236 -> 237        0.61863
 This state for optimization and/or second-order correction.
 Total Energy, E(TD-HF/TD-DFT) =  -2732.88034038
 Copying the excited state density for this state as the 1-particle RhoCI density.

 The electronic state is 1-A.
 Alpha  occ. eigenvalues --  -19.18603 -19.18421 -19.11908 -19.11018 -19.09652
 Alpha  occ. eigenvalues --  -14.37594 -14.36431 -14.32334 -14.30225 -10.31175
 Alpha  occ. eigenvalues --  -10.29980 -10.27687 -10.27039 -10.26265 -10.24113
 Alpha  occ. eigenvalues --  -10.23849 -10.23069 -10.22789 -10.22554 -10.22232
 Alpha  occ. eigenvalues --  -10.22168 -10.22117 -10.22026 -10.21935 -10.21615
 Alpha  occ. eigenvalues --  -10.21298 -10.21286 -10.20979 -10.20885 -10.20840
 Alpha  occ. eigenvalues --  -10.20539 -10.20533 -10.20482 -10.20328 -10.20213
 Alpha  occ. eigenvalues --  -10.20072 -10.20051 -10.19885 -10.19779 -10.19752
 Alpha  occ. eigenvalues --  -10.19641 -10.19481 -10.19447 -10.19390 -10.19309
 Alpha  occ. eigenvalues --  -10.19286 -10.19255 -10.19239 -10.18964 -10.18961
 Alpha  occ. eigenvalues --  -10.18898 -10.18832 -10.18815 -10.18642 -10.18595
 Alpha  occ. eigenvalues --  -10.18523 -10.18390 -10.18038 -10.18027 -10.17901
 Alpha  occ. eigenvalues --  -10.17872 -10.17656 -10.17519 -10.15443  -1.13373
 Alpha  occ. eigenvalues --   -1.09608  -1.01062  -0.99957  -0.99147  -0.98298
 Alpha  occ. eigenvalues --   -0.97808  -0.96659  -0.92161  -0.84455  -0.83102
 Alpha  occ. eigenvalues --   -0.82988  -0.82174  -0.81953  -0.81493  -0.81053
 Alpha  occ. eigenvalues --   -0.80099  -0.79968  -0.79108  -0.78293  -0.78051
 Alpha  occ. eigenvalues --   -0.77185  -0.76615  -0.75964  -0.75558  -0.74349
 Alpha  occ. eigenvalues --   -0.74189  -0.73421  -0.72587  -0.72176  -0.70471
 Alpha  occ. eigenvalues --   -0.70110  -0.69019  -0.68802  -0.68463  -0.67837
 Alpha  occ. eigenvalues --   -0.67446  -0.67195  -0.66636  -0.65933  -0.65381
 Alpha  occ. eigenvalues --   -0.64168  -0.62652  -0.62578  -0.61869  -0.61401
 Alpha  occ. eigenvalues --   -0.61048  -0.59882  -0.58529  -0.57906  -0.57885
 Alpha  occ. eigenvalues --   -0.57398  -0.57309  -0.55822  -0.55715  -0.55348
 Alpha  occ. eigenvalues --   -0.55281  -0.55066  -0.54928  -0.53863  -0.53600
 Alpha  occ. eigenvalues --   -0.52444  -0.51993  -0.51684  -0.51258  -0.50932
 Alpha  occ. eigenvalues --   -0.49870  -0.49760  -0.49087  -0.48873  -0.48522
 Alpha  occ. eigenvalues --   -0.48267  -0.47830  -0.47766  -0.47393  -0.47267
 Alpha  occ. eigenvalues --   -0.47021  -0.46509  -0.46290  -0.46121  -0.45898
 Alpha  occ. eigenvalues --   -0.45807  -0.45750  -0.45655  -0.45223  -0.44777
 Alpha  occ. eigenvalues --   -0.44571  -0.44506  -0.44128  -0.44050  -0.43851
 Alpha  occ. eigenvalues --   -0.43673  -0.43403  -0.43020  -0.42964  -0.42543
 Alpha  occ. eigenvalues --   -0.42183  -0.42059  -0.41712  -0.41507  -0.41316
 Alpha  occ. eigenvalues --   -0.41124  -0.40925  -0.40701  -0.40474  -0.40390
 Alpha  occ. eigenvalues --   -0.40266  -0.40188  -0.40034  -0.39597  -0.39312
 Alpha  occ. eigenvalues --   -0.39080  -0.39026  -0.38630  -0.38449  -0.38338
 Alpha  occ. eigenvalues --   -0.38110  -0.37952  -0.37724  -0.37656  -0.37516
 Alpha  occ. eigenvalues --   -0.37193  -0.36882  -0.36700  -0.36617  -0.36543
 Alpha  occ. eigenvalues --   -0.36323  -0.36282  -0.36242  -0.35943  -0.35806
 Alpha  occ. eigenvalues --   -0.35490  -0.35255  -0.34851  -0.34579  -0.34456
 Alpha  occ. eigenvalues --   -0.34324  -0.33948  -0.33889  -0.33833  -0.33620
 Alpha  occ. eigenvalues --   -0.33275  -0.33049  -0.32994  -0.32697  -0.32199
 Alpha  occ. eigenvalues --   -0.31990  -0.31972  -0.31966  -0.31342  -0.31127
 Alpha  occ. eigenvalues --   -0.30809  -0.30689  -0.30614  -0.30390  -0.29988
 Alpha  occ. eigenvalues --   -0.29777  -0.29072  -0.28438  -0.28059  -0.27637
 Alpha  occ. eigenvalues --   -0.27170  -0.26457  -0.26121  -0.25782  -0.25651
 Alpha  occ. eigenvalues --   -0.25235  -0.24611  -0.24322  -0.22797  -0.19788
 Alpha  occ. eigenvalues --   -0.18617
 Alpha virt. eigenvalues --   -0.09776  -0.07487  -0.03959  -0.01968  -0.00419
 Alpha virt. eigenvalues --   -0.00218   0.00399   0.02036   0.02486   0.02626
 Alpha virt. eigenvalues --    0.03599   0.03749   0.04065   0.04591   0.04688

 Mulliken charges:
               1
     1  C    0.080133
     2  C   -0.061625
     3  C    0.033185
     4  C   -0.053255
     5  N   -0.114765
     6  C   -0.012551
     7  C   -0.124460
     8  C   -0.018469
     9  C    0.012790
    10  C   -0.039710
    11  C   -0.082492
    12  C    0.076297
    13  C    0.223693
    14  O   -0.270430
    15  O   -0.287092
    16  N   -0.133393
    17  C    0.065301
    18  C   -0.127454
    19  C    0.074636
    20  C    0.112329
    21  C    0.067818
    22  C   -0.100219
    23  C   -0.036507
    24  N   -0.242061
    25  C    0.015253
    26  C   -0.121498
    27  C   -0.085329
    28  C    0.068853
    29  C    0.110625
    30  C    0.047883
    31  C   -0.052875
    32  N    0.064719
    33  C    0.077232
    34  C   -0.214288
    35  C    0.038255
    36  C   -0.009586
    37  C    0.074199
    38  C    0.045736
    39  O   -0.195116
    40  C   -0.098306
    41  C    0.148465
    42  O   -0.277683
    43  O   -0.197679
    44  C    0.130945
    45  C    0.211168
    46  C   -0.015567
    47  C   -0.188899
    48  C    0.098287
    49  C    0.022795
    50  C    0.086489
    51  C   -0.021669
    52  C    0.008068
    53  C    0.021729
    54  C    0.079386
    55  C    0.078512
    56  C    0.019270
    57  C    0.009824
    58  C   -0.015628
    59  C   -0.068786
    60  C   -0.017936
    61  C    0.053210
    62  C   -0.025717
    63  C    0.150504
    64  C    0.016813
    65  H   -0.038966
    66  H   -0.107289
    67  H   -0.019188
    68  H    0.050244
    69  H    0.040853
    70  H    0.006770
    71  H    0.040379
    72  H    0.043533
    73  H    0.059060
    74  H    0.023053
    75  H    0.004326
    76  H   -0.006728
    77  H    0.019776
    78  H    0.047218
    79  H    0.059992
    80  H    0.017480
    81  H    0.015472
    82  H    0.034191
    83  H    0.022716
    84  H    0.017889
    85  H    0.002319
    86  H    0.011929
    87  H    0.009811
    88  H   -0.001416
    89  H    0.021669
    90  H    0.016182
    91  H    0.064843
    92  H    0.028379
    93  H    0.041584
    94  H    0.059376
    95  H    0.060696
    96  H    0.051944
    97  H    0.067999
    98  H    0.046858
    99  H    0.056750
   100  H   -0.034829
   101  H    0.001688
   102  H    0.036287
   103  H    0.014307
   104  H   -0.006481
   105  H   -0.011047
   106  H   -0.007704
   107  H   -0.007509
   108  H   -0.023647
   109  H   -0.002438
   110  H   -0.035269
   111  H    0.000371
   112  H    0.013530
   113  H   -0.000736
   114  H   -0.008053
   115  H   -0.065884
   116  H   -0.000098
   117  H    0.008835
   118  H   -0.027225
   119  H   -0.019589
   120  H   -0.019441
   121  H    0.010957
   122  H    0.036819
   123  H    0.000255
   124  H    0.027279
   125  H    0.007456
   126  H   -0.017046
   127  H   -0.002443
   128  H   -0.011291
   129  H   -0.012460
   130  H   -0.022786
   131  H   -0.003582
   132  H   -0.018067
   133  H   -0.058335
   134  H   -0.051160
   135  H    0.005138
   136  H    0.014713
   137  H    0.207937
   138  H    0.098495
 Sum of Mulliken charges =  -0.00000

 Dipole moment (field-independent basis, Debye):
    X=              4.6601    Y=              3.5837    Z=              0.5809  Tot=              5.9074
 Quadrupole moment (field-independent basis, Debye-Ang):
   XX=           -363.6357   YY=           -382.2056   ZZ=           -395.1023
   XY=            -37.4473   XZ=             13.1254   YZ=             -4.5144

 Normal termination of Gaussian 16 at Sat Aug 31 21:33:52 2019.
