 Gaussian 16, Revision A.03,
 Gaussian 16:  ES64L-G16RevA.03 25-Dec-2016

 --------------------------
 # td=(NStates=1) B3LYP/SVP
 --------------------------

 --
 TD
 --
 Symbolic Z-matrix:
 Charge =  0 Multiplicity = 1

                         Standard orientation:
 ---------------------------------------------------------------------
 Center     Atomic      Atomic             Coordinates (Angstroms)
 Number     Number       Type             X           Y           Z
 ---------------------------------------------------------------------
      1          6           0       -5.093914   -1.939628    0.359323
      2          6           0       -4.797426    2.683703    1.369415
      3          6           0       -9.458769    3.349496   -0.310589
      4          6           0       -9.773873   -1.492641   -1.025825
      5          7           0       -5.246920    0.440752    0.766686
      6          6           0       -4.518426   -0.639237    0.768287
      7          6           0       -3.069074   -0.590246    1.238447
      8          6           0       -3.061351    0.855848    1.816642
      9          6           0       -4.427925    1.392372    1.273516
     10          6           0       -2.830943    1.168511    3.323527
     11          6           0       -2.069893   -0.781840    0.111224
     12          6           0       -0.607891   -0.525089    0.491335
     13          6           0        0.331841   -0.857666   -0.667348
     14          8           0       -0.037775   -1.241600   -1.793642
     15          8           0        1.580219   -0.554319   -0.285732
     16          7           0       -7.155625    2.656569    0.477209
     17          6           0       -6.052672    3.324079    0.918250
     18          6           0       -6.382204    4.727836    0.951263
     19          6           0       -7.573911    4.933563    0.383074
     20          6           0       -8.162365    3.535649    0.120960
     21          6           0       -5.360131    5.711367    1.410443
     22          6           0       -8.299643    6.250579    0.324239
     23          6           0       -9.272823    6.441776   -0.581281
     24          7           0       -9.287939    0.927128   -0.492261
     25          6           0       -9.996005    1.981294   -0.518047
     26          6           0      -11.379214    1.763670   -0.871715
     27          6           0      -11.470793    0.409923   -1.193870
     28          6           0      -10.083571   -0.100981   -0.899560
     29          6           0      -12.552282    2.773418   -0.885921
     30          6           0      -12.797264   -0.359251   -1.549227
     31          6           0      -12.718829   -0.712418   -3.011325
     32          7           0       -7.413199   -1.222846   -0.270770
     33          6           0       -8.546380   -2.092967   -0.518374
     34          6           0       -8.135770   -3.470835   -0.408610
     35          6           0       -6.807389   -3.435150   -0.093901
     36          6           0       -6.391886   -2.104444    0.033102
     37          6           0       -8.924632   -4.635698   -0.846790
     38          6           0       -5.635957   -4.247523    0.077179
     39          8           0       -5.434357   -5.449959   -0.044434
     40          6           0       -4.494221   -3.273120    0.502743
     41          6           0       -3.760040   -3.702531    1.816033
     42          8           0       -3.966280   -3.127547    2.833384
     43          8           0       -3.091299   -4.789452    1.547276
     44          6           0       -2.482432   -5.479871    2.592576
     45          6           0        2.620470   -0.966687   -1.132476
     46          6           0        3.861308   -0.510008   -0.522078
     47          6           0        4.945431    0.101219   -1.234870
     48          6           0        5.003066    0.431798   -2.677454
     49          6           0        6.197400    0.296959   -0.498160
     50          6           0        7.497657   -0.374519   -0.986063
     51          6           0        8.747603   -0.218044   -0.115686
     52          6           0       10.145810   -0.657068   -0.742762
     53          6           0       10.159860   -2.288395   -0.757329
     54          6           0       11.400025    0.014938    0.046965
     55          6           0       12.708078   -0.399337   -0.533354
     56          6           0       13.859760    0.169407    0.102831
     57          6           0       15.282111   -0.135035   -0.333653
     58          6           0       15.616155   -1.571380   -0.362875
     59          6           0       16.283579    0.766455    0.335361
     60          6           0       17.812808    0.613760   -0.065067
     61          6           0       18.687692    1.588325    0.604666
     62          6           0       20.072628    1.551096    0.178367
     63          6           0       20.453804    1.885906   -1.186259
     64          6           0       21.098689    2.188014    1.123197
     65          1           0       -4.238619    3.445697    1.788444
     66          1           0      -10.207601    4.118758   -0.173152
     67          1           0      -10.860738   -2.005976   -1.159361
     68          1           0       -2.654450   -1.291343    1.976926
     69          1           0       -2.215838    1.331686    1.259010
     70          1           0       -1.894993    0.845351    3.775368
     71          1           0       -2.871231    2.259044    3.534893
     72          1           0       -3.532743    0.513155    3.983517
     73          1           0       -2.316271   -1.468774   -0.541405
     74          1           0       -2.152495   -0.155457   -0.796971
     75          1           0       -0.451707    0.433004    1.056490
     76          1           0       -0.398471   -1.437635    1.216409
     77          1           0       -4.398438    5.944698    0.777192
     78          1           0       -5.833698    6.713171    1.326886
     79          1           0       -4.967641    5.643966    2.453115
     80          1           0       -8.412303    7.139420    1.517544
     81          1           0       -9.471898    5.634470   -1.289487
     82          1           0       -9.890163    7.296751   -0.654039
     83          1           0      -12.927158    3.361534    0.124792
     84          1           0      -11.956559    3.721686   -1.454441
     85          1           0      -13.392277    2.496193   -1.484909
     86          1           0      -12.890929   -1.285073   -1.002603
     87          1           0      -13.755074    0.266510   -1.343631
     88          1           0      -12.643398    0.108122   -3.624033
     89          1           0      -11.796869   -1.368009   -2.944937
     90          1           0      -13.696984   -1.076098   -3.427643
     91          1           0       -9.959406   -4.667749   -0.499041
     92          1           0       -8.963134   -4.855896   -1.986791
     93          1           0       -8.447029   -5.701412   -0.566826
     94          1           0       -3.836514   -3.606466   -0.291924
     95          1           0       -1.985885   -6.264567    2.298440
     96          1           0       -1.761478   -4.905038    2.996423
     97          1           0       -3.234521   -5.728085    3.495752
     98          1           0        2.687243   -2.136324   -1.252578
     99          1           0        2.457153   -0.493556   -2.113371
    100          1           0        3.966537   -0.760526    0.633513
    101          1           0        5.119993    1.445346   -2.548488
    102          1           0        5.924624    0.038430   -3.347965
    103          1           0        3.931329    0.150456   -3.280010
    104          1           0        6.509237    1.437147   -0.480812
    105          1           0        6.041003   -0.108101    0.597536
    106          1           0        7.137605   -1.490902   -1.118393
    107          1           0        7.792172   -0.140259   -2.137736
    108          1           0        8.873518    0.918684    0.033403
    109          1           0        8.621798   -0.754252    0.831679
    110          1           0       10.063218   -0.311622   -1.695250
    111          1           0        8.987433   -2.735540   -0.833762
    112          1           0       10.921567   -2.832503   -1.645680
    113          1           0       10.659206   -2.651733    0.337714
    114          1           0       11.202828    1.264479   -0.051810
    115          1           0       11.433560   -0.483727    1.067082
    116          1           0       12.769466   -1.464883   -0.537645
    117          1           0       12.648895   -0.136987   -1.663828
    118          1           0       13.722161    1.313220    0.144554
    119          1           0       14.034620   -0.037828    1.279462
    120          1           0       15.190564   -0.116400   -1.352817
    121          1           0       14.564330   -2.164396   -0.665953
    122          1           0       16.352927   -1.647432   -1.264005
    123          1           0       15.984009   -2.019671    0.653549
    124          1           0       16.087140    2.024350    0.252254
    125          1           0       16.192983    0.448079    1.513938
    126          1           0       18.119090   -0.332375    0.268188
    127          1           0       17.938464    0.643692   -1.191948
    128          1           0       18.331891    2.667479    0.204810
    129          1           0       18.384286    1.628318    1.654613
    130          1           0       20.445726    0.601243    0.411590
    131          1           0       20.384020    2.930321   -1.352477
    132          1           0       21.464549    1.560605   -1.539545
    133          1           0       19.817255    1.245109   -1.885153
    134          1           0       21.155547    1.832955    2.129601
    135          1           0       22.081426    2.017669    0.638770
    136          1           0       21.322787    3.495163    1.113628
    137          1           0       -7.180094    1.603562    0.422538
    138          1           0       -7.579092   -0.307234   -0.445042
 ---------------------------------------------------------------------

 SCF Done:  E(RB3LYP) =  -2732.94989458     A.U. after   16 cycles

 Excitation energies and oscillator strengths:

 Excited State   1:      Singlet-A      1.9939 eV  621.81 nm  f=0.2414  <S**2>=0.000
     235 -> 237       -0.15436
     235 -> 238        0.24610
     236 -> 237        0.62936
     236 -> 238        0.14798
 This state for optimization and/or second-order correction.
 Total Energy, E(TD-HF/TD-DFT) =  -2732.87661907
 Copying the excited state density for this state as the 1-particle RhoCI density.

 The electronic state is 1-A.
 Alpha  occ. eigenvalues --  -19.19037 -19.18861 -19.13232 -19.12581 -19.11260
 Alpha  occ. eigenvalues --  -14.38056 -14.36368 -14.32865 -14.29592 -10.32604
 Alpha  occ. eigenvalues --  -10.31762 -10.26921 -10.25454 -10.24522 -10.24248
 Alpha  occ. eigenvalues --  -10.24038 -10.23904 -10.23612 -10.23531 -10.22944
 Alpha  occ. eigenvalues --  -10.22792 -10.22765 -10.21845 -10.21727 -10.21671
 Alpha  occ. eigenvalues --  -10.21446 -10.21419 -10.21261 -10.21253 -10.21189
 Alpha  occ. eigenvalues --  -10.21033 -10.20980 -10.20919 -10.20838 -10.20715
 Alpha  occ. eigenvalues --  -10.20691 -10.20447 -10.20281 -10.20231 -10.20190
 Alpha  occ. eigenvalues --  -10.20100 -10.20091 -10.20064 -10.20051 -10.19729
 Alpha  occ. eigenvalues --  -10.19716 -10.19600 -10.19541 -10.19480 -10.18981
 Alpha  occ. eigenvalues --  -10.18957 -10.18942 -10.18629 -10.18525 -10.18430
 Alpha  occ. eigenvalues --  -10.18372 -10.18278 -10.18241 -10.18026 -10.17983
 Alpha  occ. eigenvalues --  -10.17908 -10.17814 -10.17580 -10.17432  -1.11998
 Alpha  occ. eigenvalues --   -1.10570  -1.03002  -1.01399  -1.00497  -0.98270
 Alpha  occ. eigenvalues --   -0.97321  -0.96162  -0.95143  -0.85696  -0.83630
 Alpha  occ. eigenvalues --   -0.82925  -0.82677  -0.82032  -0.81864  -0.81095
 Alpha  occ. eigenvalues --   -0.80165  -0.79941  -0.79018  -0.78319  -0.77886
 Alpha  occ. eigenvalues --   -0.77318  -0.76803  -0.76170  -0.75321  -0.74830
 Alpha  occ. eigenvalues --   -0.74245  -0.74065  -0.72386  -0.71952  -0.70385
 Alpha  occ. eigenvalues --   -0.69987  -0.69629  -0.68265  -0.67570  -0.67486
 Alpha  occ. eigenvalues --   -0.66601  -0.66553  -0.66033  -0.65776  -0.64903
 Alpha  occ. eigenvalues --   -0.63850  -0.62932  -0.62493  -0.61435  -0.61157
 Alpha  occ. eigenvalues --   -0.60863  -0.59011  -0.58946  -0.58418  -0.57684
 Alpha  occ. eigenvalues --   -0.57352  -0.57009  -0.56030  -0.55777  -0.55755
 Alpha  occ. eigenvalues --   -0.55549  -0.55011  -0.54417  -0.53764  -0.53070
 Alpha  occ. eigenvalues --   -0.52679  -0.52249  -0.51350  -0.50941  -0.50618
 Alpha  occ. eigenvalues --   -0.50510  -0.49900  -0.49264  -0.48801  -0.48666
 Alpha  occ. eigenvalues --   -0.48490  -0.48282  -0.47812  -0.47584  -0.46959
 Alpha  occ. eigenvalues --   -0.46940  -0.46810  -0.46271  -0.45977  -0.45926
 Alpha  occ. eigenvalues --   -0.45757  -0.45704  -0.45322  -0.44960  -0.44901
 Alpha  occ. eigenvalues --   -0.44679  -0.44366  -0.44255  -0.43823  -0.43556
 Alpha  occ. eigenvalues --   -0.43396  -0.43055  -0.42722  -0.42626  -0.42270
 Alpha  occ. eigenvalues --   -0.42145  -0.42075  -0.41832  -0.41769  -0.41370
 Alpha  occ. eigenvalues --   -0.41056  -0.40837  -0.40754  -0.40382  -0.40351
 Alpha  occ. eigenvalues --   -0.40118  -0.40013  -0.39837  -0.39630  -0.39271
 Alpha  occ. eigenvalues --   -0.39051  -0.38766  -0.38590  -0.38509  -0.38238
 Alpha  occ. eigenvalues --   -0.38223  -0.38007  -0.37955  -0.37819  -0.37312
 Alpha  occ. eigenvalues --   -0.37213  -0.36949  -0.36906  -0.36421  -0.36228
 Alpha  occ. eigenvalues --   -0.36143  -0.35966  -0.35851  -0.35740  -0.35655
 Alpha  occ. eigenvalues --   -0.35355  -0.35081  -0.35029  -0.34851  -0.34644
 Alpha  occ. eigenvalues --   -0.34229  -0.34099  -0.33947  -0.33664  -0.33451
 Alpha  occ. eigenvalues --   -0.33311  -0.33207  -0.32742  -0.32623  -0.32508
 Alpha  occ. eigenvalues --   -0.32084  -0.31735  -0.31730  -0.31579  -0.31454
 Alpha  occ. eigenvalues --   -0.31003  -0.30820  -0.30592  -0.30417  -0.30014
 Alpha  occ. eigenvalues --   -0.29495  -0.29106  -0.28906  -0.28429  -0.28259
 Alpha  occ. eigenvalues --   -0.28222  -0.27557  -0.27030  -0.26326  -0.25869
 Alpha  occ. eigenvalues --   -0.25172  -0.24207  -0.23821  -0.22465  -0.20545
 Alpha  occ. eigenvalues --   -0.18033
 Alpha virt. eigenvalues --   -0.10146  -0.07964  -0.03781  -0.02668  -0.02112
 Alpha virt. eigenvalues --   -0.01051  -0.00588   0.00774   0.01573   0.01879
 Alpha virt. eigenvalues --    0.02740   0.03521   0.03919   0.04154   0.04271

 Mulliken charges:
               1
     1  C    0.014572
     2  C   -0.025957
     3  C   -0.107361
     4  C   -0.077389
     5  N   -0.119832
     6  C   -0.044891
     7  C   -0.012800
     8  C    0.004143
     9  C    0.072133
    10  C    0.050484
    11  C    0.086713
    12  C    0.006901
    13  C    0.194302
    14  O   -0.260111
    15  O   -0.284794
    16  N   -0.060363
    17  C    0.008663
    18  C   -0.077444
    19  C   -0.020271
    20  C    0.145886
    21  C    0.032541
    22  C   -0.097090
    23  C   -0.016491
    24  N   -0.158156
    25  C   -0.018248
    26  C   -0.111379
    27  C   -0.106561
    28  C   -0.017569
    29  C   -0.003914
    30  C    0.041331
    31  C    0.041702
    32  N   -0.052750
    33  C    0.063087
    34  C   -0.106393
    35  C    0.067648
    36  C    0.100437
    37  C    0.012068
    38  C    0.000537
    39  O   -0.180594
    40  C   -0.024527
    41  C    0.177680
    42  O   -0.197300
    43  O   -0.243294
    44  C    0.271891
    45  C    0.259627
    46  C   -0.145812
    47  C   -0.103473
    48  C    0.017290
    49  C    0.029508
    50  C   -0.079823
    51  C    0.038167
    52  C   -0.016022
    53  C   -0.138385
    54  C   -0.013671
    55  C    0.085145
    56  C   -0.022857
    57  C    0.051869
    58  C   -0.075213
    59  C   -0.056064
    60  C    0.039158
    61  C    0.055313
    62  C   -0.012768
    63  C    0.041476
    64  C   -0.028084
    65  H   -0.070450
    66  H    0.010699
    67  H    0.038195
    68  H    0.008905
    69  H   -0.003083
    70  H    0.001050
    71  H    0.023553
    72  H    0.033878
    73  H   -0.064607
    74  H   -0.020945
    75  H    0.058348
    76  H    0.035874
    77  H    0.040100
    78  H    0.007248
    79  H    0.031830
    80  H    0.056282
    81  H    0.040715
    82  H    0.015767
    83  H    0.051497
    84  H    0.025260
    85  H    0.017747
    86  H    0.007474
    87  H    0.007975
    88  H   -0.014475
    89  H    0.020057
    90  H    0.002411
    91  H    0.023016
    92  H    0.046875
    93  H    0.045747
    94  H    0.033760
    95  H   -0.016568
    96  H   -0.022960
    97  H    0.043762
    98  H    0.045774
    99  H    0.013819
   100  H    0.027133
   101  H    0.009316
   102  H    0.065249
   103  H    0.043518
   104  H    0.013981
   105  H    0.016112
   106  H    0.007095
   107  H    0.010392
   108  H    0.002104
   109  H    0.003402
   110  H   -0.034119
   111  H    0.054121
   112  H    0.046569
   113  H    0.034977
   114  H    0.030630
   115  H    0.009792
   116  H   -0.019592
   117  H   -0.007358
   118  H   -0.008248
   119  H   -0.017375
   120  H   -0.058564
   121  H    0.026216
   122  H    0.033275
   123  H    0.019464
   124  H    0.024001
   125  H    0.011002
   126  H   -0.024055
   127  H    0.008499
   128  H   -0.015772
   129  H   -0.008905
   130  H   -0.033560
   131  H    0.005405
   132  H    0.008238
   133  H    0.001712
   134  H    0.009300
   135  H   -0.004441
   136  H   -0.008172
   137  H    0.170325
   138  H    0.081181
 Sum of Mulliken charges =  -0.00000

 Dipole moment (field-independent basis, Debye):
    X=              3.6330    Y=              2.6002    Z=              0.9311  Tot=              4.5636
 Quadrupole moment (field-independent basis, Debye-Ang):
   XX=           -354.1504   YY=           -388.3441   ZZ=           -397.0970
   XY=            -34.5564   XZ=             -4.9409   YZ=             -4.3816

 Normal termination of Gaussian 16 at Mon Aug 19 00:33:57 2019.
