 Gaussian 16, Revision A.03,
 Gaussian 16:  ES64L-G16RevA.03 25-Dec-2016

 --------------------------
 # td=(NStates=1) B3LYP/SVP
 --------------------------

 --
 TD
 --
 Symbolic Z-matrix:
 Charge =  0 Multiplicity = 1

                         Standard orientation:
 ---------------------------------------------------------------------
 Center     Atomic      Atomic             Coordinates (Angstroms)
 Number     Number       Type             X           Y           Z
 ---------------------------------------------------------------------
      1          6           0       -5.094534   -1.978021    0.422853
      2          6           0       -4.654382    2.716719    1.611445
      3          6           0       -9.189205    3.435287   -0.365356
      4          6           0       -9.838432   -1.379631   -1.092773
      5          7           0       -5.181963    0.425488    0.787672
      6          6           0       -4.491040   -0.745072    0.761020
      7          6           0       -3.089717   -0.673862    1.227986
      8          6           0       -3.074664    0.791610    1.866192
      9          6           0       -4.431163    1.358328    1.372720
     10          6           0       -3.033261    0.688080    3.362270
     11          6           0       -2.101449   -0.889879   -0.033285
     12          6           0       -0.649212   -0.958646    0.469779
     13          6           0        0.384631   -1.291472   -0.618743
     14          8           0        0.068554   -1.608566   -1.723304
     15          8           0        1.577657   -1.000529   -0.226006
     16          7           0       -6.946174    2.832477    0.516797
     17          6           0       -5.849028    3.463666    1.134113
     18          6           0       -6.050681    4.834364    1.171773
     19          6           0       -7.357412    4.974632    0.679528
     20          6           0       -7.897933    3.783416    0.228120
     21          6           0       -5.187814    5.824928    1.676166
     22          6           0       -8.046059    6.357937    0.411337
     23          6           0       -8.808036    6.819770   -0.615191
     24          7           0       -9.152919    0.972396   -0.658042
     25          6           0       -9.810383    2.224100   -0.606319
     26          6           0      -11.174502    2.100914   -1.001520
     27          6           0      -11.452857    0.732601   -1.325839
     28          6           0      -10.080360    0.024720   -1.074948
     29          6           0      -12.240193    3.148435   -0.975898
     30          6           0      -12.625056    0.086312   -1.709279
     31          6           0      -12.871672   -0.240143   -3.194702
     32          7           0       -7.529165   -1.319438   -0.213978
     33          6           0       -8.635454   -2.056552   -0.694208
     34          6           0       -8.263452   -3.402419   -0.751289
     35          6           0       -6.919692   -3.410926   -0.228291
     36          6           0       -6.522991   -2.027794    0.032606
     37          6           0       -9.134926   -4.566950   -1.115312
     38          6           0       -5.765031   -4.321601    0.073380
     39          8           0       -5.787491   -5.487718   -0.177462
     40          6           0       -4.556668   -3.384152    0.409465
     41          6           0       -3.986393   -3.797411    1.711154
     42          8           0       -4.185281   -3.168754    2.827955
     43          8           0       -3.228525   -4.892833    1.584270
     44          6           0       -2.584310   -5.526716    2.701017
     45          6           0        2.702705   -1.356370   -1.082198
     46          6           0        3.970846   -0.977850   -0.528681
     47          6           0        4.957886   -0.185854   -0.984162
     48          6           0        4.894687    0.519394   -2.300885
     49          6           0        6.223097   -0.010076   -0.232949
     50          6           0        7.444846   -0.447215   -0.956600
     51          6           0        8.729370   -0.326940    0.008738
     52          6           0       10.089603   -0.891515   -0.554266
     53          6           0       10.035640   -2.474512   -0.607371
     54          6           0       11.292915   -0.419864    0.191936
     55          6           0       12.649637   -0.625273   -0.470855
     56          6           0       13.810061   -0.014398    0.256843
     57          6           0       15.181714   -0.240028   -0.288005
     58          6           0       15.687426   -1.596581   -0.135585
     59          6           0       16.248874    0.908031    0.154406
     60          6           0       17.698653    0.746875   -0.280140
     61          6           0       18.517016    1.964865    0.303469
     62          6           0       20.062040    1.849497   -0.034597
     63          6           0       20.311403    2.153853   -1.590128
     64          6           0       20.812413    2.866702    0.907105
     65          1           0       -3.891606    3.254542    2.220966
     66          1           0       -9.662716    4.411868   -0.470586
     67          1           0      -10.838522   -1.996887   -1.563066
     68          1           0       -2.922564   -1.509424    2.140414
     69          1           0       -2.267528    1.389856    1.630911
     70          1           0       -2.194080    0.244599    3.887191
     71          1           0       -2.799319    1.775199    3.809564
     72          1           0       -3.764438    0.051792    3.717195
     73          1           0       -2.334494   -1.915104   -0.412518
     74          1           0       -2.506265   -0.160037   -0.676439
     75          1           0       -0.205150   -0.073067    1.002570
     76          1           0       -0.450065   -1.739003    1.301612
     77          1           0       -4.083548    5.793311    1.259787
     78          1           0       -5.734526    6.910421    1.304305
     79          1           0       -5.049548    5.936101    2.808639
     80          1           0       -7.748096    7.081467    1.218782
     81          1           0       -8.978978    6.258921   -1.613852
     82          1           0       -9.230545    7.810474   -0.494844
     83          1           0      -12.227605    3.640900   -0.064479
     84          1           0      -12.240833    3.761466   -2.005423
     85          1           0      -13.242304    2.548408   -1.074381
     86          1           0      -12.358004   -0.882233   -1.147024
     87          1           0      -13.342796    0.750810   -1.145254
     88          1           0      -12.932882    0.705651   -3.800953
     89          1           0      -11.903394   -0.727539   -3.636823
     90          1           0      -13.574532   -0.787232   -3.336610
     91          1           0      -10.035579   -4.556630   -0.594150
     92          1           0       -9.171257   -4.462232   -2.261079
     93          1           0       -8.607557   -5.543096   -0.650635
     94          1           0       -3.885108   -3.544572   -0.404158
     95          1           0       -1.886657   -6.394287    2.269802
     96          1           0       -1.804632   -4.833344    3.057742
     97          1           0       -3.306929   -6.020882    3.504484
     98          1           0        2.767983   -2.464115   -1.357240
     99          1           0        2.178144   -0.616810   -1.937645
    100          1           0        4.032996   -1.699878    0.414204
    101          1           0        5.265129    1.435292   -2.107911
    102          1           0        5.340353   -0.050371   -2.943905
    103          1           0        4.004719    0.502307   -2.776881
    104          1           0        6.347273    1.147283   -0.201922
    105          1           0        6.064937   -0.458686    0.841752
    106          1           0        7.561227   -1.542997   -1.292496
    107          1           0        7.642942    0.215135   -1.796697
    108          1           0        8.950533    0.755025    0.147621
    109          1           0        8.714794   -0.812779    1.026581
    110          1           0       10.019394   -0.502257   -1.678200
    111          1           0        9.053221   -2.786884   -1.164711
    112          1           0       11.082971   -2.629372   -1.134104
    113          1           0       10.144441   -2.903238    0.466286
    114          1           0       11.227481    0.684201    0.052049
    115          1           0       11.154093   -0.678008    1.304812
    116          1           0       12.941585   -1.708001   -0.620760
    117          1           0       12.544935   -0.097789   -1.421550
    118          1           0       13.584788    1.109609    0.449835
    119          1           0       13.742852   -0.547278    1.219256
    120          1           0       15.063646   -0.145392   -1.478919
    121          1           0       14.958156   -2.380550   -0.467617
    122          1           0       16.638789   -1.478669   -1.072329
    123          1           0       16.321487   -1.803272    0.955042
    124          1           0       15.858360    1.888827   -0.092919
    125          1           0       16.278260    0.891000    1.403982
    126          1           0       18.181286   -0.152784    0.154763
    127          1           0       17.776687    0.669022   -1.516262
    128          1           0       17.900231    2.958383    0.090170
    129          1           0       18.286172    1.868243    1.359547
    130          1           0       20.621329    0.953245    0.215574
    131          1           0       19.842232    3.043953   -2.207388
    132          1           0       21.468497    2.296787   -1.530890
    133          1           0       19.957289    1.131555   -2.190852
    134          1           0       20.654985    2.451308    1.898030
    135          1           0       22.001715    2.871818    0.856468
    136          1           0       20.352791    3.843805    0.789083
    137          1           0       -6.952067    1.874234    0.406625
    138          1           0       -7.707324   -0.365263   -0.329212
 ---------------------------------------------------------------------

 SCF Done:  E(RB3LYP) =  -2732.99881183     A.U. after   18 cycles

 Excitation energies and oscillator strengths:

 Excited State   1:      Singlet-A      1.9569 eV  633.57 nm  f=0.1706  <S**2>=0.000
     235 -> 237       -0.30391
     235 -> 238        0.20492
     236 -> 237        0.58164
     236 -> 238        0.14310
 This state for optimization and/or second-order correction.
 Total Energy, E(TD-HF/TD-DFT) =  -2732.92689666
 Copying the excited state density for this state as the 1-particle RhoCI density.

 The electronic state is 1-A.
 Alpha  occ. eigenvalues --  -19.19295 -19.17470 -19.12624 -19.12160 -19.10992
 Alpha  occ. eigenvalues --  -14.36706 -14.35560 -14.31894 -14.30164 -10.32698
 Alpha  occ. eigenvalues --  -10.30190 -10.28186 -10.27155 -10.26016 -10.23524
 Alpha  occ. eigenvalues --  -10.23486 -10.23202 -10.23109 -10.22589 -10.22574
 Alpha  occ. eigenvalues --  -10.22196 -10.22084 -10.21896 -10.21491 -10.21468
 Alpha  occ. eigenvalues --  -10.21307 -10.21260 -10.21255 -10.20746 -10.20638
 Alpha  occ. eigenvalues --  -10.20571 -10.20540 -10.20468 -10.20415 -10.20379
 Alpha  occ. eigenvalues --  -10.20254 -10.20222 -10.20213 -10.20177 -10.20057
 Alpha  occ. eigenvalues --  -10.19956 -10.19945 -10.19871 -10.19832 -10.19820
 Alpha  occ. eigenvalues --  -10.19819 -10.19708 -10.19688 -10.19491 -10.19440
 Alpha  occ. eigenvalues --  -10.19324 -10.19238 -10.19057 -10.19043 -10.18934
 Alpha  occ. eigenvalues --  -10.18840 -10.18767 -10.18621 -10.18437 -10.18409
 Alpha  occ. eigenvalues --  -10.18194 -10.18109 -10.17657 -10.16582  -1.10925
 Alpha  occ. eigenvalues --   -1.09254  -1.04198  -1.00843  -1.00411  -0.97432
 Alpha  occ. eigenvalues --   -0.97400  -0.94214  -0.90986  -0.84381  -0.83965
 Alpha  occ. eigenvalues --   -0.82576  -0.81623  -0.80870  -0.80627  -0.80558
 Alpha  occ. eigenvalues --   -0.79730  -0.79522  -0.79099  -0.78495  -0.78073
 Alpha  occ. eigenvalues --   -0.77082  -0.76190  -0.75826  -0.74840  -0.74390
 Alpha  occ. eigenvalues --   -0.74120  -0.73202  -0.72541  -0.72355  -0.70670
 Alpha  occ. eigenvalues --   -0.70213  -0.69610  -0.69200  -0.68367  -0.67563
 Alpha  occ. eigenvalues --   -0.66391  -0.66031  -0.65953  -0.65315  -0.65157
 Alpha  occ. eigenvalues --   -0.64030  -0.63454  -0.62604  -0.62003  -0.61223
 Alpha  occ. eigenvalues --   -0.60588  -0.58778  -0.57777  -0.57622  -0.57091
 Alpha  occ. eigenvalues --   -0.56530  -0.56012  -0.55532  -0.55278  -0.54790
 Alpha  occ. eigenvalues --   -0.54096  -0.54028  -0.53467  -0.53044  -0.52608
 Alpha  occ. eigenvalues --   -0.52343  -0.51748  -0.51487  -0.50694  -0.50547
 Alpha  occ. eigenvalues --   -0.50176  -0.49381  -0.49316  -0.48927  -0.48708
 Alpha  occ. eigenvalues --   -0.47900  -0.47567  -0.47344  -0.46988  -0.46792
 Alpha  occ. eigenvalues --   -0.46751  -0.46463  -0.46196  -0.46067  -0.45665
 Alpha  occ. eigenvalues --   -0.45585  -0.45505  -0.45470  -0.45307  -0.44635
 Alpha  occ. eigenvalues --   -0.44376  -0.44116  -0.43820  -0.43757  -0.43551
 Alpha  occ. eigenvalues --   -0.43388  -0.43305  -0.43132  -0.43076  -0.42895
 Alpha  occ. eigenvalues --   -0.42767  -0.42541  -0.42022  -0.41765  -0.41629
 Alpha  occ. eigenvalues --   -0.41284  -0.41088  -0.40888  -0.40740  -0.40583
 Alpha  occ. eigenvalues --   -0.39882  -0.39644  -0.39423  -0.39350  -0.39223
 Alpha  occ. eigenvalues --   -0.39043  -0.38823  -0.38773  -0.38477  -0.38422
 Alpha  occ. eigenvalues --   -0.38376  -0.38230  -0.37819  -0.37732  -0.37573
 Alpha  occ. eigenvalues --   -0.37356  -0.37212  -0.36908  -0.36769  -0.36404
 Alpha  occ. eigenvalues --   -0.36257  -0.36197  -0.35701  -0.35602  -0.35353
 Alpha  occ. eigenvalues --   -0.35197  -0.34852  -0.34714  -0.34622  -0.34377
 Alpha  occ. eigenvalues --   -0.34312  -0.34174  -0.34164  -0.33746  -0.33682
 Alpha  occ. eigenvalues --   -0.33165  -0.33053  -0.32942  -0.32749  -0.32522
 Alpha  occ. eigenvalues --   -0.32116  -0.31747  -0.31440  -0.31329  -0.30703
 Alpha  occ. eigenvalues --   -0.30215  -0.30126  -0.29759  -0.29459  -0.29437
 Alpha  occ. eigenvalues --   -0.29284  -0.29038  -0.28362  -0.27412  -0.27296
 Alpha  occ. eigenvalues --   -0.26975  -0.26389  -0.26186  -0.25862  -0.25674
 Alpha  occ. eigenvalues --   -0.25124  -0.24945  -0.23829  -0.21526  -0.19501
 Alpha  occ. eigenvalues --   -0.18732
 Alpha virt. eigenvalues --   -0.10928  -0.07141  -0.03940  -0.02142  -0.01316
 Alpha virt. eigenvalues --   -0.00243   0.00259   0.01790   0.02569   0.03077
 Alpha virt. eigenvalues --    0.03512   0.03917   0.04068   0.04345   0.04767

 Mulliken charges:
               1
     1  C   -0.031128
     2  C   -0.076654
     3  C   -0.034264
     4  C   -0.088297
     5  N   -0.138322
     6  C   -0.051751
     7  C   -0.175990
     8  C    0.020445
     9  C    0.031520
    10  C    0.056090
    11  C    0.139052
    12  C    0.001727
    13  C    0.141042
    14  O   -0.230697
    15  O   -0.281726
    16  N   -0.045255
    17  C    0.075545
    18  C   -0.044766
    19  C    0.000598
    20  C    0.001449
    21  C   -0.040552
    22  C   -0.064080
    23  C   -0.033318
    24  N   -0.283717
    25  C    0.136304
    26  C   -0.155179
    27  C   -0.055736
    28  C    0.012070
    29  C    0.095078
    30  C   -0.044936
    31  C    0.146370
    32  N    0.110166
    33  C    0.033575
    34  C   -0.149254
    35  C   -0.080462
    36  C    0.041970
    37  C    0.084351
    38  C    0.056242
    39  O   -0.140395
    40  C    0.045864
    41  C    0.230977
    42  O   -0.304776
    43  O   -0.283103
    44  C    0.132234
    45  C    0.164276
    46  C   -0.113108
    47  C   -0.162092
    48  C    0.302769
    49  C    0.064450
    50  C    0.011781
    51  C   -0.001125
    52  C   -0.144971
    53  C   -0.028345
    54  C    0.043337
    55  C    0.019425
    56  C    0.047518
    57  C   -0.055144
    58  C   -0.080106
    59  C   -0.011866
    60  C   -0.016822
    61  C    0.005826
    62  C   -0.057780
    63  C   -0.069960
    64  C   -0.000229
    65  H   -0.011450
    66  H   -0.035143
    67  H    0.043398
    68  H    0.069231
    69  H   -0.040819
    70  H   -0.009308
    71  H    0.007634
    72  H    0.011544
    73  H    0.014194
    74  H    0.006486
    75  H    0.024689
    76  H    0.026472
    77  H    0.043975
    78  H    0.034388
    79  H    0.047342
    80  H    0.021156
    81  H    0.053351
    82  H    0.026183
    83  H    0.020158
    84  H    0.041524
    85  H    0.001164
    86  H    0.017702
    87  H    0.019752
    88  H    0.012837
    89  H    0.013839
    90  H   -0.059047
    91  H    0.016216
    92  H    0.056015
    93  H    0.057348
    94  H    0.056379
    95  H    0.046560
    96  H    0.036132
    97  H    0.076203
    98  H    0.051789
    99  H    0.047412
   100  H    0.005328
   101  H   -0.012889
   102  H   -0.030584
   103  H   -0.049779
   104  H    0.013277
   105  H    0.024892
   106  H    0.011284
   107  H    0.006205
   108  H   -0.013599
   109  H   -0.001291
   110  H   -0.007332
   111  H    0.038460
   112  H    0.030706
   113  H    0.019601
   114  H   -0.010738
   115  H    0.009656
   116  H    0.003757
   117  H   -0.012379
   118  H   -0.004348
   119  H   -0.019714
   120  H   -0.004068
   121  H    0.036458
   122  H    0.029099
   123  H    0.039666
   124  H   -0.001423
   125  H    0.005698
   126  H    0.011208
   127  H    0.023852
   128  H    0.012092
   129  H   -0.019869
   130  H    0.004238
   131  H    0.039905
   132  H    0.024150
   133  H    0.033992
   134  H    0.003237
   135  H    0.019492
   136  H    0.016019
   137  H    0.101272
   138  H    0.103018
 Sum of Mulliken charges =  -0.00000

 Dipole moment (field-independent basis, Debye):
    X=              3.6052    Y=              2.4313    Z=              0.6484  Tot=              4.3965
 Quadrupole moment (field-independent basis, Debye-Ang):
   XX=           -351.7097   YY=           -382.2661   ZZ=           -396.9927
   XY=            -13.5194   XZ=             17.9441   YZ=             -6.0391

 Normal termination of Gaussian 16 at Wed Aug 21 13:05:00 2019.
