 Gaussian 16, Revision A.03,
 Gaussian 16:  ES64L-G16RevA.03 25-Dec-2016

 --------------------------
 # td=(NStates=1) B3LYP/SVP
 --------------------------

 --
 TD
 --
 Symbolic Z-matrix:
 Charge =  0 Multiplicity = 1

                         Standard orientation:
 ---------------------------------------------------------------------
 Center     Atomic      Atomic             Coordinates (Angstroms)
 Number     Number       Type             X           Y           Z
 ---------------------------------------------------------------------
      1          6           0       -5.176724   -1.952333    0.529137
      2          6           0       -4.577669    2.741980    1.428927
      3          6           0       -9.078091    3.490207   -0.168169
      4          6           0       -9.890970   -1.251652   -0.968508
      5          7           0       -5.211429    0.420943    0.940036
      6          6           0       -4.576992   -0.857708    0.908804
      7          6           0       -3.066799   -0.743093    1.233035
      8          6           0       -2.991727    0.633018    1.872483
      9          6           0       -4.344646    1.378350    1.409393
     10          6           0       -3.008622    0.596691    3.442538
     11          6           0       -2.034133   -0.932079    0.101524
     12          6           0       -0.689848   -1.072514    0.604869
     13          6           0        0.434998   -1.290179   -0.547914
     14          8           0        0.029431   -1.696534   -1.666328
     15          8           0        1.641446   -0.997959   -0.196018
     16          7           0       -6.834914    2.867818    0.540980
     17          6           0       -5.683348    3.439179    1.067637
     18          6           0       -5.962375    4.822865    1.155622
     19          6           0       -7.285423    5.095651    0.595634
     20          6           0       -7.751549    3.821611    0.247786
     21          6           0       -4.795542    5.821877    1.491206
     22          6           0       -7.813776    6.450673    0.405111
     23          6           0       -8.613941    6.764268   -0.745410
     24          7           0       -9.126050    0.983515   -0.475173
     25          6           0       -9.620731    2.309939   -0.598065
     26          6           0      -11.126288    2.189988   -0.979587
     27          6           0      -11.404156    0.814220   -1.167961
     28          6           0      -10.120461    0.100655   -0.888041
     29          6           0      -12.071370    3.406274   -1.126614
     30          6           0      -12.644002    0.103512   -1.642863
     31          6           0      -12.629675   -0.512601   -3.171470
     32          7           0       -7.600703   -1.244351   -0.026815
     33          6           0       -8.668476   -1.901098   -0.661939
     34          6           0       -8.321982   -3.379780   -0.780090
     35          6           0       -7.013528   -3.366368   -0.241143
     36          6           0       -6.516747   -1.986267    0.183592
     37          6           0       -9.467501   -4.293100   -1.086009
     38          6           0       -5.911583   -4.222332   -0.037294
     39          8           0       -5.935559   -5.494821   -0.285476
     40          6           0       -4.764603   -3.435206    0.441476
     41          6           0       -4.089497   -3.913262    1.687084
     42          8           0       -4.122202   -3.545653    2.830429
     43          8           0       -3.396818   -5.056312    1.386445
     44          6           0       -2.846146   -5.694965    2.647537
     45          6           0        2.742801   -1.310347   -1.084401
     46          6           0        3.980274   -0.957138   -0.423416
     47          6           0        4.839711   -0.067605   -0.985271
     48          6           0        4.777981    0.653301   -2.263743
     49          6           0        6.217619    0.194096   -0.373744
     50          6           0        7.418923   -0.435492   -1.035828
     51          6           0        8.712725   -0.276083   -0.221659
     52          6           0       10.000708   -0.805480   -0.884069
     53          6           0       10.025916   -2.232080   -1.100578
     54          6           0       11.285423   -0.286013   -0.163047
     55          6           0       12.666692   -0.692251   -0.790091
     56          6           0       13.795043   -0.093950    0.152087
     57          6           0       15.284630   -0.348586   -0.366247
     58          6           0       15.670204   -1.861605   -0.413835
     59          6           0       16.297247    0.557639    0.492864
     60          6           0       17.627448    0.734249   -0.179212
     61          6           0       18.528365    1.757970    0.646594
     62          6           0       20.021903    1.826879    0.182584
     63          6           0       20.094053    2.283047   -1.287378
     64          6           0       20.832312    2.784950    1.128389
     65          1           0       -3.633660    3.347877    1.735608
     66          1           0       -9.836356    4.400398   -0.255763
     67          1           0      -10.677682   -1.961095   -1.207830
     68          1           0       -2.944336   -1.408728    2.159152
     69          1           0       -2.159095    1.319027    1.847295
     70          1           0       -2.027660    0.429586    3.979039
     71          1           0       -3.368461    1.572209    3.696264
     72          1           0       -3.815322   -0.110605    3.694781
     73          1           0       -2.355736   -1.777177   -0.511096
     74          1           0       -2.169162   -0.095726   -0.425315
     75          1           0       -0.370699   -0.027310    1.079167
     76          1           0       -0.312845   -1.794319    1.395608
     77          1           0       -3.830505    5.911064    0.796242
     78          1           0       -5.280416    6.765765    1.585452
     79          1           0       -4.305588    5.532277    2.460860
     80          1           0       -7.441585    7.260206    1.122005
     81          1           0       -8.990151    6.197250   -1.585499
     82          1           0       -9.009149    7.721142   -0.815094
     83          1           0      -12.439465    3.880218   -0.163313
     84          1           0      -11.428524    4.204062   -1.778906
     85          1           0      -12.943722    3.206411   -1.754169
     86          1           0      -12.848081   -0.509890   -0.891545
     87          1           0      -13.657155    0.623228   -1.525384
     88          1           0      -12.172671    0.432169   -4.008602
     89          1           0      -11.889859   -1.427178   -3.287931
     90          1           0      -13.607206   -0.856454   -3.485250
     91          1           0      -10.189230   -4.205689   -0.460117
     92          1           0      -10.009649   -3.869779   -2.188673
     93          1           0       -9.019651   -5.508668   -1.281105
     94          1           0       -4.119128   -3.584413   -0.463325
     95          1           0       -2.375964   -6.539997    2.280550
     96          1           0       -1.891808   -4.892541    3.071462
     97          1           0       -3.574254   -5.791510    3.548839
     98          1           0        2.468346   -2.389541   -1.364591
     99          1           0        2.352865   -0.556984   -1.917461
    100          1           0        4.476739   -1.480630    0.580901
    101          1           0        4.921042    1.597308   -2.066043
    102          1           0        5.657379    0.298386   -3.001172
    103          1           0        3.895563    0.437520   -2.844729
    104          1           0        6.393646    1.338160   -0.174647
    105          1           0        6.186889   -0.243239    0.754141
    106          1           0        7.262353   -1.495438   -1.346272
    107          1           0        7.701369    0.000631   -2.176665
    108          1           0        8.928513    0.874780   -0.018040
    109          1           0        8.726947   -0.838529    0.719240
    110          1           0        9.907346   -0.342314   -2.042512
    111          1           0        9.177289   -2.482948   -1.626161
    112          1           0       10.805547   -2.757517   -1.745385
    113          1           0       10.208080   -3.063154   -0.169669
    114          1           0       11.230363    0.942898    0.028153
    115          1           0       11.348344   -0.559696    0.841655
    116          1           0       12.727374   -1.636961   -0.902049
    117          1           0       12.732618   -0.253162   -1.803319
    118          1           0       13.559434    0.929655    0.366748
    119          1           0       13.765762   -0.516775    1.124324
    120          1           0       15.252543    0.014902   -1.328520
    121          1           0       15.029677   -2.213814   -1.204117
    122          1           0       16.868010   -1.901955   -0.590751
    123          1           0       15.262459   -2.458660    0.641426
    124          1           0       15.740526    1.564780    0.726060
    125          1           0       16.515734    0.237175    1.454248
    126          1           0       18.135397   -0.140192   -0.103511
    127          1           0       17.660702    1.271142   -0.965807
    128          1           0       18.080283    2.821515    0.654973
    129          1           0       18.375786    1.691231    1.739074
    130          1           0       20.331131    0.808902    0.305550
    131          1           0       19.700933    3.222990   -1.392315
    132          1           0       21.086140    2.152260   -1.637969
    133          1           0       19.510237    1.590750   -1.847892
    134          1           0       20.726737    2.492407    2.271755
    135          1           0       21.805116    2.747239    0.873073
    136          1           0       20.433275    3.768922    0.885378
    137          1           0       -6.845655    1.936293    0.404255
    138          1           0       -7.903100   -0.326933    0.095725
 ---------------------------------------------------------------------

 SCF Done:  E(RB3LYP) =  -2732.95545092     A.U. after   17 cycles

 Excitation energies and oscillator strengths:

 Excited State   1:      Singlet-A      1.9640 eV  631.28 nm  f=0.2463  <S**2>=0.000
     235 -> 237       -0.14899
     235 -> 238       -0.22430
     236 -> 237        0.64277
 This state for optimization and/or second-order correction.
 Total Energy, E(TD-HF/TD-DFT) =  -2732.88327448
 Copying the excited state density for this state as the 1-particle RhoCI density.

 The electronic state is 1-A.
 Alpha  occ. eigenvalues --  -19.18235 -19.17071 -19.12823 -19.11015 -19.10418
 Alpha  occ. eigenvalues --  -14.36967 -14.36138 -14.32519 -14.30701 -10.31579
 Alpha  occ. eigenvalues --  -10.31125 -10.26601 -10.26564 -10.25815 -10.24386
 Alpha  occ. eigenvalues --  -10.24076 -10.23809 -10.23164 -10.23025 -10.22951
 Alpha  occ. eigenvalues --  -10.22925 -10.22838 -10.22396 -10.22305 -10.22268
 Alpha  occ. eigenvalues --  -10.22044 -10.21985 -10.21404 -10.21374 -10.21111
 Alpha  occ. eigenvalues --  -10.21082 -10.20881 -10.20879 -10.20869 -10.20797
 Alpha  occ. eigenvalues --  -10.20750 -10.20735 -10.20623 -10.20400 -10.20386
 Alpha  occ. eigenvalues --  -10.20385 -10.20301 -10.20295 -10.19921 -10.19827
 Alpha  occ. eigenvalues --  -10.19792 -10.19792 -10.19753 -10.19730 -10.19693
 Alpha  occ. eigenvalues --  -10.19172 -10.19062 -10.18889 -10.18599 -10.18557
 Alpha  occ. eigenvalues --  -10.18099 -10.18087 -10.17827 -10.17779 -10.17600
 Alpha  occ. eigenvalues --  -10.17511 -10.17441 -10.16522 -10.15935  -1.10466
 Alpha  occ. eigenvalues --   -1.08678  -0.99293  -0.98837  -0.98622  -0.98191
 Alpha  occ. eigenvalues --   -0.97082  -0.92237  -0.91003  -0.86080  -0.83761
 Alpha  occ. eigenvalues --   -0.81950  -0.81782  -0.81125  -0.81046  -0.80939
 Alpha  occ. eigenvalues --   -0.79959  -0.79140  -0.79080  -0.78053  -0.77789
 Alpha  occ. eigenvalues --   -0.76903  -0.76230  -0.75476  -0.75080  -0.74252
 Alpha  occ. eigenvalues --   -0.73945  -0.73257  -0.72507  -0.72376  -0.70700
 Alpha  occ. eigenvalues --   -0.69923  -0.68967  -0.68827  -0.68279  -0.67922
 Alpha  occ. eigenvalues --   -0.67061  -0.66622  -0.66273  -0.65998  -0.65606
 Alpha  occ. eigenvalues --   -0.64178  -0.63739  -0.62785  -0.62567  -0.62122
 Alpha  occ. eigenvalues --   -0.61393  -0.59689  -0.59155  -0.58490  -0.58177
 Alpha  occ. eigenvalues --   -0.56843  -0.56236  -0.55787  -0.55542  -0.55439
 Alpha  occ. eigenvalues --   -0.55342  -0.55237  -0.54596  -0.54165  -0.53055
 Alpha  occ. eigenvalues --   -0.52479  -0.52418  -0.51852  -0.50920  -0.50862
 Alpha  occ. eigenvalues --   -0.50162  -0.48665  -0.48651  -0.48201  -0.48014
 Alpha  occ. eigenvalues --   -0.47854  -0.47498  -0.47174  -0.47135  -0.46972
 Alpha  occ. eigenvalues --   -0.46492  -0.46443  -0.46303  -0.46027  -0.45694
 Alpha  occ. eigenvalues --   -0.45642  -0.45356  -0.45012  -0.44619  -0.44521
 Alpha  occ. eigenvalues --   -0.44405  -0.44274  -0.44130  -0.44060  -0.43426
 Alpha  occ. eigenvalues --   -0.43300  -0.43141  -0.42872  -0.42577  -0.42459
 Alpha  occ. eigenvalues --   -0.42349  -0.41831  -0.41610  -0.41289  -0.41207
 Alpha  occ. eigenvalues --   -0.41063  -0.40832  -0.40481  -0.40253  -0.40096
 Alpha  occ. eigenvalues --   -0.40031  -0.39699  -0.39510  -0.39328  -0.39293
 Alpha  occ. eigenvalues --   -0.39144  -0.39024  -0.38882  -0.38404  -0.38232
 Alpha  occ. eigenvalues --   -0.38145  -0.37734  -0.37529  -0.37506  -0.37153
 Alpha  occ. eigenvalues --   -0.37094  -0.36987  -0.36742  -0.36357  -0.36246
 Alpha  occ. eigenvalues --   -0.36085  -0.35966  -0.35901  -0.35823  -0.35557
 Alpha  occ. eigenvalues --   -0.35340  -0.34980  -0.34887  -0.34832  -0.34808
 Alpha  occ. eigenvalues --   -0.34599  -0.34501  -0.34147  -0.34046  -0.33812
 Alpha  occ. eigenvalues --   -0.33487  -0.33324  -0.32648  -0.32593  -0.32440
 Alpha  occ. eigenvalues --   -0.32426  -0.32202  -0.32133  -0.31782  -0.31441
 Alpha  occ. eigenvalues --   -0.31309  -0.30772  -0.30366  -0.30306  -0.29739
 Alpha  occ. eigenvalues --   -0.29682  -0.29327  -0.28377  -0.27886  -0.27584
 Alpha  occ. eigenvalues --   -0.27466  -0.27114  -0.26540  -0.26313  -0.25574
 Alpha  occ. eigenvalues --   -0.25083  -0.23877  -0.23379  -0.22669  -0.20234
 Alpha  occ. eigenvalues --   -0.19051
 Alpha virt. eigenvalues --   -0.11208  -0.07645  -0.05207  -0.03308  -0.01872
 Alpha virt. eigenvalues --   -0.00633   0.00140   0.01049   0.01424   0.02770
 Alpha virt. eigenvalues --    0.02911   0.03842   0.04059   0.04332   0.04493

 Mulliken charges:
               1
     1  C    0.036030
     2  C   -0.071381
     3  C   -0.114415
     4  C   -0.044288
     5  N   -0.219680
     6  C   -0.148526
     7  C   -0.004149
     8  C   -0.114638
     9  C   -0.004503
    10  C    0.057616
    11  C    0.263359
    12  C   -0.050022
    13  C    0.158283
    14  O   -0.298923
    15  O   -0.269041
    16  N    0.009344
    17  C    0.116078
    18  C   -0.142655
    19  C    0.027641
    20  C    0.086867
    21  C    0.057246
    22  C   -0.059556
    23  C   -0.026768
    24  N   -0.303638
    25  C    0.097137
    26  C   -0.141753
    27  C   -0.058255
    28  C    0.092400
    29  C    0.028855
    30  C    0.109725
    31  C   -0.080388
    32  N    0.033407
    33  C   -0.035102
    34  C   -0.058757
    35  C   -0.021664
    36  C    0.129068
    37  C    0.040509
    38  C    0.013134
    39  O   -0.253529
    40  C    0.075136
    41  C    0.218837
    42  O   -0.213409
    43  O   -0.326079
    44  C    0.136839
    45  C    0.203418
    46  C   -0.047218
    47  C   -0.172262
    48  C    0.160900
    49  C   -0.001368
    50  C   -0.023529
    51  C    0.020435
    52  C   -0.061867
    53  C    0.009392
    54  C   -0.006782
    55  C    0.135217
    56  C    0.012641
    57  C   -0.006411
    58  C   -0.033604
    59  C    0.008403
    60  C    0.203652
    61  C   -0.084061
    62  C   -0.099089
    63  C    0.108410
    64  C    0.069968
    65  H    0.001911
    66  H    0.022121
    67  H   -0.022801
    68  H    0.027048
    69  H   -0.024061
    70  H    0.031663
    71  H   -0.013461
    72  H    0.021751
    73  H    0.006943
    74  H   -0.037739
    75  H    0.025476
    76  H    0.038635
    77  H    0.049825
    78  H   -0.001742
    79  H    0.024857
    80  H    0.041911
    81  H    0.038231
    82  H    0.006332
    83  H    0.047772
    84  H    0.035914
    85  H    0.017479
    86  H   -0.031887
    87  H   -0.008224
    88  H    0.045804
    89  H    0.037002
    90  H    0.029173
    91  H    0.000203
    92  H    0.046884
    93  H    0.087719
    94  H    0.076191
    95  H    0.028451
    96  H    0.038622
    97  H    0.078730
    98  H    0.046825
    99  H    0.055860
   100  H    0.035849
   101  H   -0.023290
   102  H    0.041444
   103  H   -0.000983
   104  H    0.025234
   105  H    0.010591
   106  H    0.012396
   107  H    0.010328
   108  H    0.016921
   109  H    0.000439
   110  H    0.000389
   111  H   -0.024665
   112  H    0.012694
   113  H    0.010835
   114  H   -0.002359
   115  H   -0.025938
   116  H   -0.059365
   117  H   -0.007396
   118  H   -0.019900
   119  H   -0.025531
   120  H   -0.034834
   121  H    0.017208
   122  H    0.044097
   123  H    0.027851
   124  H   -0.010251
   125  H   -0.031736
   126  H   -0.025348
   127  H   -0.050176
   128  H   -0.025738
   129  H   -0.028445
   130  H   -0.017697
   131  H   -0.012299
   132  H   -0.005152
   133  H   -0.006411
   134  H    0.023577
   135  H   -0.023063
   136  H    0.002497
   137  H    0.081392
   138  H    0.094780
 Sum of Mulliken charges =  -0.00000

 Dipole moment (field-independent basis, Debye):
    X=              3.0057    Y=              4.7795    Z=              0.4040  Tot=              5.6605
 Quadrupole moment (field-independent basis, Debye-Ang):
   XX=           -326.7647   YY=           -390.0208   ZZ=           -397.8153
   XY=            -29.2341   XZ=              1.8767   YZ=             -5.4498

 Normal termination of Gaussian 16 at Sun Aug 18 06:12:40 2019.
