 Gaussian 16, Revision A.03,
 Gaussian 16:  ES64L-G16RevA.03 25-Dec-2016

 --------------------------
 # td=(NStates=1) B3LYP/SVP
 --------------------------

 --
 TD
 --
 Symbolic Z-matrix:
 Charge =  0 Multiplicity = 1

                         Standard orientation:
 ---------------------------------------------------------------------
 Center     Atomic      Atomic             Coordinates (Angstroms)
 Number     Number       Type             X           Y           Z
 ---------------------------------------------------------------------
      1          6           0       -5.101420   -1.955561    0.423387
      2          6           0       -4.750255    2.802002    1.505045
      3          6           0       -9.321945    3.326165   -0.283501
      4          6           0       -9.836800   -1.467015   -0.917489
      5          7           0       -5.235817    0.506898    0.899487
      6          6           0       -4.603934   -0.736420    0.912316
      7          6           0       -3.121967   -0.555416    1.424792
      8          6           0       -3.165450    0.864329    1.986073
      9          6           0       -4.390696    1.396980    1.403724
     10          6           0       -3.055631    0.745072    3.554101
     11          6           0       -2.080236   -0.708581    0.051509
     12          6           0       -0.682643   -0.751580    0.607237
     13          6           0        0.282073   -1.068099   -0.441985
     14          8           0        0.055486   -1.346958   -1.639948
     15          8           0        1.631109   -0.952718   -0.074139
     16          7           0       -7.047284    2.728639    0.663326
     17          6           0       -5.864654    3.467061    1.110276
     18          6           0       -6.115453    4.857047    1.036270
     19          6           0       -7.470415    4.971503    0.528647
     20          6           0       -7.944540    3.686392    0.238630
     21          6           0       -5.197038    5.917265    1.472160
     22          6           0       -8.002863    6.271994    0.133843
     23          6           0       -8.921047    6.742440   -0.720940
     24          7           0       -9.105742    0.878843   -0.586989
     25          6           0       -9.761196    2.083430   -0.423856
     26          6           0      -11.270638    1.948772   -0.897526
     27          6           0      -11.464788    0.661611   -1.196749
     28          6           0      -10.073719   -0.078236   -0.914323
     29          6           0      -12.199483    3.130227   -1.102008
     30          6           0      -12.621923    0.027585   -1.667462
     31          6           0      -12.600826   -0.536483   -3.155442
     32          7           0       -7.609396   -1.217048   -0.303272
     33          6           0       -8.629629   -2.002243   -0.611530
     34          6           0       -8.189494   -3.377906   -0.645877
     35          6           0       -6.852038   -3.309230   -0.328466
     36          6           0       -6.405332   -2.075002   -0.135836
     37          6           0       -9.124022   -4.562197   -0.970112
     38          6           0       -5.622640   -4.320890   -0.118183
     39          8           0       -5.617740   -5.532242   -0.408005
     40          6           0       -4.471295   -3.362072    0.442292
     41          6           0       -4.002788   -3.931414    1.698321
     42          8           0       -4.214639   -3.425328    2.797360
     43          8           0       -3.137163   -5.069351    1.528610
     44          6           0       -2.627126   -5.572999    2.737966
     45          6           0        2.663222   -1.101770   -1.198677
     46          6           0        3.969819   -0.771252   -0.611111
     47          6           0        4.996309   -0.102932   -1.086035
     48          6           0        5.008171    0.420118   -2.497938
     49          6           0        6.232029    0.084165   -0.281323
     50          6           0        7.549322   -0.329934   -0.993966
     51          6           0        8.741797   -0.242155   -0.122389
     52          6           0       10.035531   -0.815616   -0.719558
     53          6           0       10.061188   -2.391210   -0.801349
     54          6           0       11.283195   -0.295678    0.058344
     55          6           0       12.604929   -0.537934   -0.642396
     56          6           0       13.827259   -0.081534    0.259523
     57          6           0       15.260756   -0.177853   -0.487803
     58          6           0       15.751634   -1.653845   -0.568171
     59          6           0       16.207806    0.770798    0.300701
     60          6           0       17.676114    0.745855   -0.106827
     61          6           0       18.560830    1.695519    0.538633
     62          6           0       20.076684    1.731290    0.156903
     63          6           0       20.179155    2.202521   -1.289918
     64          6           0       20.863859    2.533816    1.105169
     65          1           0       -3.784747    3.379794    2.110768
     66          1           0      -10.108330    4.154892   -0.620561
     67          1           0      -10.630703   -2.124187   -1.417371
     68          1           0       -2.833810   -1.176497    2.200032
     69          1           0       -2.214475    1.425242    1.699967
     70          1           0       -2.143622    0.267638    3.792195
     71          1           0       -3.065147    1.774856    4.032240
     72          1           0       -4.107115    0.155022    3.703567
     73          1           0       -2.335427   -1.609505   -0.474255
     74          1           0       -2.581482    0.092113   -0.706931
     75          1           0       -0.324881    0.184458    0.984829
     76          1           0       -0.454176   -1.494774    1.534735
     77          1           0       -4.579917    6.223101    0.511269
     78          1           0       -5.728616    6.804591    2.055916
     79          1           0       -4.800563    5.625714    2.433778
     80          1           0       -7.360318    7.032321    0.555951
     81          1           0       -9.189975    5.965615   -1.439025
     82          1           0       -9.030653    7.836096   -0.831450
     83          1           0      -12.424898    3.753964   -0.221628
     84          1           0      -11.718421    3.857354   -1.562140
     85          1           0      -13.238287    2.776929   -1.589394
     86          1           0      -12.946241   -0.863001   -0.939273
     87          1           0      -13.613425    0.617380   -1.556801
     88          1           0      -12.637033    0.256170   -3.823006
     89          1           0      -11.787334   -1.379620   -3.368661
     90          1           0      -13.524983   -1.185409   -3.530292
     91          1           0      -10.160792   -4.512430   -0.587290
     92          1           0       -9.344450   -4.534513   -2.173198
     93          1           0       -8.293983   -5.455866   -0.738589
     94          1           0       -3.660737   -3.208455   -0.242207
     95          1           0       -2.054512   -6.545759    2.626385
     96          1           0       -2.167346   -4.716876    3.186895
     97          1           0       -3.406084   -5.810292    3.489201
     98          1           0        2.492988   -2.180601   -1.503916
     99          1           0        2.439260   -0.175536   -1.943287
    100          1           0        4.177955   -1.249759    0.364935
    101          1           0        5.578958    1.618261   -2.173831
    102          1           0        5.583916   -0.191366   -3.161076
    103          1           0        3.925376    0.475623   -3.024026
    104          1           0        6.032355    1.198426   -0.141322
    105          1           0        6.106095   -0.444175    0.591579
    106          1           0        7.331779   -1.493313   -1.227293
    107          1           0        7.814714    0.064796   -1.997102
    108          1           0        8.744452    0.766397    0.305250
    109          1           0        8.566704   -0.745386    0.731447
    110          1           0       10.135908   -0.219878   -1.773267
    111          1           0        9.220430   -2.582297   -1.266256
    112          1           0       10.979344   -2.778391   -1.189241
    113          1           0       10.297163   -2.641091    0.527751
    114          1           0       11.139216    0.695707    0.319934
    115          1           0       11.397991   -0.820468    1.074174
    116          1           0       12.732505   -1.547193   -1.086844
    117          1           0       12.538451    0.160643   -1.572347
    118          1           0       13.617601    0.895002    0.415637
    119          1           0       13.884317   -0.654705    1.066667
    120          1           0       15.089298    0.060563   -1.556946
    121          1           0       14.945229   -2.134939   -1.160185
    122          1           0       16.740850   -1.922567   -0.991941
    123          1           0       15.980086   -2.008504    0.360992
    124          1           0       15.830512    1.977255    0.107795
    125          1           0       15.976152    0.770288    1.546406
    126          1           0       18.137398   -0.277944    0.123732
    127          1           0       17.824179    0.893209   -1.370594
    128          1           0       18.171573    2.804683    0.473232
    129          1           0       18.495496    1.488090    1.709988
    130          1           0       20.466199    0.854645    0.334518
    131          1           0       19.742292    3.248300   -1.429195
    132          1           0       21.359852    2.508799   -1.490424
    133          1           0       19.738846    1.531443   -2.016914
    134          1           0       20.695284    2.138852    2.041948
    135          1           0       21.906571    2.223450    0.825463
    136          1           0       20.642509    3.601218    0.897638
    137          1           0       -7.147221    1.720803    0.691297
    138          1           0       -7.555405   -0.128349   -0.351609
 ---------------------------------------------------------------------

 SCF Done:  E(RB3LYP) =  -2732.93656954     A.U. after   18 cycles

 Excitation energies and oscillator strengths:

 Excited State   1:      Singlet-A      1.9047 eV  650.92 nm  f=0.2538  <S**2>=0.000
     235 -> 237        0.15400
     235 -> 238        0.22349
     236 -> 237        0.64715
     236 -> 238       -0.11565
 This state for optimization and/or second-order correction.
 Total Energy, E(TD-HF/TD-DFT) =  -2732.86657137
 Copying the excited state density for this state as the 1-particle RhoCI density.

 The electronic state is 1-A.
 Alpha  occ. eigenvalues --  -19.17748 -19.15894 -19.14732 -19.14176 -19.11671
 Alpha  occ. eigenvalues --  -14.36921 -14.35978 -14.33392 -14.31256 -10.33150
 Alpha  occ. eigenvalues --  -10.31250 -10.30695 -10.25952 -10.24558 -10.24061
 Alpha  occ. eigenvalues --  -10.23696 -10.23616 -10.23485 -10.23062 -10.23009
 Alpha  occ. eigenvalues --  -10.22862 -10.22545 -10.22381 -10.22078 -10.21924
 Alpha  occ. eigenvalues --  -10.21847 -10.21844 -10.21800 -10.21520 -10.21355
 Alpha  occ. eigenvalues --  -10.21297 -10.20964 -10.20767 -10.20608 -10.20552
 Alpha  occ. eigenvalues --  -10.20443 -10.20399 -10.20285 -10.20256 -10.20234
 Alpha  occ. eigenvalues --  -10.20034 -10.19929 -10.19746 -10.19726 -10.19634
 Alpha  occ. eigenvalues --  -10.19623 -10.19578 -10.19566 -10.19519 -10.19314
 Alpha  occ. eigenvalues --  -10.19287 -10.19213 -10.19008 -10.18881 -10.18855
 Alpha  occ. eigenvalues --  -10.18758 -10.18717 -10.17866 -10.17821 -10.17266
 Alpha  occ. eigenvalues --  -10.17213 -10.17166 -10.17016 -10.16921  -1.08125
 Alpha  occ. eigenvalues --   -1.05534  -1.02582  -1.00849  -0.97315  -0.96758
 Alpha  occ. eigenvalues --   -0.96447  -0.94760  -0.91579  -0.85877  -0.83749
 Alpha  occ. eigenvalues --   -0.82080  -0.81816  -0.81582  -0.81076  -0.80351
 Alpha  occ. eigenvalues --   -0.80202  -0.79816  -0.79522  -0.78495  -0.78307
 Alpha  occ. eigenvalues --   -0.77152  -0.76697  -0.76070  -0.75153  -0.74144
 Alpha  occ. eigenvalues --   -0.73448  -0.73052  -0.72587  -0.71591  -0.71169
 Alpha  occ. eigenvalues --   -0.69287  -0.68859  -0.68744  -0.68467  -0.67818
 Alpha  occ. eigenvalues --   -0.67613  -0.67308  -0.65941  -0.65466  -0.64958
 Alpha  occ. eigenvalues --   -0.63813  -0.63147  -0.62202  -0.61994  -0.61229
 Alpha  occ. eigenvalues --   -0.60815  -0.58856  -0.58781  -0.57770  -0.57501
 Alpha  occ. eigenvalues --   -0.56395  -0.55902  -0.55380  -0.55022  -0.54974
 Alpha  occ. eigenvalues --   -0.54690  -0.54190  -0.53934  -0.53418  -0.52995
 Alpha  occ. eigenvalues --   -0.52573  -0.51893  -0.51352  -0.51149  -0.49944
 Alpha  occ. eigenvalues --   -0.49325  -0.49219  -0.48961  -0.48744  -0.48570
 Alpha  occ. eigenvalues --   -0.48246  -0.47912  -0.47690  -0.47274  -0.47163
 Alpha  occ. eigenvalues --   -0.46908  -0.46862  -0.46392  -0.46322  -0.46191
 Alpha  occ. eigenvalues --   -0.45770  -0.45681  -0.45284  -0.45017  -0.44924
 Alpha  occ. eigenvalues --   -0.44622  -0.44397  -0.44006  -0.43852  -0.43816
 Alpha  occ. eigenvalues --   -0.43480  -0.43247  -0.43091  -0.42819  -0.42655
 Alpha  occ. eigenvalues --   -0.42284  -0.42224  -0.41671  -0.41592  -0.41378
 Alpha  occ. eigenvalues --   -0.41048  -0.41027  -0.40918  -0.40728  -0.40496
 Alpha  occ. eigenvalues --   -0.40424  -0.40143  -0.39944  -0.39582  -0.39451
 Alpha  occ. eigenvalues --   -0.39297  -0.39217  -0.38589  -0.38567  -0.38261
 Alpha  occ. eigenvalues --   -0.38251  -0.38110  -0.37720  -0.37614  -0.37480
 Alpha  occ. eigenvalues --   -0.37210  -0.37001  -0.36746  -0.36579  -0.36434
 Alpha  occ. eigenvalues --   -0.36132  -0.36105  -0.35789  -0.35723  -0.35554
 Alpha  occ. eigenvalues --   -0.35453  -0.35315  -0.35048  -0.34601  -0.34507
 Alpha  occ. eigenvalues --   -0.34277  -0.34149  -0.34050  -0.33780  -0.33630
 Alpha  occ. eigenvalues --   -0.33563  -0.33390  -0.32957  -0.32798  -0.32331
 Alpha  occ. eigenvalues --   -0.32271  -0.32206  -0.31810  -0.31462  -0.31243
 Alpha  occ. eigenvalues --   -0.30803  -0.30679  -0.30382  -0.29887  -0.29886
 Alpha  occ. eigenvalues --   -0.29312  -0.29213  -0.29103  -0.28619  -0.28557
 Alpha  occ. eigenvalues --   -0.28054  -0.27062  -0.26892  -0.26291  -0.25859
 Alpha  occ. eigenvalues --   -0.25276  -0.24927  -0.23637  -0.23274  -0.20250
 Alpha  occ. eigenvalues --   -0.18423
 Alpha virt. eigenvalues --   -0.11003  -0.07046  -0.05664  -0.02510  -0.01723
 Alpha virt. eigenvalues --   -0.01067  -0.00411   0.00400   0.01592   0.02942
 Alpha virt. eigenvalues --    0.03081   0.03317   0.03434   0.03896   0.04104

 Mulliken charges:
               1
     1  C   -0.052566
     2  C   -0.126730
     3  C   -0.139102
     4  C   -0.130073
     5  N   -0.151827
     6  C   -0.054255
     7  C   -0.026125
     8  C   -0.065763
     9  C   -0.043172
    10  C    0.034711
    11  C    0.019095
    12  C    0.070510
    13  C    0.183545
    14  O   -0.275421
    15  O   -0.397234
    16  N   -0.114445
    17  C    0.176078
    18  C   -0.126322
    19  C    0.023508
    20  C    0.079702
    21  C    0.060828
    22  C   -0.046997
    23  C   -0.022303
    24  N   -0.285790
    25  C    0.137853
    26  C   -0.159470
    27  C    0.000046
    28  C    0.064730
    29  C    0.151867
    30  C   -0.046496
    31  C   -0.030972
    32  N   -0.140716
    33  C    0.128386
    34  C   -0.161207
    35  C   -0.037968
    36  C    0.114450
    37  C    0.008825
    38  C    0.136170
    39  O   -0.171120
    40  C    0.053749
    41  C    0.234450
    42  O   -0.222894
    43  O   -0.343628
    44  C    0.205376
    45  C    0.277704
    46  C   -0.109640
    47  C   -0.168874
    48  C   -0.006086
    49  C    0.152982
    50  C   -0.054068
    51  C    0.136145
    52  C   -0.125374
    53  C    0.083086
    54  C    0.050390
    55  C   -0.023554
    56  C    0.138827
    57  C   -0.058530
    58  C    0.046067
    59  C   -0.066443
    60  C    0.027639
    61  C   -0.052278
    62  C   -0.006905
    63  C   -0.007815
    64  C    0.084295
    65  H    0.024949
    66  H    0.012887
    67  H    0.003910
    68  H   -0.027775
    69  H    0.000715
    70  H    0.017608
    71  H    0.020094
    72  H    0.057078
    73  H    0.010359
    74  H    0.056038
    75  H    0.026516
    76  H    0.069172
    77  H    0.076094
    78  H    0.032040
    79  H    0.018495
    80  H   -0.025163
    81  H    0.025785
    82  H    0.029895
    83  H    0.004343
    84  H   -0.022082
    85  H    0.038841
    86  H    0.020628
    87  H    0.010674
    88  H    0.009558
    89  H    0.033535
    90  H    0.011563
    91  H    0.039726
    92  H    0.040577
    93  H    0.084107
    94  H    0.060202
    95  H    0.050327
    96  H    0.002145
    97  H    0.012841
    98  H    0.051854
    99  H    0.053103
   100  H   -0.018146
   101  H    0.024361
   102  H    0.041937
   103  H    0.036635
   104  H    0.022383
   105  H   -0.030741
   106  H    0.010970
   107  H    0.007920
   108  H   -0.020748
   109  H   -0.063511
   110  H   -0.000496
   111  H   -0.019019
   112  H    0.017179
   113  H    0.021118
   114  H   -0.033634
   115  H   -0.016221
   116  H    0.000115
   117  H   -0.007134
   118  H   -0.030053
   119  H   -0.034247
   120  H   -0.005545
   121  H    0.015279
   122  H    0.006643
   123  H   -0.023805
   124  H    0.007431
   125  H    0.024428
   126  H    0.003437
   127  H    0.015520
   128  H   -0.006858
   129  H   -0.012019
   130  H   -0.064488
   131  H    0.008554
   132  H    0.007762
   133  H    0.026020
   134  H   -0.017330
   135  H    0.002277
   136  H    0.010763
   137  H    0.139170
   138  H    0.194609
 Sum of Mulliken charges =  -0.00000

 Dipole moment (field-independent basis, Debye):
    X=              3.1956    Y=              3.6178    Z=              1.4597  Tot=              5.0429
 Quadrupole moment (field-independent basis, Debye-Ang):
   XX=           -361.1725   YY=           -389.8146   ZZ=           -396.4933
   XY=            -28.3549   XZ=             12.0529   YZ=             -2.0772

 Normal termination of Gaussian 16 at Thu Aug 29 19:25:35 2019.
