 Gaussian 16, Revision A.03,
 Gaussian 16:  ES64L-G16RevA.03 25-Dec-2016

 --------------------------
 # td=(NStates=1) B3LYP/SVP
 --------------------------

 --
 TD
 --
 Symbolic Z-matrix:
 Charge =  0 Multiplicity = 1

                         Standard orientation:
 ---------------------------------------------------------------------
 Center     Atomic      Atomic             Coordinates (Angstroms)
 Number     Number       Type             X           Y           Z
 ---------------------------------------------------------------------
      1          6           0       -5.092973   -1.947315    0.439416
      2          6           0       -4.794890    2.775328    1.440492
      3          6           0       -9.323750    3.285782   -0.267996
      4          6           0       -9.829243   -1.461710   -0.972025
      5          7           0       -5.255011    0.549335    0.813046
      6          6           0       -4.520885   -0.688966    0.844496
      7          6           0       -3.050918   -0.539238    1.323569
      8          6           0       -2.991867    0.922757    1.769709
      9          6           0       -4.411805    1.487185    1.327958
     10          6           0       -2.945627    0.874042    3.412351
     11          6           0       -2.008188   -0.747645    0.200343
     12          6           0       -0.592871   -0.738843    0.632754
     13          6           0        0.308341   -1.026343   -0.467781
     14          8           0       -0.049581   -1.398359   -1.610316
     15          8           0        1.624323   -0.771873   -0.216694
     16          7           0       -7.124608    2.681147    0.525376
     17          6           0       -6.052225    3.370855    0.990804
     18          6           0       -6.306188    4.752860    1.008292
     19          6           0       -7.554280    4.988449    0.595899
     20          6           0       -8.147782    3.619486    0.216203
     21          6           0       -5.349730    5.734582    1.602610
     22          6           0       -8.183226    6.177860    0.337580
     23          6           0       -9.035137    6.395977   -0.654926
     24          7           0       -9.198875    0.871788   -0.427118
     25          6           0       -9.874988    2.072534   -0.511919
     26          6           0      -11.220383    1.852391   -0.912823
     27          6           0      -11.463623    0.505505   -1.145300
     28          6           0      -10.125762    0.015293   -0.822400
     29          6           0      -12.196432    2.994553   -1.164854
     30          6           0      -12.697803   -0.176714   -1.607764
     31          6           0      -12.580868   -0.612335   -3.099360
     32          7           0       -7.473411   -1.216279   -0.319582
     33          6           0       -8.559946   -1.892515   -0.755381
     34          6           0       -8.149078   -3.313653   -0.706209
     35          6           0       -6.903245   -3.414454   -0.290380
     36          6           0       -6.426973   -2.011256   -0.083744
     37          6           0       -8.971596   -4.486580   -1.012895
     38          6           0       -5.778509   -4.276973    0.048238
     39          8           0       -5.688530   -5.418750   -0.084991
     40          6           0       -4.535983   -3.356309    0.385876
     41          6           0       -3.947329   -3.812770    1.650702
     42          8           0       -4.157459   -3.239565    2.739260
     43          8           0       -3.259138   -4.908462    1.475249
     44          6           0       -2.656785   -5.500856    2.594772
     45          6           0        2.653035   -0.907220   -1.262990
     46          6           0        3.960579   -0.667623   -0.637599
     47          6           0        5.025857    0.038007   -1.112281
     48          6           0        5.023266    0.543384   -2.517855
     49          6           0        6.230703    0.211813   -0.270767
     50          6           0        7.539434   -0.274272   -0.952813
     51          6           0        8.784672   -0.121423   -0.038496
     52          6           0       10.064563   -0.668347   -0.617836
     53          6           0       10.012508   -2.267217   -0.811650
     54          6           0       11.380511   -0.256585    0.222302
     55          6           0       12.646989   -0.634265   -0.480992
     56          6           0       13.841606   -0.081071    0.310764
     57          6           0       15.218832   -0.257979   -0.270993
     58          6           0       15.733426   -1.806876   -0.286754
     59          6           0       16.263093    0.708149    0.303124
     60          6           0       17.695658    0.639136   -0.371838
     61          6           0       18.670570    1.691626    0.390340
     62          6           0       20.073217    1.642826    0.018833
     63          6           0       20.168040    2.284584   -1.388901
     64          6           0       21.056314    2.301687    1.018996
     65          1           0       -3.839392    3.429198    1.711070
     66          1           0      -10.066423    4.154005   -0.404562
     67          1           0      -10.484846   -2.158034   -1.171064
     68          1           0       -2.826670   -1.376239    2.050165
     69          1           0       -2.119919    1.492498    1.480958
     70          1           0       -1.917258    0.415606    3.573035
     71          1           0       -3.156025    1.910602    3.867145
     72          1           0       -3.729459    0.227915    3.961566
     73          1           0       -2.188772   -1.671387   -0.331150
     74          1           0       -2.089032    0.118927   -0.595293
     75          1           0       -0.183997    0.152988    1.206082
     76          1           0       -0.381508   -1.591045    1.401223
     77          1           0       -4.328374    6.057473    0.972257
     78          1           0       -5.768243    6.689585    1.806933
     79          1           0       -4.831453    5.455528    2.604065
     80          1           0       -8.028355    6.850468    1.136194
     81          1           0       -9.345593    5.764612   -1.403040
     82          1           0       -9.446863    7.438105   -1.172869
     83          1           0      -12.349003    3.662818   -0.240784
     84          1           0      -12.319534    3.539783   -2.051113
     85          1           0      -13.258590    2.438088   -1.376500
     86          1           0      -12.698945   -1.117961   -1.062087
     87          1           0      -13.584604    0.341243   -1.492460
     88          1           0      -12.499335    0.116647   -3.762150
     89          1           0      -11.725959   -1.365655   -3.202945
     90          1           0      -13.408089   -1.159012   -3.441388
     91          1           0       -9.882044   -4.419850   -0.447573
     92          1           0       -9.026383   -4.568006   -2.136654
     93          1           0       -8.427491   -5.537643   -0.919156
     94          1           0       -3.916092   -3.454700   -0.509412
     95          1           0       -2.048028   -6.419076    2.284045
     96          1           0       -2.043026   -4.877644    3.243985
     97          1           0       -3.239485   -6.001836    3.250052
     98          1           0        2.670017   -2.033387   -1.159905
     99          1           0        2.413978   -0.398981   -1.936003
    100          1           0        4.074530   -0.944136    0.479459
    101          1           0        5.362620    1.650165   -2.597247
    102          1           0        5.797590    0.141014   -3.297610
    103          1           0        4.117762    0.498574   -3.185238
    104          1           0        6.396495    1.236919   -0.133753
    105          1           0        6.114798   -0.399525    0.681042
    106          1           0        7.291745   -1.333332   -1.157083
    107          1           0        7.733319    0.216594   -1.917127
    108          1           0        9.036037    0.925093    0.197388
    109          1           0        8.750935   -0.602629    1.156349
    110          1           0       10.183179   -0.217517   -1.566789
    111          1           0        9.063336   -2.631897   -1.393788
    112          1           0       11.109772   -2.489493   -1.334824
    113          1           0       10.048687   -2.500934    0.225309
    114          1           0       11.390708    0.905781    0.386373
    115          1           0       11.372336   -0.844543    1.278022
    116          1           0       12.771785   -1.858277   -0.859408
    117          1           0       12.788028   -0.336237   -1.553436
    118          1           0       13.659137    1.209262    0.421912
    119          1           0       13.840097   -0.603546    1.260003
    120          1           0       15.352836   -0.057617   -1.215131
    121          1           0       15.088963   -2.223034   -1.087708
    122          1           0       16.790923   -1.913195   -0.459917
    123          1           0       15.491615   -2.153661    0.843058
    124          1           0       16.009369    1.849337    0.459915
    125          1           0       16.345473    0.555876    1.462082
    126          1           0       18.107573   -0.415555   -0.224245
    127          1           0       17.824760    1.146469   -1.413537
    128          1           0       18.288891    2.753821    0.427504
    129          1           0       18.607391    1.417183    1.561600
    130          1           0       20.216622    0.546988   -0.087556
    131          1           0       19.659572    3.301065   -1.376300
    132          1           0       21.211725    2.722729   -1.677878
    133          1           0       19.945021    1.603828   -2.151451
    134          1           0       20.930603    1.885315    2.084829
    135          1           0       21.982995    1.945967    0.642529
    136          1           0       21.031084    3.501078    1.101319
    137          1           0       -6.903313    1.671488    0.348890
    138          1           0       -7.625774   -0.206711   -0.155760
 ---------------------------------------------------------------------

 SCF Done:  E(RB3LYP) =  -2733.02000071     A.U. after   17 cycles

 Excitation energies and oscillator strengths:

 Excited State   1:      Singlet-A      2.0739 eV  597.82 nm  f=0.1287  <S**2>=0.000
     235 -> 238        0.31334
     236 -> 237        0.61491
     236 -> 238       -0.11214
 This state for optimization and/or second-order correction.
 Total Energy, E(TD-HF/TD-DFT) =  -2732.94378536
 Copying the excited state density for this state as the 1-particle RhoCI density.

 The electronic state is 1-A.
 Alpha  occ. eigenvalues --  -19.19772 -19.16549 -19.13227 -19.12163 -19.11285
 Alpha  occ. eigenvalues --  -14.36910 -14.36613 -14.32606 -14.29356 -10.32019
 Alpha  occ. eigenvalues --  -10.31243 -10.28309 -10.24559 -10.24103 -10.23934
 Alpha  occ. eigenvalues --  -10.23805 -10.23338 -10.22758 -10.22710 -10.22219
 Alpha  occ. eigenvalues --  -10.21280 -10.21270 -10.21161 -10.20949 -10.20820
 Alpha  occ. eigenvalues --  -10.20730 -10.20636 -10.20602 -10.20553 -10.20413
 Alpha  occ. eigenvalues --  -10.20298 -10.20083 -10.20073 -10.20002 -10.19985
 Alpha  occ. eigenvalues --  -10.19971 -10.19951 -10.19941 -10.19906 -10.19772
 Alpha  occ. eigenvalues --  -10.19685 -10.19407 -10.19389 -10.19350 -10.19350
 Alpha  occ. eigenvalues --  -10.19332 -10.19275 -10.19204 -10.19098 -10.19098
 Alpha  occ. eigenvalues --  -10.19050 -10.18971 -10.18970 -10.18934 -10.18723
 Alpha  occ. eigenvalues --  -10.18707 -10.18628 -10.18425 -10.18386 -10.18174
 Alpha  occ. eigenvalues --  -10.17729 -10.17680 -10.17555 -10.16859  -1.11837
 Alpha  occ. eigenvalues --   -1.07326  -1.07276  -0.99900  -0.99311  -0.97942
 Alpha  occ. eigenvalues --   -0.97103  -0.93770  -0.91989  -0.84750  -0.83351
 Alpha  occ. eigenvalues --   -0.83186  -0.81890  -0.81610  -0.81525  -0.80884
 Alpha  occ. eigenvalues --   -0.80638  -0.79779  -0.79295  -0.78552  -0.77982
 Alpha  occ. eigenvalues --   -0.77097  -0.76362  -0.76168  -0.74963  -0.74617
 Alpha  occ. eigenvalues --   -0.74301  -0.72590  -0.71913  -0.71139  -0.70282
 Alpha  occ. eigenvalues --   -0.69764  -0.69049  -0.68407  -0.67853  -0.67215
 Alpha  occ. eigenvalues --   -0.67009  -0.66010  -0.65670  -0.65523  -0.65304
 Alpha  occ. eigenvalues --   -0.64816  -0.63509  -0.62894  -0.62451  -0.62031
 Alpha  occ. eigenvalues --   -0.61108  -0.59410  -0.59246  -0.58304  -0.57974
 Alpha  occ. eigenvalues --   -0.57082  -0.56561  -0.56363  -0.55768  -0.55606
 Alpha  occ. eigenvalues --   -0.55107  -0.54789  -0.54672  -0.54314  -0.53658
 Alpha  occ. eigenvalues --   -0.52675  -0.52230  -0.51998  -0.51769  -0.50754
 Alpha  occ. eigenvalues --   -0.50637  -0.49612  -0.49126  -0.48872  -0.48738
 Alpha  occ. eigenvalues --   -0.48175  -0.47885  -0.47564  -0.47213  -0.47016
 Alpha  occ. eigenvalues --   -0.46719  -0.46518  -0.46210  -0.46056  -0.46032
 Alpha  occ. eigenvalues --   -0.45814  -0.45231  -0.45010  -0.44838  -0.44718
 Alpha  occ. eigenvalues --   -0.44564  -0.44244  -0.44080  -0.43807  -0.43631
 Alpha  occ. eigenvalues --   -0.43535  -0.43243  -0.43106  -0.42986  -0.42514
 Alpha  occ. eigenvalues --   -0.42311  -0.42183  -0.41948  -0.41748  -0.41689
 Alpha  occ. eigenvalues --   -0.41024  -0.40896  -0.40603  -0.40316  -0.39926
 Alpha  occ. eigenvalues --   -0.39690  -0.39519  -0.39386  -0.39225  -0.39158
 Alpha  occ. eigenvalues --   -0.38970  -0.38573  -0.38391  -0.38197  -0.37985
 Alpha  occ. eigenvalues --   -0.37916  -0.37775  -0.37692  -0.37386  -0.37315
 Alpha  occ. eigenvalues --   -0.37119  -0.36988  -0.36696  -0.36441  -0.36388
 Alpha  occ. eigenvalues --   -0.36339  -0.36062  -0.35990  -0.35725  -0.35654
 Alpha  occ. eigenvalues --   -0.35504  -0.35192  -0.35046  -0.34787  -0.34407
 Alpha  occ. eigenvalues --   -0.34350  -0.34039  -0.33998  -0.33673  -0.33550
 Alpha  occ. eigenvalues --   -0.33390  -0.33201  -0.32947  -0.32871  -0.32543
 Alpha  occ. eigenvalues --   -0.32204  -0.32065  -0.31741  -0.31450  -0.31323
 Alpha  occ. eigenvalues --   -0.30765  -0.30448  -0.30382  -0.30324  -0.29562
 Alpha  occ. eigenvalues --   -0.29317  -0.28871  -0.28201  -0.28139  -0.28066
 Alpha  occ. eigenvalues --   -0.27830  -0.27249  -0.26909  -0.26772  -0.25931
 Alpha  occ. eigenvalues --   -0.25420  -0.24131  -0.24095  -0.22095  -0.19556
 Alpha  occ. eigenvalues --   -0.18177
 Alpha virt. eigenvalues --   -0.09166  -0.07711  -0.03960  -0.01602  -0.00621
 Alpha virt. eigenvalues --   -0.00577  -0.00289   0.01405   0.02246   0.03150
 Alpha virt. eigenvalues --    0.03801   0.04149   0.04499   0.04698   0.04758

 Mulliken charges:
               1
     1  C   -0.023910
     2  C   -0.091785
     3  C   -0.145940
     4  C   -0.022167
     5  N   -0.257765
     6  C    0.014427
     7  C   -0.014335
     8  C   -0.017810
     9  C    0.033551
    10  C   -0.024848
    11  C    0.030224
    12  C    0.025766
    13  C    0.177816
    14  O   -0.285867
    15  O   -0.371992
    16  N   -0.080930
    17  C    0.069644
    18  C   -0.065237
    19  C    0.084495
    20  C    0.122574
    21  C    0.031846
    22  C   -0.017119
    23  C   -0.065491
    24  N   -0.224955
    25  C    0.084911
    26  C   -0.114362
    27  C   -0.099510
    28  C    0.041043
    29  C    0.037263
    30  C    0.148346
    31  C    0.051810
    32  N    0.012563
    33  C    0.096148
    34  C   -0.219403
    35  C    0.061201
    36  C    0.025300
    37  C    0.058250
    38  C    0.021678
    39  O   -0.091408
    40  C    0.002557
    41  C    0.195525
    42  O   -0.266637
    43  O   -0.235842
    44  C    0.221653
    45  C    0.564709
    46  C   -0.199031
    47  C   -0.094629
    48  C   -0.020210
    49  C    0.146888
    50  C   -0.017769
    51  C    0.014373
    52  C   -0.066913
    53  C   -0.023232
    54  C    0.000142
    55  C   -0.058383
    56  C    0.023499
    57  C    0.052980
    58  C   -0.024679
    59  C   -0.047698
    60  C   -0.005149
    61  C   -0.062133
    62  C   -0.065127
    63  C    0.011707
    64  C    0.025884
    65  H    0.005156
    66  H   -0.000464
    67  H   -0.106961
    68  H    0.029799
    69  H    0.004254
    70  H    0.023636
    71  H    0.022736
    72  H    0.048147
    73  H    0.009376
    74  H    0.023261
    75  H    0.039994
    76  H    0.034614
    77  H    0.029807
    78  H   -0.006885
    79  H    0.034701
    80  H   -0.002745
    81  H    0.003448
    82  H    0.039635
    83  H    0.036754
    84  H    0.012086
    85  H   -0.011882
    86  H   -0.006405
    87  H   -0.021078
    88  H   -0.022073
    89  H    0.009079
    90  H   -0.017160
    91  H    0.039284
    92  H    0.033688
    93  H    0.044124
    94  H    0.066623
    95  H    0.025487
    96  H    0.022871
    97  H   -0.006454
    98  H    0.025722
    99  H   -0.124649
   100  H    0.011966
   101  H    0.015101
   102  H    0.030317
   103  H    0.021917
   104  H   -0.014715
   105  H    0.011239
   106  H    0.007349
   107  H    0.007640
   108  H   -0.014135
   109  H   -0.001179
   110  H   -0.028136
   111  H    0.044431
   112  H    0.034417
   113  H    0.002772
   114  H    0.020862
   115  H    0.022758
   116  H    0.017283
   117  H   -0.008020
   118  H    0.022283
   119  H   -0.002863
   120  H   -0.063463
   121  H    0.027897
   122  H    0.013047
   123  H    0.023009
   124  H    0.000208
   125  H   -0.013400
   126  H    0.027712
   127  H    0.029083
   128  H   -0.004399
   129  H   -0.014825
   130  H   -0.013635
   131  H    0.007863
   132  H   -0.003663
   133  H    0.014419
   134  H    0.016268
   135  H    0.006346
   136  H    0.030663
   137  H    0.162401
   138  H    0.149150
 Sum of Mulliken charges =  -0.00000

 Dipole moment (field-independent basis, Debye):
    X=              3.3863    Y=              2.0071    Z=             -0.4012  Tot=              3.9568
 Quadrupole moment (field-independent basis, Debye-Ang):
   XX=           -358.2980   YY=           -377.8647   ZZ=           -394.0559
   XY=             -5.1260   XZ=              5.8537   YZ=             -5.1431

 Normal termination of Gaussian 16 at Sun Sep  1 07:05:08 2019.
