 Gaussian 16, Revision A.03,
 Gaussian 16:  ES64L-G16RevA.03 25-Dec-2016

 --------------------------
 # td=(NStates=1) B3LYP/SVP
 --------------------------

 --
 TD
 --
 Symbolic Z-matrix:
 Charge =  0 Multiplicity = 1

                         Standard orientation:
 ---------------------------------------------------------------------
 Center     Atomic      Atomic             Coordinates (Angstroms)
 Number     Number       Type             X           Y           Z
 ---------------------------------------------------------------------
      1          6           0       -5.093948   -1.998391    0.406529
      2          6           0       -4.682166    2.739592    1.339795
      3          6           0       -9.216228    3.411906   -0.233540
      4          6           0       -9.737507   -1.325583   -0.796206
      5          7           0       -5.131491    0.383749    0.791340
      6          6           0       -4.479732   -0.819360    0.842076
      7          6           0       -2.981601   -0.575483    1.247976
      8          6           0       -2.961186    0.929618    1.742843
      9          6           0       -4.314571    1.423523    1.238512
     10          6           0       -2.859640    1.077963    3.310381
     11          6           0       -2.089577   -0.810959    0.076495
     12          6           0       -0.711867   -0.960164    0.475310
     13          6           0        0.263930   -1.181290   -0.738048
     14          8           0        0.024136   -1.512038   -1.915099
     15          8           0        1.624111   -1.011010   -0.275392
     16          7           0       -6.902595    2.833624    0.459745
     17          6           0       -5.758897    3.453416    0.832394
     18          6           0       -6.065369    4.918587    0.834959
     19          6           0       -7.329163    5.044144    0.411138
     20          6           0       -7.924724    3.811090    0.080359
     21          6           0       -5.086206    5.849007    1.296016
     22          6           0       -7.968270    6.389994    0.286689
     23          6           0       -9.119826    6.695702   -0.576497
     24          7           0       -9.050295    0.957886   -0.585899
     25          6           0       -9.753802    2.105389   -0.444825
     26          6           0      -11.188068    2.024460   -0.905112
     27          6           0      -11.441564    0.687962   -0.997037
     28          6           0      -10.020710    0.014554   -0.774731
     29          6           0      -12.260800    3.033949   -0.947733
     30          6           0      -12.689345   -0.155058   -1.415572
     31          6           0      -12.691149   -0.521418   -2.986616
     32          7           0       -7.437922   -1.212510   -0.207079
     33          6           0       -8.497484   -1.951171   -0.593326
     34          6           0       -8.211724   -3.311083   -0.531744
     35          6           0       -6.841812   -3.412047   -0.133322
     36          6           0       -6.422395   -2.064572    0.044000
     37          6           0       -9.190466   -4.572142   -0.750827
     38          6           0       -5.613239   -4.323973    0.075112
     39          8           0       -5.689707   -5.522815   -0.094959
     40          6           0       -4.457308   -3.409153    0.474643
     41          6           0       -3.854974   -3.777173    1.789521
     42          8           0       -4.034800   -3.299707    2.906085
     43          8           0       -3.050553   -4.873809    1.506104
     44          6           0       -2.510495   -5.483151    2.686709
     45          6           0        2.618396   -1.295353   -1.282301
     46          6           0        3.964252   -0.987136   -0.604743
     47          6           0        4.939159   -0.183866   -1.165630
     48          6           0        4.842101    0.443847   -2.424287
     49          6           0        6.149050   -0.010390   -0.323353
     50          6           0        7.480495   -0.558166   -1.093669
     51          6           0        8.697143   -0.492524   -0.085901
     52          6           0        9.976389   -0.872739   -0.718131
     53          6           0       10.080962   -2.388616   -1.136186
     54          6           0       11.242424   -0.384552   -0.069431
     55          6           0       12.607069   -0.551662   -0.621726
     56          6           0       13.702392    0.028730    0.186645
     57          6           0       15.100820   -0.119720   -0.447175
     58          6           0       15.380607   -1.576929   -0.605033
     59          6           0       16.179066    0.595407    0.404608
     60          6           0       17.600501    0.838277   -0.209843
     61          6           0       18.521275    1.618517    0.803150
     62          6           0       19.937817    1.895507    0.237979
     63          6           0       20.065477    2.566571   -1.159695
     64          6           0       20.817723    2.695823    1.371990
     65          1           0       -3.915078    3.308865    1.870013
     66          1           0       -9.960951    4.290088   -0.261213
     67          1           0      -10.559103   -2.048459   -1.184933
     68          1           0       -2.860949   -1.333712    2.185918
     69          1           0       -2.076116    1.381548    1.161733
     70          1           0       -1.890880    0.589745    3.638390
     71          1           0       -3.054987    2.123558    3.572678
     72          1           0       -3.621651    0.388450    3.764889
     73          1           0       -2.470101   -1.622043   -0.583216
     74          1           0       -2.127194    0.216188   -0.411721
     75          1           0       -0.196084   -0.012065    1.034935
     76          1           0       -0.440546   -1.854351    1.209184
     77          1           0       -4.065447    5.685632    0.826283
     78          1           0       -5.377987    6.974845    1.286257
     79          1           0       -5.017585    5.839749    2.390058
     80          1           0       -7.834859    7.253468    1.048394
     81          1           0       -9.505473    5.952518   -1.330700
     82          1           0       -9.607568    7.667876   -0.357644
     83          1           0      -12.461299    3.495430    0.153733
     84          1           0      -12.075316    3.854384   -1.722095
     85          1           0      -13.417116    2.684426   -1.134633
     86          1           0      -12.633549   -1.023404   -0.824852
     87          1           0      -13.537213    0.604938   -1.205361
     88          1           0      -12.474936    0.279667   -3.621881
     89          1           0      -12.038246   -1.515907   -3.449227
     90          1           0      -13.870280   -0.908537   -3.297769
     91          1           0       -9.829622   -4.712438    0.240938
     92          1           0       -9.996878   -4.459729   -1.690832
     93          1           0       -8.374940   -5.479208   -1.068299
     94          1           0       -3.780602   -3.691882   -0.162933
     95          1           0       -2.050116   -6.425190    2.503814
     96          1           0       -1.336487   -4.687635    2.934012
     97          1           0       -3.165833   -5.505436    3.537776
     98          1           0        2.677188   -2.371520   -1.838584
     99          1           0        2.189714   -0.783878   -2.214787
    100          1           0        4.069813   -1.424645    0.321422
    101          1           0        5.055219    1.567135   -2.397344
    102          1           0        5.324550    0.003343   -3.207440
    103          1           0        3.879104    0.566232   -2.834209
    104          1           0        6.321999    1.143861   -0.245003
    105          1           0        6.095133   -0.431580    0.555788
    106          1           0        7.099715   -1.584073   -1.445607
    107          1           0        7.836843    0.128292   -1.920245
    108          1           0        8.803231    0.417102    0.441322
    109          1           0        8.510751   -1.139722    0.769181
    110          1           0       10.033021   -0.411039   -1.657519
    111          1           0        9.294885   -2.714974   -1.933984
    112          1           0       11.181231   -2.712554   -1.532787
    113          1           0       10.050043   -3.016790   -0.143363
    114          1           0       11.240777    0.799645    0.322269
    115          1           0       11.201328   -0.699494    1.025904
    116          1           0       12.861323   -1.594129   -0.795941
    117          1           0       12.568755   -0.249777   -1.561457
    118          1           0       13.558628    1.110971    0.204438
    119          1           0       13.408761   -0.529664    1.282116
    120          1           0       15.194899    0.459655   -1.428089
    121          1           0       14.694071   -2.132761   -1.320419
    122          1           0       16.349376   -1.777521   -1.135711
    123          1           0       15.305922   -2.058584    0.417052
    124          1           0       15.847559    1.757780    0.786360
    125          1           0       16.088864   -0.148613    1.439300
    126          1           0       18.009838   -0.305311   -0.394419
    127          1           0       17.530023    1.470098   -1.050889
    128          1           0       17.854587    2.673745    0.970691
    129          1           0       18.369787    1.052952    1.828804
    130          1           0       20.525923    0.952785    0.098205
    131          1           0       19.643032    3.689767   -1.274677
    132          1           0       21.054247    2.505504   -1.573225
    133          1           0       19.211729    1.947216   -1.708743
    134          1           0       21.008359    1.972565    2.397915
    135          1           0       21.942004    2.830888    1.300459
    136          1           0       20.274629    3.726074    1.457602
    137          1           0       -7.230642    1.828223    0.453854
    138          1           0       -7.488040   -0.131073   -0.072107
 ---------------------------------------------------------------------

 SCF Done:  E(RB3LYP) =  -2732.98947627     A.U. after   16 cycles

 Excitation energies and oscillator strengths:

 Excited State   1:      Singlet-A      2.0747 eV  597.60 nm  f=0.2279  <S**2>=0.000
     235 -> 237       -0.11517
     235 -> 238        0.27634
     236 -> 237        0.63589
 This state for optimization and/or second-order correction.
 Total Energy, E(TD-HF/TD-DFT) =  -2732.91323295
 Copying the excited state density for this state as the 1-particle RhoCI density.

 The electronic state is 1-A.
 Alpha  occ. eigenvalues --  -19.19311 -19.17102 -19.14340 -19.13987 -19.13061
 Alpha  occ. eigenvalues --  -14.37096 -14.36780 -14.32081 -14.31757 -10.33188
 Alpha  occ. eigenvalues --  -10.32556 -10.29090 -10.26911 -10.24899 -10.24443
 Alpha  occ. eigenvalues --  -10.23825 -10.23105 -10.22970 -10.22928 -10.22919
 Alpha  occ. eigenvalues --  -10.22902 -10.22775 -10.22628 -10.22588 -10.21992
 Alpha  occ. eigenvalues --  -10.21933 -10.21661 -10.21580 -10.21477 -10.21365
 Alpha  occ. eigenvalues --  -10.21246 -10.21226 -10.21081 -10.20918 -10.20831
 Alpha  occ. eigenvalues --  -10.20763 -10.20743 -10.20737 -10.20679 -10.20641
 Alpha  occ. eigenvalues --  -10.20546 -10.20233 -10.20204 -10.20078 -10.19998
 Alpha  occ. eigenvalues --  -10.19942 -10.19938 -10.19925 -10.19834 -10.19830
 Alpha  occ. eigenvalues --  -10.19620 -10.19596 -10.19163 -10.19104 -10.19058
 Alpha  occ. eigenvalues --  -10.18994 -10.18769 -10.18514 -10.18233 -10.18184
 Alpha  occ. eigenvalues --  -10.18158 -10.17731 -10.17356 -10.16041  -1.09549
 Alpha  occ. eigenvalues --   -1.06322  -1.03434  -1.01414  -0.99152  -0.99128
 Alpha  occ. eigenvalues --   -0.97134  -0.93937  -0.92664  -0.85752  -0.82857
 Alpha  occ. eigenvalues --   -0.82497  -0.82276  -0.82070  -0.81007  -0.80722
 Alpha  occ. eigenvalues --   -0.79737  -0.79008  -0.78960  -0.78806  -0.77996
 Alpha  occ. eigenvalues --   -0.76442  -0.75989  -0.75109  -0.73740  -0.73618
 Alpha  occ. eigenvalues --   -0.73520  -0.72753  -0.72046  -0.71558  -0.70714
 Alpha  occ. eigenvalues --   -0.69556  -0.69176  -0.67999  -0.67385  -0.67079
 Alpha  occ. eigenvalues --   -0.66112  -0.65811  -0.65411  -0.64995  -0.64333
 Alpha  occ. eigenvalues --   -0.64279  -0.62280  -0.61995  -0.61681  -0.61347
 Alpha  occ. eigenvalues --   -0.60368  -0.58547  -0.58473  -0.57369  -0.57197
 Alpha  occ. eigenvalues --   -0.57085  -0.56694  -0.56075  -0.56028  -0.55104
 Alpha  occ. eigenvalues --   -0.54449  -0.53912  -0.53812  -0.53469  -0.53307
 Alpha  occ. eigenvalues --   -0.52894  -0.52290  -0.51650  -0.51622  -0.50655
 Alpha  occ. eigenvalues --   -0.49652  -0.49258  -0.48675  -0.48351  -0.48100
 Alpha  occ. eigenvalues --   -0.47838  -0.47698  -0.47090  -0.46956  -0.46883
 Alpha  occ. eigenvalues --   -0.46777  -0.46203  -0.45862  -0.45692  -0.45555
 Alpha  occ. eigenvalues --   -0.45421  -0.45287  -0.45168  -0.44761  -0.44687
 Alpha  occ. eigenvalues --   -0.44034  -0.43995  -0.43919  -0.43806  -0.43422
 Alpha  occ. eigenvalues --   -0.43390  -0.43148  -0.42834  -0.42760  -0.42631
 Alpha  occ. eigenvalues --   -0.42434  -0.42244  -0.41980  -0.41682  -0.41399
 Alpha  occ. eigenvalues --   -0.41294  -0.40691  -0.40347  -0.40177  -0.40010
 Alpha  occ. eigenvalues --   -0.39810  -0.39683  -0.39479  -0.39334  -0.39150
 Alpha  occ. eigenvalues --   -0.38889  -0.38842  -0.38486  -0.38456  -0.38340
 Alpha  occ. eigenvalues --   -0.38266  -0.38110  -0.37980  -0.37322  -0.36958
 Alpha  occ. eigenvalues --   -0.36935  -0.36889  -0.36538  -0.36214  -0.36206
 Alpha  occ. eigenvalues --   -0.36131  -0.35953  -0.35889  -0.35826  -0.35613
 Alpha  occ. eigenvalues --   -0.35517  -0.35312  -0.35071  -0.34998  -0.34820
 Alpha  occ. eigenvalues --   -0.34764  -0.34622  -0.34386  -0.34141  -0.33837
 Alpha  occ. eigenvalues --   -0.33251  -0.33137  -0.32656  -0.32615  -0.32297
 Alpha  occ. eigenvalues --   -0.32066  -0.31844  -0.31802  -0.31496  -0.31275
 Alpha  occ. eigenvalues --   -0.30924  -0.30596  -0.30289  -0.29787  -0.29556
 Alpha  occ. eigenvalues --   -0.29515  -0.29230  -0.28757  -0.28246  -0.28061
 Alpha  occ. eigenvalues --   -0.27966  -0.27790  -0.26778  -0.26070  -0.25922
 Alpha  occ. eigenvalues --   -0.25597  -0.24027  -0.23739  -0.23285  -0.20219
 Alpha  occ. eigenvalues --   -0.18879
 Alpha virt. eigenvalues --   -0.10383  -0.07397  -0.04722  -0.03412  -0.02120
 Alpha virt. eigenvalues --   -0.01637  -0.00249   0.00252   0.01657   0.02007
 Alpha virt. eigenvalues --    0.03167   0.03810   0.03929   0.04022   0.04350

 Mulliken charges:
               1
     1  C   -0.032953
     2  C   -0.057657
     3  C   -0.114779
     4  C   -0.125787
     5  N   -0.211448
     6  C   -0.077525
     7  C   -0.111011
     8  C   -0.054522
     9  C   -0.013954
    10  C    0.057257
    11  C    0.114718
    12  C   -0.062977
    13  C    0.226947
    14  O   -0.247170
    15  O   -0.359446
    16  N   -0.142320
    17  C    0.132932
    18  C   -0.094266
    19  C    0.067364
    20  C    0.104905
    21  C    0.072627
    22  C   -0.112118
    23  C   -0.070519
    24  N   -0.244290
    25  C    0.083038
    26  C   -0.103916
    27  C   -0.102168
    28  C    0.068872
    29  C   -0.041469
    30  C    0.120443
    31  C   -0.084365
    32  N   -0.032880
    33  C    0.075565
    34  C   -0.148965
    35  C   -0.055035
    36  C    0.122029
    37  C   -0.052500
    38  C    0.048635
    39  O   -0.152404
    40  C    0.139283
    41  C    0.214022
    42  O   -0.220798
    43  O   -0.314514
    44  C    0.140821
    45  C    0.175765
    46  C   -0.032083
    47  C   -0.148056
    48  C    0.162524
    49  C    0.151988
    50  C   -0.064480
    51  C    0.102157
    52  C    0.039917
    53  C   -0.073849
    54  C   -0.063441
    55  C    0.154630
    56  C   -0.013558
    57  C   -0.041404
    58  C    0.018433
    59  C   -0.103326
    60  C    0.025450
    61  C   -0.045729
    62  C   -0.051802
    63  C   -0.026688
    64  C   -0.066510
    65  H   -0.032809
    66  H    0.005778
    67  H    0.005118
    68  H    0.044236
    69  H    0.013842
    70  H    0.025214
    71  H    0.023508
    72  H    0.034011
    73  H    0.037842
    74  H    0.018721
    75  H    0.062976
    76  H    0.061032
    77  H    0.049675
    78  H    0.015118
    79  H    0.020468
    80  H    0.037841
    81  H    0.053110
    82  H    0.036741
    83  H    0.048743
    84  H    0.040278
    85  H    0.037418
    86  H    0.010965
    87  H    0.022819
    88  H    0.020525
    89  H    0.043870
    90  H    0.024660
    91  H    0.066781
    92  H    0.049206
    93  H    0.085030
    94  H   -0.023195
    95  H    0.039740
    96  H    0.015497
    97  H    0.057614
    98  H    0.032447
    99  H    0.028211
   100  H   -0.035374
   101  H    0.005733
   102  H    0.000489
   103  H   -0.030236
   104  H    0.005542
   105  H   -0.055657
   106  H    0.031585
   107  H    0.019029
   108  H   -0.027803
   109  H   -0.026276
   110  H   -0.035788
   111  H    0.038556
   112  H    0.026102
   113  H    0.013722
   114  H   -0.017187
   115  H   -0.030683
   116  H   -0.023635
   117  H   -0.068521
   118  H   -0.010823
   119  H    0.022880
   120  H   -0.006586
   121  H    0.020427
   122  H    0.004769
   123  H    0.016495
   124  H    0.011206
   125  H    0.010018
   126  H    0.028940
   127  H    0.008622
   128  H    0.011910
   129  H    0.031327
   130  H    0.007202
   131  H    0.021996
   132  H    0.026047
   133  H    0.023042
   134  H    0.016034
   135  H    0.016943
   136  H    0.035783
   137  H    0.166425
   138  H    0.187073
 Sum of Mulliken charges =  -0.00000

 Dipole moment (field-independent basis, Debye):
    X=              0.3873    Y=              4.0682    Z=              0.9606  Tot=              4.1980
 Quadrupole moment (field-independent basis, Debye-Ang):
   XX=           -347.6699   YY=           -384.0037   ZZ=           -399.2768
   XY=            -32.3508   XZ=            -14.0502   YZ=             -1.4568

 Normal termination of Gaussian 16 at Wed Aug 14 17:58:28 2019.
