 Gaussian 16, Revision A.03,
 Gaussian 16:  ES64L-G16RevA.03 25-Dec-2016

 --------------------------
 # td=(NStates=1) B3LYP/SVP
 --------------------------

 --
 TD
 --
 Symbolic Z-matrix:
 Charge =  0 Multiplicity = 1

                         Standard orientation:
 ---------------------------------------------------------------------
 Center     Atomic      Atomic             Coordinates (Angstroms)
 Number     Number       Type             X           Y           Z
 ---------------------------------------------------------------------
      1          6           0       -5.080762   -1.957105    0.402521
      2          6           0       -4.614370    2.778858    1.410773
      3          6           0       -9.333739    3.324161   -0.200561
      4          6           0       -9.865902   -1.402929   -0.797387
      5          7           0       -5.208347    0.471018    0.830342
      6          6           0       -4.518143   -0.718618    0.830614
      7          6           0       -3.044860   -0.557075    1.239881
      8          6           0       -3.038247    0.747548    1.939354
      9          6           0       -4.353993    1.379635    1.353602
     10          6           0       -3.159766    0.754388    3.496307
     11          6           0       -2.079072   -0.714116    0.077053
     12          6           0       -0.576798   -0.698027    0.539266
     13          6           0        0.333859   -0.800604   -0.561636
     14          8           0       -0.020972   -1.136462   -1.690791
     15          8           0        1.654675   -0.618513   -0.241528
     16          7           0       -7.024496    2.773382    0.427435
     17          6           0       -5.888930    3.345730    1.092122
     18          6           0       -6.161501    4.764090    1.064999
     19          6           0       -7.413985    4.959913    0.613160
     20          6           0       -8.045034    3.693387    0.282570
     21          6           0       -5.111827    5.683562    1.656137
     22          6           0       -8.031632    6.272224    0.527112
     23          6           0       -9.047122    6.781215   -0.360523
     24          7           0       -9.289178    0.924956   -0.467772
     25          6           0       -9.864799    2.087138   -0.535378
     26          6           0      -11.303435    1.900987   -1.086724
     27          6           0      -11.403429    0.567512   -1.252775
     28          6           0      -10.155545   -0.095870   -0.853997
     29          6           0      -12.206515    3.041473   -1.438663
     30          6           0      -12.576300   -0.071314   -1.807804
     31          6           0      -12.483880   -0.357853   -3.390863
     32          7           0       -7.604978   -1.267741   -0.027840
     33          6           0       -8.713410   -2.030060   -0.413179
     34          6           0       -8.136131   -3.434834   -0.500845
     35          6           0       -6.857040   -3.399567   -0.234348
     36          6           0       -6.513320   -2.091569    0.088161
     37          6           0       -8.901800   -4.536566   -1.127631
     38          6           0       -5.717727   -4.317828   -0.092672
     39          8           0       -5.631068   -5.463997   -0.138539
     40          6           0       -4.534130   -3.361604    0.380555
     41          6           0       -3.911117   -3.930714    1.739668
     42          8           0       -4.207190   -3.530391    2.862316
     43          8           0       -3.089945   -4.898157    1.524087
     44          6           0       -2.529725   -5.778257    2.525732
     45          6           0        2.648266   -0.857189   -1.211581
     46          6           0        3.940971   -0.737227   -0.656133
     47          6           0        5.008619   -0.057851   -1.032876
     48          6           0        4.902388    0.809207   -2.263916
     49          6           0        6.207816    0.178720   -0.210185
     50          6           0        7.449265   -0.537871   -0.968674
     51          6           0        8.705286   -0.386975   -0.225965
     52          6           0       10.075003   -0.837267   -0.768878
     53          6           0       10.041099   -2.455349   -0.967876
     54          6           0       11.332950   -0.379178    0.074211
     55          6           0       12.724901   -0.836602   -0.512328
     56          6           0       13.831803   -0.096006    0.246987
     57          6           0       15.260131   -0.303434   -0.357914
     58          6           0       15.655670   -1.792054   -0.441241
     59          6           0       16.275037    0.596041    0.426189
     60          6           0       17.719247    0.703304   -0.205262
     61          6           0       18.525653    1.714030    0.551535
     62          6           0       19.970377    1.804647    0.001758
     63          6           0       20.104507    2.439576   -1.319061
     64          6           0       20.778248    2.714166    1.077991
     65          1           0       -4.043673    3.547428    2.027280
     66          1           0      -10.072766    4.092656   -0.189062
     67          1           0      -10.614363   -2.319280   -0.995853
     68          1           0       -2.947959   -1.456181    2.001591
     69          1           0       -2.170938    1.454190    1.606834
     70          1           0       -2.300754    0.106716    3.934940
     71          1           0       -3.166736    1.855479    3.858160
     72          1           0       -4.125146    0.131170    3.703658
     73          1           0       -2.205465   -1.866223   -0.588711
     74          1           0       -2.279717    0.081461   -0.763806
     75          1           0       -0.315018    0.221947    1.120338
     76          1           0       -0.433525   -1.378615    1.212461
     77          1           0       -3.924790    5.149855    1.231620
     78          1           0       -5.479035    6.685215    1.195267
     79          1           0       -5.247390    5.866197    2.956762
     80          1           0       -7.668288    7.036330    1.251095
     81          1           0       -9.361758    6.108069   -1.301167
     82          1           0       -9.126604    7.811139   -0.590711
     83          1           0      -12.295006    3.808808   -0.598333
     84          1           0      -11.677511    3.529086   -2.261094
     85          1           0      -13.211228    2.796468   -1.685566
     86          1           0      -12.709384   -1.032229   -1.339826
     87          1           0      -13.534081    0.423243   -1.583502
     88          1           0      -12.530664    0.808705   -3.829270
     89          1           0      -11.568272   -0.971723   -3.350555
     90          1           0      -13.502347   -0.816366   -3.887737
     91          1           0       -9.627198   -4.780827   -0.421576
     92          1           0       -9.638129   -4.271312   -2.088625
     93          1           0       -8.267938   -5.427002   -1.458503
     94          1           0       -3.682178   -3.515456   -0.406363
     95          1           0       -1.862638   -6.543170    2.065023
     96          1           0       -1.822341   -5.203185    3.007952
     97          1           0       -3.295044   -6.193983    3.117016
     98          1           0        2.692045   -1.921774   -1.653712
     99          1           0        2.479369    0.056498   -1.989624
    100          1           0        3.999330   -1.328398    0.331078
    101          1           0        5.464870    1.860346   -2.216396
    102          1           0        5.500933    0.482625   -3.113713
    103          1           0        3.997558    0.921604   -2.837089
    104          1           0        6.455734    1.213505   -0.071320
    105          1           0        6.208976   -0.366412    0.730583
    106          1           0        7.084239   -1.594711   -1.171540
    107          1           0        7.699455    0.022782   -1.928506
    108          1           0        8.854599    0.781817    0.048832
    109          1           0        8.484859   -0.747743    0.661401
    110          1           0       10.215180   -0.327211   -1.643405
    111          1           0        9.178611   -2.728119   -1.538386
    112          1           0       10.905244   -2.805171   -1.516797
    113          1           0        9.924142   -2.832394    0.013782
    114          1           0       11.371561    0.591547    0.172296
    115          1           0       11.077936   -0.638326    1.006916
    116          1           0       12.773473   -1.876059   -0.424805
    117          1           0       12.766039   -0.577313   -1.676065
    118          1           0       13.598935    1.050504    0.235520
    119          1           0       13.863533   -0.476943    1.273471
    120          1           0       15.047474   -0.006235   -1.473564
    121          1           0       15.072302   -2.468393   -1.028122
    122          1           0       16.744396   -1.980344   -0.623756
    123          1           0       15.577424   -1.963942    0.636012
    124          1           0       15.582515    1.630237    0.613272
    125          1           0       16.428785    0.100128    1.443485
    126          1           0       18.212422   -0.282782   -0.331781
    127          1           0       17.465079    1.169045   -1.321332
    128          1           0       18.097838    2.691729    0.535284
    129          1           0       18.563653    1.428018    1.530947
    130          1           0       20.484563    0.611952    0.039672
    131          1           0       19.838703    3.302659   -1.353288
    132          1           0       21.182044    2.568758   -1.708802
    133          1           0       19.605015    2.064983   -2.087634
    134          1           0       20.958506    2.355844    2.034602
    135          1           0       21.873042    2.871271    0.819258
    136          1           0       20.331603    3.721110    1.098572
    137          1           0       -7.133822    1.724878    0.421886
    138          1           0       -7.477954   -0.229314    0.205228
 ---------------------------------------------------------------------

 SCF Done:  E(RB3LYP) =  -2733.01236932     A.U. after   16 cycles

 Excitation energies and oscillator strengths:

 Excited State   1:      Singlet-A      1.9965 eV  620.99 nm  f=0.1939  <S**2>=0.000
     235 -> 238       -0.28332
     236 -> 237        0.64640
 This state for optimization and/or second-order correction.
 Total Energy, E(TD-HF/TD-DFT) =  -2732.93899770
 Copying the excited state density for this state as the 1-particle RhoCI density.

 The electronic state is 1-A.
 Alpha  occ. eigenvalues --  -19.18382 -19.17767 -19.13473 -19.12062 -19.11445
 Alpha  occ. eigenvalues --  -14.37491 -14.36783 -14.33166 -14.29478 -10.32001
 Alpha  occ. eigenvalues --  -10.31527 -10.28327 -10.25485 -10.25331 -10.24166
 Alpha  occ. eigenvalues --  -10.24132 -10.23698 -10.23656 -10.23540 -10.23457
 Alpha  occ. eigenvalues --  -10.23377 -10.22397 -10.21967 -10.21921 -10.21379
 Alpha  occ. eigenvalues --  -10.21263 -10.21068 -10.21058 -10.20967 -10.20934
 Alpha  occ. eigenvalues --  -10.20823 -10.20780 -10.20668 -10.20643 -10.20564
 Alpha  occ. eigenvalues --  -10.20556 -10.20290 -10.20272 -10.20198 -10.19982
 Alpha  occ. eigenvalues --  -10.19843 -10.19772 -10.19631 -10.19539 -10.19389
 Alpha  occ. eigenvalues --  -10.19140 -10.19121 -10.19091 -10.18999 -10.18714
 Alpha  occ. eigenvalues --  -10.18697 -10.18357 -10.18303 -10.18227 -10.18036
 Alpha  occ. eigenvalues --  -10.17960 -10.17574 -10.17483 -10.17442 -10.17411
 Alpha  occ. eigenvalues --  -10.17262 -10.16942 -10.15988 -10.14959  -1.10781
 Alpha  occ. eigenvalues --   -1.09030  -1.07392  -1.00054  -0.99486  -0.97844
 Alpha  occ. eigenvalues --   -0.96617  -0.94525  -0.93437  -0.84526  -0.83329
 Alpha  occ. eigenvalues --   -0.81781  -0.81663  -0.81456  -0.81004  -0.80859
 Alpha  occ. eigenvalues --   -0.80068  -0.79690  -0.79252  -0.79117  -0.78391
 Alpha  occ. eigenvalues --   -0.76860  -0.76495  -0.75317  -0.74801  -0.74729
 Alpha  occ. eigenvalues --   -0.73674  -0.73312  -0.72399  -0.71626  -0.70687
 Alpha  occ. eigenvalues --   -0.69337  -0.69183  -0.69033  -0.68240  -0.67937
 Alpha  occ. eigenvalues --   -0.67416  -0.67225  -0.66521  -0.65466  -0.65137
 Alpha  occ. eigenvalues --   -0.63907  -0.62514  -0.62108  -0.62026  -0.61395
 Alpha  occ. eigenvalues --   -0.60309  -0.59132  -0.58520  -0.58236  -0.57162
 Alpha  occ. eigenvalues --   -0.56908  -0.56609  -0.56179  -0.55942  -0.55873
 Alpha  occ. eigenvalues --   -0.55320  -0.53776  -0.53659  -0.53341  -0.53117
 Alpha  occ. eigenvalues --   -0.52624  -0.52443  -0.51495  -0.51356  -0.50746
 Alpha  occ. eigenvalues --   -0.50283  -0.49912  -0.49162  -0.48847  -0.48770
 Alpha  occ. eigenvalues --   -0.48225  -0.47966  -0.47622  -0.47453  -0.47128
 Alpha  occ. eigenvalues --   -0.46548  -0.46395  -0.46286  -0.45818  -0.45651
 Alpha  occ. eigenvalues --   -0.45488  -0.45395  -0.45096  -0.44899  -0.44706
 Alpha  occ. eigenvalues --   -0.44291  -0.44094  -0.43983  -0.43790  -0.43540
 Alpha  occ. eigenvalues --   -0.43106  -0.43029  -0.42732  -0.42600  -0.42411
 Alpha  occ. eigenvalues --   -0.42250  -0.42157  -0.42095  -0.41484  -0.41244
 Alpha  occ. eigenvalues --   -0.41198  -0.41075  -0.40507  -0.40377  -0.40330
 Alpha  occ. eigenvalues --   -0.40213  -0.39971  -0.39758  -0.39233  -0.39206
 Alpha  occ. eigenvalues --   -0.39134  -0.38998  -0.38775  -0.38715  -0.38390
 Alpha  occ. eigenvalues --   -0.38221  -0.38078  -0.37847  -0.37755  -0.37506
 Alpha  occ. eigenvalues --   -0.37359  -0.37189  -0.36851  -0.36663  -0.36593
 Alpha  occ. eigenvalues --   -0.36519  -0.36255  -0.36174  -0.35940  -0.35811
 Alpha  occ. eigenvalues --   -0.35530  -0.35312  -0.35151  -0.34884  -0.34791
 Alpha  occ. eigenvalues --   -0.34699  -0.34545  -0.34227  -0.34095  -0.33711
 Alpha  occ. eigenvalues --   -0.33687  -0.33225  -0.32918  -0.32500  -0.32422
 Alpha  occ. eigenvalues --   -0.31952  -0.31926  -0.31769  -0.31661  -0.31361
 Alpha  occ. eigenvalues --   -0.30777  -0.30680  -0.30544  -0.30368  -0.30116
 Alpha  occ. eigenvalues --   -0.30012  -0.29796  -0.28358  -0.28209  -0.28176
 Alpha  occ. eigenvalues --   -0.27592  -0.27389  -0.26859  -0.25974  -0.25658
 Alpha  occ. eigenvalues --   -0.25093  -0.24312  -0.23527  -0.22501  -0.19916
 Alpha  occ. eigenvalues --   -0.18632
 Alpha virt. eigenvalues --   -0.10250  -0.07601  -0.04372  -0.03089  -0.00570
 Alpha virt. eigenvalues --   -0.00306   0.00501   0.00891   0.01694   0.01793
 Alpha virt. eigenvalues --    0.03322   0.03832   0.04270   0.04549   0.04704

 Mulliken charges:
               1
     1  C    0.026467
     2  C   -0.085391
     3  C   -0.052552
     4  C   -0.116739
     5  N   -0.189990
     6  C   -0.053686
     7  C   -0.011121
     8  C   -0.069173
     9  C    0.011494
    10  C    0.026418
    11  C   -0.056214
    12  C    0.152963
    13  C    0.187361
    14  O   -0.251686
    15  O   -0.322480
    16  N   -0.138794
    17  C    0.076785
    18  C   -0.101209
    19  C    0.085203
    20  C    0.104958
    21  C   -0.082855
    22  C   -0.112704
    23  C   -0.063096
    24  N   -0.189413
    25  C    0.005475
    26  C   -0.150685
    27  C   -0.059840
    28  C    0.139420
    29  C    0.126551
    30  C    0.051870
    31  C   -0.072148
    32  N   -0.094446
    33  C    0.013877
    34  C   -0.131520
    35  C   -0.004160
    36  C    0.046023
    37  C    0.039668
    38  C    0.086615
    39  O   -0.083113
    40  C   -0.105442
    41  C    0.184492
    42  O   -0.258023
    43  O   -0.269307
    44  C    0.243379
    45  C    0.268915
    46  C   -0.159518
    47  C   -0.068013
    48  C    0.042488
    49  C    0.117426
    50  C   -0.058586
    51  C    0.058230
    52  C   -0.008738
    53  C    0.051010
    54  C    0.139928
    55  C    0.027387
    56  C   -0.008607
    57  C   -0.085212
    58  C    0.036722
    59  C   -0.033062
    60  C    0.000850
    61  C    0.127898
    62  C   -0.156228
    63  C    0.228498
    64  C    0.030617
    65  H    0.019780
    66  H   -0.037687
    67  H    0.016516
    68  H    0.027345
    69  H    0.011630
    70  H    0.029989
    71  H    0.042148
    72  H    0.048215
    73  H    0.056252
    74  H    0.040566
    75  H    0.021583
    76  H   -0.031343
    77  H    0.079758
    78  H    0.043477
    79  H    0.070863
    80  H    0.017841
    81  H    0.044738
    82  H    0.026332
    83  H    0.028233
    84  H    0.027160
    85  H   -0.000301
    86  H   -0.021517
    87  H   -0.007541
    88  H    0.034277
    89  H    0.039542
    90  H    0.037453
    91  H    0.012210
    92  H    0.042130
    93  H    0.052853
    94  H    0.061953
    95  H    0.036365
    96  H    0.005245
    97  H    0.041077
    98  H    0.045903
    99  H    0.036112
   100  H   -0.007776
   101  H    0.012732
   102  H    0.000383
   103  H   -0.001478
   104  H    0.003875
   105  H   -0.010552
   106  H    0.020379
   107  H    0.002756
   108  H   -0.014881
   109  H   -0.070237
   110  H   -0.043558
   111  H   -0.003878
   112  H    0.012826
   113  H   -0.002866
   114  H   -0.075488
   115  H   -0.053276
   116  H   -0.005084
   117  H    0.007020
   118  H    0.013904
   119  H   -0.007785
   120  H   -0.007474
   121  H    0.018850
   122  H    0.007579
   123  H   -0.015063
   124  H    0.023271
   125  H    0.000730
   126  H    0.014296
   127  H    0.012258
   128  H   -0.020728
   129  H   -0.037632
   130  H    0.005490
   131  H   -0.101867
   132  H   -0.002134
   133  H   -0.041147
   134  H   -0.011715
   135  H   -0.004582
   136  H    0.005278
   137  H    0.162873
   138  H    0.180308
 Sum of Mulliken charges =  -0.00000

 Dipole moment (field-independent basis, Debye):
    X=              3.1698    Y=              1.6233    Z=              1.6597  Tot=              3.9291
 Quadrupole moment (field-independent basis, Debye-Ang):
   XX=           -378.3301   YY=           -371.1700   ZZ=           -398.4544
   XY=            -10.9049   XZ=              8.6587   YZ=             -3.5647

 Normal termination of Gaussian 16 at Fri Aug 16 20:13:59 2019.
