 Gaussian 16, Revision A.03,
 Gaussian 16:  ES64L-G16RevA.03 25-Dec-2016

 --------------------------
 # td=(NStates=1) B3LYP/SVP
 --------------------------

 --
 TD
 --
 Symbolic Z-matrix:
 Charge =  0 Multiplicity = 1

                         Standard orientation:
 ---------------------------------------------------------------------
 Center     Atomic      Atomic             Coordinates (Angstroms)
 Number     Number       Type             X           Y           Z
 ---------------------------------------------------------------------
      1          6           0       -5.085217   -1.950902    0.320670
      2          6           0       -4.781135    2.799216    1.283104
      3          6           0       -9.235113    3.245486   -0.376296
      4          6           0       -9.872125   -1.522811   -0.813279
      5          7           0       -5.094408    0.461925    0.656901
      6          6           0       -4.440872   -0.673101    0.727395
      7          6           0       -2.974070   -0.607730    1.186680
      8          6           0       -3.175669    0.839325    1.798471
      9          6           0       -4.329319    1.397854    1.200204
     10          6           0       -3.117829    0.815225    3.399566
     11          6           0       -2.009774   -0.596112    0.037978
     12          6           0       -0.528920   -0.669979    0.494986
     13          6           0        0.401902   -0.971792   -0.664105
     14          8           0        0.029496   -1.277915   -1.829356
     15          8           0        1.705564   -0.785811   -0.252430
     16          7           0       -7.007112    2.804122    0.408554
     17          6           0       -5.925743    3.354958    0.880439
     18          6           0       -6.316569    4.871361    0.948328
     19          6           0       -7.542559    5.070817    0.430701
     20          6           0       -8.032377    3.689861    0.164662
     21          6           0       -5.324704    5.798402    1.464733
     22          6           0       -8.168639    6.280562    0.435981
     23          6           0       -9.272306    6.627864   -0.303684
     24          7           0       -9.277496    0.738825   -0.487872
     25          6           0       -9.901607    2.020578   -0.502110
     26          6           0      -11.241078    1.824362   -0.931504
     27          6           0      -11.443452    0.436073   -1.042038
     28          6           0      -10.137838   -0.179205   -0.748656
     29          6           0      -12.319953    2.948908   -1.043549
     30          6           0      -12.662362   -0.325295   -1.624339
     31          6           0      -12.563088   -0.693951   -3.052643
     32          7           0       -7.516019   -1.282430   -0.228944
     33          6           0       -8.597150   -2.079105   -0.493980
     34          6           0       -8.185802   -3.572817   -0.566021
     35          6           0       -6.685570   -3.451049   -0.347119
     36          6           0       -6.403694   -2.199499   -0.072452
     37          6           0       -9.030763   -4.626539   -0.816933
     38          6           0       -5.475431   -4.333073   -0.145043
     39          8           0       -5.482225   -5.560831   -0.149392
     40          6           0       -4.435566   -3.293242    0.429311
     41          6           0       -3.920135   -3.672950    1.790185
     42          8           0       -4.313636   -3.187067    2.846349
     43          8           0       -3.024170   -4.692680    1.626106
     44          6           0       -2.795098   -5.485508    2.762347
     45          6           0        2.633308   -0.822998   -1.343004
     46          6           0        3.995370   -0.780200   -0.707204
     47          6           0        4.923394    0.161526   -1.050051
     48          6           0        4.808382    1.187791   -2.195385
     49          6           0        6.253508    0.268258   -0.388881
     50          6           0        7.551110   -0.288355   -0.997816
     51          6           0        8.853380   -0.131479   -0.141237
     52          6           0       10.075945   -0.820673   -0.728593
     53          6           0        9.968446   -2.282090   -0.891641
     54          6           0       11.309540   -0.363810    0.043046
     55          6           0       12.727837   -0.492164   -0.629110
     56          6           0       13.828967   -0.162126    0.403170
     57          6           0       15.219068   -0.203018   -0.288586
     58          6           0       15.649069   -1.612141   -0.697109
     59          6           0       16.330068    0.502448    0.566970
     60          6           0       17.743592    0.652368   -0.179789
     61          6           0       18.725375    1.487104    0.775459
     62          6           0       20.087671    1.608365    0.175902
     63          6           0       20.223928    2.105969   -1.282129
     64          6           0       20.964803    2.422800    1.085139
     65          1           0       -4.057632    3.292395    1.696279
     66          1           0       -9.832040    4.175014   -0.331743
     67          1           0      -10.638671   -2.177435   -1.062368
     68          1           0       -2.616922   -1.194321    1.958120
     69          1           0       -2.235833    1.597448    1.607030
     70          1           0       -2.232415    0.279200    3.596026
     71          1           0       -3.211166    1.672232    3.834044
     72          1           0       -4.137022    0.315722    3.827542
     73          1           0       -2.233721   -1.466791   -0.747929
     74          1           0       -2.216073    0.312233   -0.668441
     75          1           0       -0.334414    0.309031    0.939775
     76          1           0       -0.327634   -1.400477    1.302818
     77          1           0       -4.132095    5.506706    1.086902
     78          1           0       -5.639153    7.008596    1.347381
     79          1           0       -5.323730    5.579476    2.616417
     80          1           0       -7.708945    7.151287    0.864137
     81          1           0       -9.712462    6.012598   -1.146798
     82          1           0       -9.743747    7.744772   -0.491718
     83          1           0      -12.562868    3.363691    0.084366
     84          1           0      -11.794879    3.940703   -1.457109
     85          1           0      -13.294903    2.630903   -1.645772
     86          1           0      -12.787704   -1.249880   -1.059394
     87          1           0      -13.679212    0.112444   -1.507339
     88          1           0      -12.764360    0.321754   -3.624258
     89          1           0      -11.743020   -1.105247   -3.254578
     90          1           0      -13.452370   -1.297777   -3.359863
     91          1           0       -9.878584   -4.625339    0.018176
     92          1           0       -9.605106   -4.785150   -1.719227
     93          1           0       -8.716851   -5.730538   -0.664854
     94          1           0       -3.636682   -3.561227   -0.395004
     95          1           0       -2.338284   -6.442093    2.364337
     96          1           0       -2.080290   -4.791122    3.521529
     97          1           0       -3.643263   -5.802608    3.464202
     98          1           0        2.316344   -1.642182   -1.929164
     99          1           0        2.409416   -0.064803   -2.203317
    100          1           0        4.009866   -1.665831    0.127579
    101          1           0        4.853164    2.235374   -1.878882
    102          1           0        5.879007    1.243198   -2.955490
    103          1           0        3.898681    0.936018   -2.940838
    104          1           0        6.404274    1.240527    0.118009
    105          1           0        5.958067   -0.458104    0.493881
    106          1           0        7.380665   -1.365919   -1.080904
    107          1           0        7.524747    0.303908   -1.971167
    108          1           0        9.112107    0.802503    0.066058
    109          1           0        8.505484   -0.659986    0.833078
    110          1           0       10.113992   -0.374876   -1.535978
    111          1           0        9.331227   -2.437049   -1.910892
    112          1           0       10.961958   -2.764295   -1.116240
    113          1           0        9.419819   -2.866049   -0.092320
    114          1           0       11.061547    0.700112    0.153451
    115          1           0       11.367044   -0.682443    1.162282
    116          1           0       12.925412   -1.568364   -0.980877
    117          1           0       12.714193    0.309313   -1.550191
    118          1           0       13.664728    0.798583    1.001960
    119          1           0       13.635935   -0.997937    1.124514
    120          1           0       15.132839    0.127905   -1.348969
    121          1           0       15.042242   -2.273767   -1.469884
    122          1           0       16.370811   -1.567648   -1.445008
    123          1           0       15.852905   -2.304039    0.352366
    124          1           0       15.994198    1.584186    0.848044
    125          1           0       16.487319   -0.108611    1.502256
    126          1           0       18.207192   -0.297216   -0.414991
    127          1           0       17.400307    1.202199   -1.107626
    128          1           0       18.112472    2.540501    1.021614
    129          1           0       18.985653    1.060393    1.617126
    130          1           0       20.454327    0.587100    0.236422
    131          1           0       19.549785    3.181046   -1.440455
    132          1           0       21.256767    2.442765   -1.546513
    133          1           0       19.708882    1.251902   -1.938951
    134          1           0       20.898446    2.072390    2.062878
    135          1           0       21.949100    2.411597    0.954012
    136          1           0       20.725043    3.433315    1.148732
    137          1           0       -6.928456    1.835205    0.246871
    138          1           0       -7.449245   -0.242368   -0.022690
 ---------------------------------------------------------------------

 SCF Done:  E(RB3LYP) =  -2732.93898210     A.U. after   18 cycles

 Excitation energies and oscillator strengths:

 Excited State   1:      Singlet-A      1.9443 eV  637.67 nm  f=0.1339  <S**2>=0.000
     235 -> 237        0.17121
     235 -> 238       -0.29792
     236 -> 237        0.59172
     236 -> 238        0.16593
 This state for optimization and/or second-order correction.
 Total Energy, E(TD-HF/TD-DFT) =  -2732.86752879
 Copying the excited state density for this state as the 1-particle RhoCI density.

 The electronic state is 1-A.
 Alpha  occ. eigenvalues --  -19.18707 -19.18630 -19.13687 -19.13382 -19.13064
 Alpha  occ. eigenvalues --  -14.37398 -14.36474 -14.32855 -14.28265 -10.32749
 Alpha  occ. eigenvalues --  -10.32505 -10.28904 -10.26283 -10.24493 -10.24428
 Alpha  occ. eigenvalues --  -10.24127 -10.23903 -10.23846 -10.23386 -10.23157
 Alpha  occ. eigenvalues --  -10.22919 -10.22350 -10.22093 -10.22039 -10.21564
 Alpha  occ. eigenvalues --  -10.21484 -10.21470 -10.21397 -10.21311 -10.21188
 Alpha  occ. eigenvalues --  -10.21121 -10.20952 -10.20911 -10.20879 -10.20716
 Alpha  occ. eigenvalues --  -10.20507 -10.20374 -10.20227 -10.20003 -10.19849
 Alpha  occ. eigenvalues --  -10.19789 -10.19472 -10.19442 -10.19397 -10.19368
 Alpha  occ. eigenvalues --  -10.19295 -10.19243 -10.19231 -10.19190 -10.19054
 Alpha  occ. eigenvalues --  -10.18954 -10.18823 -10.18765 -10.18474 -10.18386
 Alpha  occ. eigenvalues --  -10.18346 -10.18313 -10.18239 -10.18232 -10.18048
 Alpha  occ. eigenvalues --  -10.17945 -10.16749 -10.16602 -10.15004  -1.09627
 Alpha  occ. eigenvalues --   -1.08762  -1.02399  -1.01134  -1.00340  -0.99755
 Alpha  occ. eigenvalues --   -0.97492  -0.95827  -0.92950  -0.85708  -0.84477
 Alpha  occ. eigenvalues --   -0.83028  -0.82008  -0.81595  -0.81441  -0.81255
 Alpha  occ. eigenvalues --   -0.80011  -0.79573  -0.79018  -0.78293  -0.77951
 Alpha  occ. eigenvalues --   -0.76808  -0.76118  -0.75775  -0.75073  -0.74366
 Alpha  occ. eigenvalues --   -0.73384  -0.73141  -0.72393  -0.71622  -0.70722
 Alpha  occ. eigenvalues --   -0.70381  -0.68944  -0.68263  -0.67712  -0.67534
 Alpha  occ. eigenvalues --   -0.66669  -0.66419  -0.66161  -0.65628  -0.65003
 Alpha  occ. eigenvalues --   -0.64712  -0.64074  -0.62540  -0.61427  -0.61163
 Alpha  occ. eigenvalues --   -0.60494  -0.59263  -0.58863  -0.58548  -0.57423
 Alpha  occ. eigenvalues --   -0.57053  -0.56989  -0.56118  -0.55874  -0.55669
 Alpha  occ. eigenvalues --   -0.55540  -0.54851  -0.54488  -0.54253  -0.53449
 Alpha  occ. eigenvalues --   -0.53011  -0.52173  -0.51487  -0.51317  -0.50198
 Alpha  occ. eigenvalues --   -0.49923  -0.49559  -0.49242  -0.48626  -0.48349
 Alpha  occ. eigenvalues --   -0.48128  -0.47849  -0.47656  -0.47547  -0.47256
 Alpha  occ. eigenvalues --   -0.46889  -0.46716  -0.46692  -0.46231  -0.46007
 Alpha  occ. eigenvalues --   -0.45720  -0.45380  -0.45215  -0.45016  -0.44808
 Alpha  occ. eigenvalues --   -0.44566  -0.44431  -0.44192  -0.43790  -0.43632
 Alpha  occ. eigenvalues --   -0.43545  -0.43177  -0.42944  -0.42783  -0.42369
 Alpha  occ. eigenvalues --   -0.42334  -0.42144  -0.42048  -0.41499  -0.41429
 Alpha  occ. eigenvalues --   -0.41160  -0.41127  -0.40704  -0.40439  -0.40096
 Alpha  occ. eigenvalues --   -0.39956  -0.39741  -0.39533  -0.39341  -0.39122
 Alpha  occ. eigenvalues --   -0.38823  -0.38726  -0.38598  -0.38392  -0.38182
 Alpha  occ. eigenvalues --   -0.38082  -0.37750  -0.37613  -0.37506  -0.37129
 Alpha  occ. eigenvalues --   -0.36852  -0.36750  -0.36614  -0.36573  -0.36525
 Alpha  occ. eigenvalues --   -0.36471  -0.36189  -0.36092  -0.35992  -0.35798
 Alpha  occ. eigenvalues --   -0.35648  -0.35481  -0.35225  -0.34975  -0.34733
 Alpha  occ. eigenvalues --   -0.34633  -0.34347  -0.34197  -0.33794  -0.33770
 Alpha  occ. eigenvalues --   -0.33327  -0.33319  -0.33094  -0.33018  -0.32539
 Alpha  occ. eigenvalues --   -0.31696  -0.31604  -0.31576  -0.31412  -0.31232
 Alpha  occ. eigenvalues --   -0.31204  -0.30833  -0.30633  -0.30266  -0.30159
 Alpha  occ. eigenvalues --   -0.30080  -0.30019  -0.29138  -0.28960  -0.28471
 Alpha  occ. eigenvalues --   -0.28375  -0.28294  -0.26438  -0.25232  -0.24973
 Alpha  occ. eigenvalues --   -0.24529  -0.24220  -0.23691  -0.21657  -0.19532
 Alpha  occ. eigenvalues --   -0.18286
 Alpha virt. eigenvalues --   -0.10057  -0.08241  -0.05455  -0.03230  -0.02115
 Alpha virt. eigenvalues --   -0.01386  -0.01318  -0.00051   0.01877   0.03211
 Alpha virt. eigenvalues --    0.03618   0.03819   0.03972   0.04269   0.04317

 Mulliken charges:
               1
     1  C    0.034638
     2  C   -0.011155
     3  C   -0.041660
     4  C   -0.059471
     5  N   -0.111698
     6  C   -0.080967
     7  C    0.053760
     8  C   -0.141621
     9  C   -0.049708
    10  C    0.135418
    11  C   -0.009295
    12  C    0.052039
    13  C    0.212087
    14  O   -0.269157
    15  O   -0.319406
    16  N    0.041901
    17  C    0.121600
    18  C   -0.105877
    19  C    0.165109
    20  C    0.018556
    21  C   -0.049873
    22  C   -0.076334
    23  C   -0.123345
    24  N   -0.229793
    25  C    0.071398
    26  C   -0.095326
    27  C   -0.086888
    28  C    0.054877
    29  C   -0.022446
    30  C    0.047889
    31  C    0.092229
    32  N   -0.110298
    33  C    0.091907
    34  C   -0.029978
    35  C   -0.049554
    36  C    0.129153
    37  C   -0.025524
    38  C    0.069592
    39  O   -0.171414
    40  C   -0.103561
    41  C    0.240959
    42  O   -0.224652
    43  O   -0.287880
    44  C    0.108988
    45  C    0.221029
    46  C   -0.069262
    47  C   -0.085185
    48  C   -0.032509
    49  C    0.000405
    50  C    0.049463
    51  C    0.042575
    52  C    0.122065
    53  C   -0.000082
    54  C   -0.020480
    55  C   -0.036448
    56  C    0.043467
    57  C   -0.040129
    58  C   -0.044592
    59  C    0.017771
    60  C   -0.011307
    61  C    0.064823
    62  C   -0.083757
    63  C   -0.039863
    64  C    0.151897
    65  H   -0.125963
    66  H   -0.014411
    67  H   -0.058083
    68  H   -0.028042
    69  H    0.010841
    70  H    0.015847
    71  H   -0.037319
    72  H    0.033444
    73  H    0.043899
    74  H    0.024972
    75  H    0.028897
    76  H    0.036374
    77  H    0.069030
    78  H    0.054031
    79  H    0.049866
    80  H   -0.010413
    81  H    0.047853
    82  H    0.048739
    83  H    0.043275
    84  H    0.030745
    85  H    0.049620
    86  H   -0.016459
    87  H   -0.010261
    88  H    0.009264
    89  H   -0.047065
    90  H    0.004662
    91  H    0.036953
    92  H    0.032907
    93  H    0.040991
    94  H    0.076532
    95  H    0.052816
    96  H    0.035835
    97  H    0.050800
    98  H    0.001687
    99  H    0.012595
   100  H    0.043897
   101  H    0.031392
   102  H    0.037626
   103  H    0.046063
   104  H    0.008046
   105  H   -0.009131
   106  H    0.004407
   107  H   -0.003249
   108  H   -0.053304
   109  H   -0.004379
   110  H   -0.110090
   111  H    0.014576
   112  H    0.011712
   113  H    0.020024
   114  H   -0.025030
   115  H   -0.006202
   116  H    0.024349
   117  H    0.012517
   118  H    0.004339
   119  H   -0.002439
   120  H   -0.012713
   121  H    0.011553
   122  H   -0.008567
   123  H    0.026423
   124  H    0.013965
   125  H    0.002444
   126  H    0.007698
   127  H    0.018077
   128  H    0.006017
   129  H   -0.048209
   130  H   -0.016107
   131  H    0.014381
   132  H    0.024521
   133  H    0.035449
   134  H   -0.039730
   135  H   -0.043782
   136  H   -0.023719
   137  H    0.112003
   138  H    0.175612
 Sum of Mulliken charges =  -0.00000

 Dipole moment (field-independent basis, Debye):
    X=              3.8438    Y=              3.7443    Z=              1.6388  Tot=              5.6108
 Quadrupole moment (field-independent basis, Debye-Ang):
   XX=           -363.0060   YY=           -376.5845   ZZ=           -398.7470
   XY=            -13.8200   XZ=              4.0277   YZ=             -0.4849

 Normal termination of Gaussian 16 at Wed Aug 28 23:54:16 2019.
