 Gaussian 16, Revision A.03,
 Gaussian 16:  ES64L-G16RevA.03 25-Dec-2016

 --------------------------
 # td=(NStates=1) B3LYP/SVP
 --------------------------

 --
 TD
 --
 Symbolic Z-matrix:
 Charge =  0 Multiplicity = 1

                         Standard orientation:
 ---------------------------------------------------------------------
 Center     Atomic      Atomic             Coordinates (Angstroms)
 Number     Number       Type             X           Y           Z
 ---------------------------------------------------------------------
      1          6           0       -5.161763   -1.921300    0.439185
      2          6           0       -4.659219    2.724005    1.374492
      3          6           0       -9.193495    3.356891   -0.271748
      4          6           0       -9.796677   -1.417843   -0.985441
      5          7           0       -5.228518    0.448454    0.836691
      6          6           0       -4.584093   -0.754937    0.887939
      7          6           0       -3.066764   -0.632691    1.311646
      8          6           0       -3.046345    0.742343    1.895538
      9          6           0       -4.393158    1.387573    1.251556
     10          6           0       -2.960495    0.863734    3.500641
     11          6           0       -2.060565   -0.769148    0.066451
     12          6           0       -0.627325   -0.806406    0.546445
     13          6           0        0.353994   -1.202173   -0.546202
     14          8           0        0.002613   -1.838392   -1.643059
     15          8           0        1.612261   -0.756575   -0.189415
     16          7           0       -7.005598    2.824697    0.530938
     17          6           0       -5.819515    3.424326    0.980826
     18          6           0       -6.064559    4.806103    0.956369
     19          6           0       -7.351908    5.039272    0.477757
     20          6           0       -7.921353    3.694437    0.179553
     21          6           0       -5.197502    5.854097    1.534050
     22          6           0       -8.025573    6.310046    0.316147
     23          6           0       -9.066972    6.599438   -0.567789
     24          7           0       -9.127417    0.886722   -0.449252
     25          6           0       -9.741347    2.095737   -0.506410
     26          6           0      -11.240485    1.984985   -0.933548
     27          6           0      -11.349173    0.622322   -1.247950
     28          6           0      -10.013178   -0.062554   -0.915979
     29          6           0      -12.122492    3.074986   -1.092796
     30          6           0      -12.676222   -0.074714   -1.651438
     31          6           0      -12.737819   -0.586462   -3.090433
     32          7           0       -7.518508   -1.254204   -0.201751
     33          6           0       -8.592083   -1.956948   -0.642496
     34          6           0       -8.262905   -3.462718   -0.595694
     35          6           0       -6.916925   -3.386638   -0.075407
     36          6           0       -6.461051   -2.101912    0.085423
     37          6           0       -9.095463   -4.405499   -1.100445
     38          6           0       -5.731041   -4.271219    0.103829
     39          8           0       -5.623806   -5.486042   -0.080686
     40          6           0       -4.560033   -3.314534    0.444538
     41          6           0       -3.907700   -3.788120    1.716988
     42          8           0       -4.053769   -3.317735    2.833529
     43          8           0       -3.202079   -4.797217    1.362941
     44          6           0       -2.595482   -5.444375    2.528721
     45          6           0        2.720882   -1.300146   -1.114295
     46          6           0        3.922792   -0.875738   -0.484394
     47          6           0        4.992091   -0.071766   -1.088714
     48          6           0        4.904140    0.460733   -2.543403
     49          6           0        6.248317    0.116203   -0.253551
     50          6           0        7.547049   -0.437357   -0.938605
     51          6           0        8.819372   -0.018181   -0.220448
     52          6           0       10.042643   -0.681746   -0.811690
     53          6           0       10.042933   -2.158338   -1.011895
     54          6           0       11.232925   -0.184816    0.010319
     55          6           0       12.597077   -0.422885   -0.660488
     56          6           0       13.744894    0.217481    0.320933
     57          6           0       15.163949   -0.069042   -0.310761
     58          6           0       15.539311   -1.519281   -0.204049
     59          6           0       16.244586    0.695939    0.556822
     60          6           0       17.615250    0.583121   -0.049518
     61          6           0       18.563454    1.581534    0.639776
     62          6           0       20.056779    1.533160    0.013656
     63          6           0       20.022486    2.134549   -1.491123
     64          6           0       20.940486    2.461974    0.913115
     65          1           0       -3.914594    3.322349    1.725753
     66          1           0       -9.977424    4.153872   -0.490790
     67          1           0      -10.691654   -1.950173   -1.090845
     68          1           0       -2.915839   -1.516926    2.074970
     69          1           0       -2.281677    1.325004    1.417041
     70          1           0       -1.994796    0.510643    3.870446
     71          1           0       -3.415975    1.676442    4.169183
     72          1           0       -3.755836   -0.013985    3.888253
     73          1           0       -2.287315   -1.663072   -0.532283
     74          1           0       -2.109894    0.063837   -0.499729
     75          1           0       -0.402030    0.154835    1.051161
     76          1           0       -0.382543   -1.532983    1.309056
     77          1           0       -4.042168    6.007902    1.048030
     78          1           0       -5.722490    6.996358    1.344653
     79          1           0       -5.091229    5.881341    2.673336
     80          1           0       -7.909391    7.050581    0.984928
     81          1           0       -9.369820    5.927905   -1.452591
     82          1           0       -9.581382    7.570580   -0.772920
     83          1           0      -12.139660    3.707184   -0.213065
     84          1           0      -11.813469    3.714518   -2.009548
     85          1           0      -12.940479    2.778970   -1.301886
     86          1           0      -12.895570   -0.775328   -0.841520
     87          1           0      -13.449379    0.652927   -1.430234
     88          1           0      -12.670778    0.230829   -3.963633
     89          1           0      -11.929050   -1.259585   -3.166276
     90          1           0      -13.754710   -1.195280   -3.411124
     91          1           0       -9.958489   -4.313234   -0.449654
     92          1           0       -9.311852   -4.201928   -2.093761
     93          1           0       -8.803444   -5.469657   -0.757432
     94          1           0       -3.807491   -3.574602   -0.402699
     95          1           0       -2.213628   -6.660515    1.922219
     96          1           0       -1.820629   -4.848781    2.915928
     97          1           0       -3.258025   -5.601985    3.491614
     98          1           0        2.598917   -2.477654   -1.193284
     99          1           0        2.343301   -0.833762   -2.165472
    100          1           0        4.082794   -1.192209    0.415372
    101          1           0        5.399312    1.432455   -2.730348
    102          1           0        5.360429   -0.110987   -3.284344
    103          1           0        3.766494    0.571334   -2.789086
    104          1           0        6.424025    1.265521   -0.091894
    105          1           0        6.223868   -0.207506    0.775051
    106          1           0        7.069268   -1.481847   -1.197641
    107          1           0        7.648187    0.015524   -1.915552
    108          1           0        8.858269    1.122020   -0.203648
    109          1           0        8.681225   -0.493312    0.964222
    110          1           0       10.210126   -0.317134   -1.883186
    111          1           0        9.198971   -2.805517   -1.436349
    112          1           0       11.040025   -2.465462   -1.377027
    113          1           0       10.012057   -2.606275   -0.012248
    114          1           0       11.146375    0.909398    0.106085
    115          1           0       11.168028   -0.567085    1.058689
    116          1           0       12.711489   -1.556050   -0.679271
    117          1           0       12.547030   -0.097325   -1.756701
    118          1           0       13.608295    1.240799    0.325497
    119          1           0       13.460150   -0.420419    1.182660
    120          1           0       15.123150    0.162221   -1.453123
    121          1           0       15.004499   -2.356447   -0.648475
    122          1           0       16.525907   -1.670182   -0.433619
    123          1           0       15.645634   -1.877070    0.909680
    124          1           0       16.096887    1.785298    0.672881
    125          1           0       16.224700    0.462248    1.717525
    126          1           0       18.121353   -0.441913    0.030838
    127          1           0       17.733859    0.878794   -1.107766
    128          1           0       18.387072    2.574330    0.470708
    129          1           0       18.611042    1.213140    1.721287
    130          1           0       20.343517    0.364050   -0.106255
    131          1           0       19.513547    3.175073   -1.589648
    132          1           0       21.169770    2.243966   -1.564212
    133          1           0       19.737210    1.483792   -2.283305
    134          1           0       21.235647    2.091836    1.914124
    135          1           0       22.016924    2.476898    0.421891
    136          1           0       20.303210    3.445759    0.906731
    137          1           0       -6.943387    1.802698    0.475455
    138          1           0       -7.406312   -0.252023   -0.331704
 ---------------------------------------------------------------------

 SCF Done:  E(RB3LYP) =  -2733.04118887     A.U. after   18 cycles

 Excitation energies and oscillator strengths:

 Excited State   1:      Singlet-A      2.0009 eV  619.64 nm  f=0.2316  <S**2>=0.000
     235 -> 238        0.27752
     236 -> 237        0.64676
 This state for optimization and/or second-order correction.
 Total Energy, E(TD-HF/TD-DFT) =  -2732.96765741
 Copying the excited state density for this state as the 1-particle RhoCI density.

 The electronic state is 1-A.
 Alpha  occ. eigenvalues --  -19.19602 -19.17999 -19.12373 -19.12337 -19.11757
 Alpha  occ. eigenvalues --  -14.36599 -14.36307 -14.32411 -14.29798 -10.32074
 Alpha  occ. eigenvalues --  -10.31471 -10.27512 -10.27471 -10.26357 -10.23510
 Alpha  occ. eigenvalues --  -10.23194 -10.23023 -10.22684 -10.22670 -10.22365
 Alpha  occ. eigenvalues --  -10.22298 -10.22227 -10.21800 -10.21378 -10.21272
 Alpha  occ. eigenvalues --  -10.21050 -10.20885 -10.20804 -10.20473 -10.20453
 Alpha  occ. eigenvalues --  -10.20446 -10.20407 -10.20377 -10.20308 -10.20099
 Alpha  occ. eigenvalues --  -10.20022 -10.20009 -10.19914 -10.19891 -10.19831
 Alpha  occ. eigenvalues --  -10.19766 -10.19437 -10.19336 -10.19308 -10.19296
 Alpha  occ. eigenvalues --  -10.19178 -10.19100 -10.19029 -10.19005 -10.18900
 Alpha  occ. eigenvalues --  -10.18885 -10.18874 -10.18823 -10.18730 -10.18590
 Alpha  occ. eigenvalues --  -10.18562 -10.18362 -10.18329 -10.18040 -10.18033
 Alpha  occ. eigenvalues --  -10.18000 -10.17505 -10.17267 -10.16873  -1.12367
 Alpha  occ. eigenvalues --   -1.05442  -1.01183  -1.00967  -0.98792  -0.97912
 Alpha  occ. eigenvalues --   -0.96005  -0.94288  -0.91695  -0.85740  -0.82601
 Alpha  occ. eigenvalues --   -0.81966  -0.81585  -0.81369  -0.81003  -0.80649
 Alpha  occ. eigenvalues --   -0.80390  -0.79854  -0.78946  -0.78601  -0.77250
 Alpha  occ. eigenvalues --   -0.76710  -0.76093  -0.75609  -0.74887  -0.74530
 Alpha  occ. eigenvalues --   -0.74259  -0.73362  -0.72941  -0.71732  -0.70252
 Alpha  occ. eigenvalues --   -0.69151  -0.68740  -0.68473  -0.68084  -0.67464
 Alpha  occ. eigenvalues --   -0.67128  -0.66442  -0.65825  -0.65661  -0.64453
 Alpha  occ. eigenvalues --   -0.63742  -0.62629  -0.62117  -0.61633  -0.61188
 Alpha  occ. eigenvalues --   -0.60258  -0.58213  -0.58142  -0.57969  -0.57452
 Alpha  occ. eigenvalues --   -0.56741  -0.56473  -0.55959  -0.55514  -0.55140
 Alpha  occ. eigenvalues --   -0.54955  -0.54909  -0.54423  -0.54094  -0.53697
 Alpha  occ. eigenvalues --   -0.52763  -0.51901  -0.51393  -0.50730  -0.50193
 Alpha  occ. eigenvalues --   -0.49726  -0.48821  -0.48753  -0.48383  -0.48272
 Alpha  occ. eigenvalues --   -0.47683  -0.47671  -0.47596  -0.47259  -0.47114
 Alpha  occ. eigenvalues --   -0.46939  -0.46519  -0.46220  -0.45914  -0.45596
 Alpha  occ. eigenvalues --   -0.45388  -0.44992  -0.44917  -0.44794  -0.44525
 Alpha  occ. eigenvalues --   -0.44308  -0.44058  -0.44018  -0.43719  -0.43557
 Alpha  occ. eigenvalues --   -0.43334  -0.42993  -0.42860  -0.42790  -0.42638
 Alpha  occ. eigenvalues --   -0.42343  -0.41872  -0.41787  -0.41565  -0.41249
 Alpha  occ. eigenvalues --   -0.41161  -0.40995  -0.40674  -0.40495  -0.40231
 Alpha  occ. eigenvalues --   -0.40004  -0.39804  -0.39633  -0.39246  -0.39141
 Alpha  occ. eigenvalues --   -0.38961  -0.38761  -0.38645  -0.38513  -0.38288
 Alpha  occ. eigenvalues --   -0.38099  -0.37763  -0.37595  -0.37533  -0.37384
 Alpha  occ. eigenvalues --   -0.37336  -0.36968  -0.36703  -0.36546  -0.36446
 Alpha  occ. eigenvalues --   -0.36250  -0.36060  -0.35900  -0.35636  -0.35491
 Alpha  occ. eigenvalues --   -0.35144  -0.35004  -0.34872  -0.34849  -0.34488
 Alpha  occ. eigenvalues --   -0.34384  -0.34296  -0.34137  -0.33960  -0.33869
 Alpha  occ. eigenvalues --   -0.33617  -0.33411  -0.32908  -0.32351  -0.32136
 Alpha  occ. eigenvalues --   -0.32118  -0.31838  -0.31457  -0.31404  -0.31166
 Alpha  occ. eigenvalues --   -0.31083  -0.31021  -0.30817  -0.30275  -0.30224
 Alpha  occ. eigenvalues --   -0.29729  -0.29688  -0.28494  -0.27928  -0.27624
 Alpha  occ. eigenvalues --   -0.27234  -0.26969  -0.26675  -0.25461  -0.24977
 Alpha  occ. eigenvalues --   -0.24545  -0.23774  -0.23469  -0.22368  -0.19719
 Alpha  occ. eigenvalues --   -0.18304
 Alpha virt. eigenvalues --   -0.10108  -0.07233  -0.04258  -0.03008  -0.02182
 Alpha virt. eigenvalues --   -0.01479   0.00257   0.01437   0.02338   0.02714
 Alpha virt. eigenvalues --    0.03926   0.04140   0.04520   0.04634   0.04811

 Mulliken charges:
               1
     1  C    0.083689
     2  C    0.005795
     3  C   -0.111021
     4  C   -0.099822
     5  N   -0.164053
     6  C   -0.089965
     7  C   -0.112745
     8  C    0.035008
     9  C   -0.033367
    10  C   -0.009795
    11  C    0.130104
    12  C    0.045061
    13  C    0.229031
    14  O   -0.326508
    15  O   -0.349809
    16  N   -0.024574
    17  C    0.063243
    18  C   -0.046168
    19  C    0.063779
    20  C    0.109426
    21  C   -0.072166
    22  C   -0.017032
    23  C   -0.095873
    24  N   -0.232359
    25  C    0.027403
    26  C   -0.184370
    27  C   -0.126364
    28  C    0.055037
    29  C    0.292792
    30  C    0.091557
    31  C   -0.025955
    32  N   -0.025640
    33  C    0.096726
    34  C   -0.135443
    35  C   -0.009961
    36  C    0.082955
    37  C    0.143388
    38  C    0.044203
    39  O   -0.184633
    40  C   -0.086274
    41  C    0.178948
    42  O   -0.248070
    43  O   -0.227049
    44  C    0.114405
    45  C    0.195043
    46  C    0.009995
    47  C   -0.138085
    48  C    0.060273
    49  C    0.066132
    50  C   -0.022565
    51  C    0.000654
    52  C   -0.057366
    53  C    0.038852
    54  C    0.022764
    55  C   -0.058185
    56  C    0.106447
    57  C   -0.059614
    58  C    0.060586
    59  C    0.029020
    60  C    0.019971
    61  C    0.026423
    62  C   -0.171968
    63  C   -0.017641
    64  C    0.004888
    65  H   -0.073968
    66  H   -0.015562
    67  H   -0.035087
    68  H    0.044883
    69  H   -0.016118
    70  H    0.022139
    71  H    0.041347
    72  H    0.031735
    73  H    0.023537
    74  H   -0.026317
    75  H    0.024860
    76  H    0.016350
    77  H    0.050610
    78  H    0.030547
    79  H    0.050546
    80  H   -0.024084
    81  H    0.038186
    82  H    0.032520
    83  H    0.021622
    84  H    0.027704
    85  H   -0.130406
    86  H    0.007049
    87  H   -0.020926
    88  H    0.034798
    89  H    0.004420
    90  H    0.024408
    91  H    0.019173
    92  H    0.032336
    93  H    0.041253
    94  H    0.085307
    95  H    0.073412
    96  H    0.024849
    97  H    0.068274
    98  H    0.060926
    99  H    0.062413
   100  H   -0.071692
   101  H    0.014768
   102  H    0.018681
   103  H    0.036451
   104  H   -0.003120
   105  H   -0.007516
   106  H    0.025787
   107  H   -0.013982
   108  H    0.022120
   109  H    0.007570
   110  H   -0.010936
   111  H    0.025178
   112  H    0.008263
   113  H   -0.026441
   114  H   -0.019117
   115  H   -0.004881
   116  H    0.010113
   117  H    0.005455
   118  H   -0.017361
   119  H    0.010603
   120  H    0.014393
   121  H    0.005378
   122  H   -0.038703
   123  H   -0.014126
   124  H   -0.018047
   125  H    0.008514
   126  H    0.011783
   127  H   -0.012588
   128  H   -0.026762
   129  H    0.004718
   130  H    0.011597
   131  H    0.026564
   132  H    0.014421
   133  H    0.020458
   134  H    0.021471
   135  H    0.018337
   136  H    0.034331
   137  H    0.142308
   138  H    0.144114
 Sum of Mulliken charges =  -0.00000

 Dipole moment (field-independent basis, Debye):
    X=              3.3283    Y=              3.1418    Z=              0.5103  Tot=              4.6053
 Quadrupole moment (field-independent basis, Debye-Ang):
   XX=           -332.1288   YY=           -385.9433   ZZ=           -393.7065
   XY=            -17.5620   XZ=              6.3914   YZ=             -4.6587

 Normal termination of Gaussian 16 at Fri Aug 16 00:28:38 2019.
