 Gaussian 16, Revision A.03,
 Gaussian 16:  ES64L-G16RevA.03 25-Dec-2016

 --------------------------
 # td=(NStates=1) B3LYP/SVP
 --------------------------

 --
 TD
 --
 Symbolic Z-matrix:
 Charge =  0 Multiplicity = 1

                         Standard orientation:
 ---------------------------------------------------------------------
 Center     Atomic      Atomic             Coordinates (Angstroms)
 Number     Number       Type             X           Y           Z
 ---------------------------------------------------------------------
      1          6           0       -5.054250   -1.933126    0.484953
      2          6           0       -4.805466    2.756304    1.428507
      3          6           0       -9.273304    3.283743   -0.334004
      4          6           0       -9.810514   -1.544719   -0.849644
      5          7           0       -5.165062    0.498125    0.792492
      6          6           0       -4.484832   -0.716001    0.786216
      7          6           0       -3.167338   -0.514149    1.392439
      8          6           0       -3.106952    0.939062    1.922059
      9          6           0       -4.432554    1.435688    1.345914
     10          6           0       -2.920046    1.063298    3.414327
     11          6           0       -2.168538   -0.863697    0.295626
     12          6           0       -0.638463   -0.676975    0.637772
     13          6           0        0.363518   -0.947629   -0.403938
     14          8           0        0.062769   -1.379389   -1.473101
     15          8           0        1.586629   -0.721109   -0.118096
     16          7           0       -7.074572    2.798308    0.445155
     17          6           0       -5.967720    3.335496    0.989752
     18          6           0       -6.321313    4.823293    1.009908
     19          6           0       -7.530991    5.008557    0.444897
     20          6           0       -8.055633    3.653570    0.108267
     21          6           0       -5.334097    5.791517    1.661007
     22          6           0       -8.257576    6.207303    0.237671
     23          6           0       -9.132268    6.584515   -0.677141
     24          7           0       -9.157329    0.863689   -0.481494
     25          6           0       -9.885520    1.905054   -0.461800
     26          6           0      -11.277769    1.809773   -1.012155
     27          6           0      -11.328451    0.460820   -1.255913
     28          6           0      -10.109990   -0.128083   -0.909936
     29          6           0      -12.302602    2.967081   -1.130425
     30          6           0      -12.578601   -0.290491   -1.823889
     31          6           0      -12.533842   -0.641666   -3.287212
     32          7           0       -7.481347   -1.273224   -0.206542
     33          6           0       -8.613209   -2.038280   -0.584500
     34          6           0       -8.176864   -3.452736   -0.676646
     35          6           0       -6.777771   -3.471105   -0.190370
     36          6           0       -6.458803   -2.071065    0.037922
     37          6           0       -8.870610   -4.635045   -1.087396
     38          6           0       -5.739070   -4.304455    0.032530
     39          8           0       -5.526808   -5.543793   -0.047319
     40          6           0       -4.509938   -3.264521    0.496145
     41          6           0       -3.892436   -3.794085    1.780909
     42          8           0       -4.128186   -3.335203    2.923984
     43          8           0       -3.018752   -4.783474    1.589393
     44          6           0       -2.536341   -5.439648    2.687671
     45          6           0        2.567012   -1.024982   -1.121691
     46          6           0        3.919586   -0.585781   -0.437929
     47          6           0        4.977300    0.092420   -1.099558
     48          6           0        4.683989    0.759176   -2.505037
     49          6           0        6.230623    0.346819   -0.400850
     50          6           0        7.463757   -0.309818   -1.086593
     51          6           0        8.802718   -0.204607   -0.161095
     52          6           0       10.078511   -0.788209   -0.886554
     53          6           0       10.148834   -2.282223   -1.013477
     54          6           0       11.276439   -0.270590   -0.145804
     55          6           0       12.777471   -0.529941   -0.755903
     56          6           0       13.843234    0.012383    0.142881
     57          6           0       15.268760   -0.230168   -0.389974
     58          6           0       15.543709   -1.639111   -0.476207
     59          6           0       16.259017    0.426502    0.500791
     60          6           0       17.696878    0.610342   -0.164583
     61          6           0       18.763854    1.536253    0.661989
     62          6           0       20.181528    1.655535    0.096903
     63          6           0       20.137126    2.288011   -1.218057
     64          6           0       21.003269    2.474945    1.161409
     65          1           0       -3.917773    3.547069    1.702222
     66          1           0      -10.125999    4.206852   -0.395076
     67          1           0      -10.647630   -2.106932   -1.056470
     68          1           0       -3.006406   -1.316078    2.017558
     69          1           0       -2.298779    1.660081    1.396584
     70          1           0       -1.785002    0.573289    3.676801
     71          1           0       -2.816814    2.191567    3.712906
     72          1           0       -3.679002    0.761595    4.229895
     73          1           0       -2.296098   -2.031856   -0.267363
     74          1           0       -2.223028   -0.347576   -0.678563
     75          1           0       -0.538574    0.421370    1.066191
     76          1           0       -0.315756   -1.221906    1.503857
     77          1           0       -4.314604    5.696972    1.260401
     78          1           0       -5.753180    6.712979    1.196643
     79          1           0       -5.432901    5.747451    2.884643
     80          1           0       -7.882058    6.910668    1.056858
     81          1           0       -9.377662    5.981361   -1.623272
     82          1           0       -9.448220    7.664692   -0.469665
     83          1           0      -12.774636    3.235595    0.070645
     84          1           0      -11.986531    3.989859   -1.635149
     85          1           0      -13.382299    2.883041   -1.401336
     86          1           0      -12.768403   -1.316905   -1.173652
     87          1           0      -13.369451    0.234097   -1.426263
     88          1           0      -12.372387    0.159545   -3.990172
     89          1           0      -11.577275   -1.307822   -3.448815
     90          1           0      -13.234698   -1.281016   -3.563685
     91          1           0       -9.591249   -5.033629   -0.160449
     92          1           0       -9.482732   -4.169372   -1.907981
     93          1           0       -8.097866   -5.539499   -1.530666
     94          1           0       -3.725141   -3.472738   -0.378137
     95          1           0       -1.873142   -6.139552    2.343690
     96          1           0       -2.005932   -4.674315    3.219328
     97          1           0       -3.248624   -5.784559    3.370806
     98          1           0        2.498692   -2.015704   -1.405154
     99          1           0        2.620069   -0.323967   -2.055668
    100          1           0        4.028781   -0.961461    0.483970
    101          1           0        4.728430    1.976827   -2.401921
    102          1           0        5.597731    0.593723   -3.188856
    103          1           0        3.686578    0.332115   -2.908322
    104          1           0        6.156185    1.426684   -0.361063
    105          1           0        6.104656   -0.031535    0.636195
    106          1           0        7.284603   -1.245464   -1.245100
    107          1           0        7.556631    0.092648   -2.071239
    108          1           0        8.768770    0.876873    0.257680
    109          1           0        8.632150   -0.662886    0.823674
    110          1           0       10.143024   -0.438904   -1.885508
    111          1           0        8.953770   -2.804770   -1.212342
    112          1           0       11.021941   -2.611489   -1.781220
    113          1           0       10.079282   -2.933095   -0.132886
    114          1           0       11.261259    0.786477    0.189899
    115          1           0       11.180535   -0.616284    0.982481
    116          1           0       12.909005   -1.587363   -1.091928
    117          1           0       12.519591    0.154241   -1.540438
    118          1           0       13.611283    1.139139    0.365925
    119          1           0       13.543227   -0.471730    1.165251
    120          1           0       15.282695    0.044733   -1.632656
    121          1           0       14.702515   -2.185667   -1.154302
    122          1           0       16.519706   -2.097347   -1.004427
    123          1           0       15.659991   -2.243260    0.388009
    124          1           0       15.825763    1.437075    0.701051
    125          1           0       16.332568   -0.163854    1.400383
    126          1           0       18.189458   -0.290051   -0.570833
    127          1           0       17.501428    1.101754   -1.251891
    128          1           0       18.382435    2.493574    0.755172
    129          1           0       18.646822    0.844371    1.629582
    130          1           0       20.650402    0.695972    0.104639
    131          1           0       19.813055    3.256185   -1.303822
    132          1           0       21.268387    2.518927   -1.618814
    133          1           0       19.748304    1.722594   -2.044770
    134          1           0       21.005527    1.960720    2.078114
    135          1           0       21.960188    2.481460    0.908214
    136          1           0       20.638366    3.489682    1.354655
    137          1           0       -7.391716    1.741272    0.139886
    138          1           0       -7.530054   -0.228417   -0.211206
 ---------------------------------------------------------------------

 SCF Done:  E(RB3LYP) =  -2732.95296239     A.U. after   16 cycles

 Excitation energies and oscillator strengths:

 Excited State   1:      Singlet-A      2.1523 eV  576.06 nm  f=0.1152  <S**2>=0.000
     235 -> 237       -0.15593
     235 -> 238       -0.31874
     236 -> 237        0.58325
     236 -> 238       -0.16491
 This state for optimization and/or second-order correction.
 Total Energy, E(TD-HF/TD-DFT) =  -2732.87386773
 Copying the excited state density for this state as the 1-particle RhoCI density.

 The electronic state is 1-A.
 Alpha  occ. eigenvalues --  -19.17663 -19.17118 -19.11034 -19.10978 -19.10156
 Alpha  occ. eigenvalues --  -14.38062 -14.37258 -14.31525 -14.31412 -10.30908
 Alpha  occ. eigenvalues --  -10.29883 -10.26864 -10.24843 -10.24726 -10.24631
 Alpha  occ. eigenvalues --  -10.23708 -10.23177 -10.22903 -10.22838 -10.22654
 Alpha  occ. eigenvalues --  -10.22650 -10.22357 -10.22288 -10.21897 -10.21850
 Alpha  occ. eigenvalues --  -10.21726 -10.21661 -10.21497 -10.21483 -10.21251
 Alpha  occ. eigenvalues --  -10.20932 -10.20871 -10.20802 -10.20749 -10.20641
 Alpha  occ. eigenvalues --  -10.20638 -10.20592 -10.20430 -10.20429 -10.20191
 Alpha  occ. eigenvalues --  -10.20083 -10.19923 -10.19920 -10.19893 -10.19858
 Alpha  occ. eigenvalues --  -10.19692 -10.19589 -10.19442 -10.19196 -10.19003
 Alpha  occ. eigenvalues --  -10.18921 -10.18905 -10.18878 -10.18786 -10.18577
 Alpha  occ. eigenvalues --  -10.18454 -10.18449 -10.18352 -10.18293 -10.18285
 Alpha  occ. eigenvalues --  -10.18087 -10.17927 -10.17436 -10.16091  -1.11982
 Alpha  occ. eigenvalues --   -1.09739  -1.00199  -0.99320  -0.98861  -0.98377
 Alpha  occ. eigenvalues --   -0.98096  -0.95346  -0.94814  -0.84884  -0.82659
 Alpha  occ. eigenvalues --   -0.82584  -0.82015  -0.81871  -0.81261  -0.80750
 Alpha  occ. eigenvalues --   -0.80442  -0.80334  -0.79844  -0.78960  -0.77673
 Alpha  occ. eigenvalues --   -0.77106  -0.75696  -0.75387  -0.74985  -0.74612
 Alpha  occ. eigenvalues --   -0.74246  -0.73523  -0.72290  -0.71470  -0.70859
 Alpha  occ. eigenvalues --   -0.70162  -0.69864  -0.68777  -0.68347  -0.67475
 Alpha  occ. eigenvalues --   -0.67052  -0.66801  -0.66168  -0.65809  -0.64847
 Alpha  occ. eigenvalues --   -0.63866  -0.63375  -0.62959  -0.62637  -0.61960
 Alpha  occ. eigenvalues --   -0.60935  -0.60131  -0.58645  -0.58191  -0.57809
 Alpha  occ. eigenvalues --   -0.57727  -0.56445  -0.56380  -0.56183  -0.55861
 Alpha  occ. eigenvalues --   -0.55477  -0.54739  -0.54662  -0.53711  -0.52597
 Alpha  occ. eigenvalues --   -0.52424  -0.51632  -0.51365  -0.50968  -0.50747
 Alpha  occ. eigenvalues --   -0.50125  -0.49363  -0.48886  -0.48420  -0.47917
 Alpha  occ. eigenvalues --   -0.47702  -0.47427  -0.47261  -0.47213  -0.47094
 Alpha  occ. eigenvalues --   -0.46980  -0.46679  -0.46465  -0.46189  -0.45769
 Alpha  occ. eigenvalues --   -0.45388  -0.45192  -0.45022  -0.44861  -0.44484
 Alpha  occ. eigenvalues --   -0.44317  -0.44179  -0.43967  -0.43655  -0.43497
 Alpha  occ. eigenvalues --   -0.43285  -0.43098  -0.42861  -0.42728  -0.42378
 Alpha  occ. eigenvalues --   -0.41990  -0.41914  -0.41691  -0.41531  -0.41479
 Alpha  occ. eigenvalues --   -0.41235  -0.41072  -0.41031  -0.40767  -0.40503
 Alpha  occ. eigenvalues --   -0.40279  -0.39796  -0.39694  -0.39598  -0.39556
 Alpha  occ. eigenvalues --   -0.39382  -0.39101  -0.38784  -0.38736  -0.38545
 Alpha  occ. eigenvalues --   -0.38453  -0.38258  -0.38048  -0.37835  -0.37506
 Alpha  occ. eigenvalues --   -0.37148  -0.37086  -0.36742  -0.36543  -0.36239
 Alpha  occ. eigenvalues --   -0.36013  -0.35884  -0.35662  -0.35603  -0.35290
 Alpha  occ. eigenvalues --   -0.35131  -0.34541  -0.34465  -0.34389  -0.34309
 Alpha  occ. eigenvalues --   -0.33873  -0.33837  -0.33698  -0.33574  -0.33207
 Alpha  occ. eigenvalues --   -0.33063  -0.32730  -0.32690  -0.32557  -0.32345
 Alpha  occ. eigenvalues --   -0.32205  -0.32100  -0.31647  -0.31302  -0.30862
 Alpha  occ. eigenvalues --   -0.30590  -0.30399  -0.30244  -0.29856  -0.29726
 Alpha  occ. eigenvalues --   -0.29068  -0.28986  -0.28683  -0.28535  -0.27908
 Alpha  occ. eigenvalues --   -0.26982  -0.26672  -0.26319  -0.25926  -0.25552
 Alpha  occ. eigenvalues --   -0.24628  -0.23874  -0.23743  -0.23482  -0.19956
 Alpha  occ. eigenvalues --   -0.19242
 Alpha virt. eigenvalues --   -0.10016  -0.08369  -0.04905  -0.02006  -0.00864
 Alpha virt. eigenvalues --   -0.00172   0.00719   0.01836   0.02524   0.03048
 Alpha virt. eigenvalues --    0.03270   0.03462   0.03826   0.04358   0.04472

 Mulliken charges:
               1
     1  C    0.101122
     2  C   -0.125773
     3  C   -0.153438
     4  C   -0.069674
     5  N   -0.162164
     6  C   -0.055688
     7  C    0.125474
     8  C   -0.015740
     9  C   -0.027683
    10  C   -0.020607
    11  C   -0.101428
    12  C    0.040579
    13  C    0.125320
    14  O   -0.243140
    15  O   -0.255264
    16  N   -0.088258
    17  C    0.143481
    18  C   -0.165411
    19  C    0.060190
    20  C    0.066216
    21  C    0.059627
    22  C   -0.086626
    23  C   -0.041688
    24  N   -0.250157
    25  C    0.015464
    26  C   -0.069065
    27  C   -0.102150
    28  C    0.022578
    29  C   -0.048996
    30  C    0.050034
    31  C    0.101965
    32  N   -0.022813
    33  C    0.186138
    34  C   -0.077007
    35  C    0.075061
    36  C    0.025847
    37  C   -0.039167
    38  C   -0.012458
    39  O   -0.224851
    40  C   -0.153366
    41  C    0.212860
    42  O   -0.282733
    43  O   -0.260293
    44  C    0.275239
    45  C    0.281268
    46  C   -0.074856
    47  C   -0.167581
    48  C   -0.012428
    49  C    0.102608
    50  C    0.122179
    51  C   -0.022340
    52  C    0.072900
    53  C   -0.060751
    54  C   -0.064832
    55  C    0.052063
    56  C   -0.011271
    57  C   -0.065574
    58  C   -0.039793
    59  C    0.118349
    60  C   -0.054960
    61  C    0.023360
    62  C   -0.047850
    63  C    0.059029
    64  C    0.118202
    65  H    0.017550
    66  H    0.041799
    67  H   -0.059190
    68  H   -0.023466
    69  H    0.035744
    70  H    0.036518
    71  H    0.014330
    72  H    0.052512
    73  H    0.046110
    74  H    0.006020
    75  H    0.026815
    76  H    0.007760
    77  H    0.037256
    78  H    0.017366
    79  H    0.071132
    80  H    0.013286
    81  H    0.056310
    82  H    0.041625
    83  H    0.027586
    84  H    0.056793
    85  H    0.021519
    86  H    0.002992
    87  H   -0.024015
    88  H    0.017026
    89  H   -0.001134
    90  H   -0.022307
    91  H    0.077868
    92  H    0.038333
    93  H    0.093527
    94  H    0.087003
    95  H    0.002298
    96  H   -0.011144
    97  H    0.007808
    98  H    0.015994
    99  H    0.025846
   100  H   -0.050800
   101  H    0.042157
   102  H    0.030236
   103  H    0.043472
   104  H    0.003420
   105  H   -0.007627
   106  H   -0.059112
   107  H   -0.011796
   108  H    0.004070
   109  H   -0.008569
   110  H   -0.019837
   111  H    0.001391
   112  H    0.057117
   113  H    0.009396
   114  H   -0.018149
   115  H   -0.026924
   116  H    0.021844
   117  H   -0.007948
   118  H    0.005884
   119  H    0.007424
   120  H    0.019001
   121  H    0.008384
   122  H    0.011759
   123  H   -0.012083
   124  H   -0.004454
   125  H   -0.005563
   126  H   -0.004363
   127  H   -0.009845
   128  H   -0.019039
   129  H    0.012944
   130  H   -0.021389
   131  H   -0.020896
   132  H   -0.011363
   133  H    0.010228
   134  H   -0.020400
   135  H   -0.037843
   136  H    0.001294
   137  H    0.209525
   138  H    0.163703
 Sum of Mulliken charges =  -0.00000

 Dipole moment (field-independent basis, Debye):
    X=              1.1267    Y=              5.3742    Z=              0.0683  Tot=              5.4914
 Quadrupole moment (field-independent basis, Debye-Ang):
   XX=           -327.0329   YY=           -386.0839   ZZ=           -396.7400
   XY=            -27.3801   XZ=             14.1776   YZ=              1.0594

 Normal termination of Gaussian 16 at Mon Aug 12 22:52:02 2019.
