 Gaussian 16, Revision A.03,
 Gaussian 16:  ES64L-G16RevA.03 25-Dec-2016

 --------------------------
 # td=(NStates=1) B3LYP/SVP
 --------------------------

 --
 TD
 --
 Symbolic Z-matrix:
 Charge =  0 Multiplicity = 1

                         Standard orientation:
 ---------------------------------------------------------------------
 Center     Atomic      Atomic             Coordinates (Angstroms)
 Number     Number       Type             X           Y           Z
 ---------------------------------------------------------------------
      1          6           0       -5.160274   -1.990626    0.370751
      2          6           0       -4.728207    2.666054    1.537315
      3          6           0       -9.294725    3.524636   -0.128252
      4          6           0       -9.786240   -1.307409   -1.113681
      5          7           0       -5.282602    0.340133    0.760019
      6          6           0       -4.570271   -0.833509    0.713986
      7          6           0       -3.128270   -0.736356    1.172385
      8          6           0       -3.062307    0.781069    1.834189
      9          6           0       -4.484939    1.241724    1.306884
     10          6           0       -3.017222    0.661921    3.477584
     11          6           0       -2.032351   -0.921350    0.162056
     12          6           0       -0.620018   -0.953997    0.555735
     13          6           0        0.377776   -1.104145   -0.464451
     14          8           0        0.145383   -1.589483   -1.572668
     15          8           0        1.584269   -0.696754   -0.181635
     16          7           0       -7.078118    2.764753    0.662051
     17          6           0       -5.935483    3.425305    1.082931
     18          6           0       -6.158165    4.708270    1.220601
     19          6           0       -7.421950    4.987209    0.716714
     20          6           0       -7.995094    3.805646    0.353665
     21          6           0       -5.009022    5.631438    1.768569
     22          6           0       -8.028906    6.378147    0.625010
     23          6           0       -8.868702    6.733707   -0.494271
     24          7           0       -9.117278    1.100186   -0.567089
     25          6           0       -9.861438    2.268248   -0.612959
     26          6           0      -11.196505    2.063579   -1.122210
     27          6           0      -11.306190    0.716968   -1.340157
     28          6           0      -10.073937    0.100984   -0.999456
     29          6           0      -12.188281    3.110382   -1.343472
     30          6           0      -12.545658   -0.025634   -1.725018
     31          6           0      -12.584211   -0.307675   -3.222195
     32          7           0       -7.425879   -1.294093   -0.413225
     33          6           0       -8.575496   -1.978316   -0.877898
     34          6           0       -8.188743   -3.370177   -0.782613
     35          6           0       -6.888889   -3.431486   -0.357510
     36          6           0       -6.478775   -2.117050   -0.055583
     37          6           0       -9.197211   -4.517182   -1.142669
     38          6           0       -5.846994   -4.419352   -0.023482
     39          8           0       -5.734036   -5.562482   -0.203765
     40          6           0       -4.592248   -3.443289    0.472711
     41          6           0       -4.134577   -3.906273    1.782691
     42          8           0       -4.446134   -3.500130    2.891143
     43          8           0       -3.266706   -4.989910    1.624484
     44          6           0       -2.854149   -5.544361    2.879608
     45          6           0        2.710589   -0.886243   -1.131520
     46          6           0        3.959452   -0.582031   -0.508636
     47          6           0        5.033544    0.239720   -0.986525
     48          6           0        4.973312    0.905114   -2.317083
     49          6           0        6.322964    0.435108   -0.169842
     50          6           0        7.558853   -0.272834   -0.935994
     51          6           0        8.756891   -0.263275   -0.033565
     52          6           0        9.996337   -0.884364   -0.715017
     53          6           0        9.954943   -2.383319   -0.521616
     54          6           0       11.430975   -0.302108   -0.062030
     55          6           0       12.680299   -0.702106   -0.767901
     56          6           0       13.792863    0.026804   -0.046191
     57          6           0       15.255145   -0.305179   -0.476078
     58          6           0       15.725072   -1.869545   -0.400863
     59          6           0       16.161726    0.649491    0.274073
     60          6           0       17.676349    0.679311   -0.234248
     61          6           0       18.682738    1.656144    0.565331
     62          6           0       20.162714    1.721746    0.090230
     63          6           0       20.269543    2.166496   -1.359754
     64          6           0       20.913598    2.739049    1.082164
     65          1           0       -3.850946    3.150276    2.136852
     66          1           0      -10.057168    4.354658   -0.008279
     67          1           0      -10.461652   -1.950705   -1.534186
     68          1           0       -3.160619   -1.271221    2.111011
     69          1           0       -2.161951    1.489251    1.406648
     70          1           0       -1.972394    0.493873    3.697867
     71          1           0       -3.426298    1.569446    4.066328
     72          1           0       -3.719492   -0.134592    3.869426
     73          1           0       -2.081751   -1.837493   -0.454470
     74          1           0       -2.289016    0.076487   -0.687564
     75          1           0       -0.473143   -0.079331    1.304886
     76          1           0       -0.433924   -1.863793    1.121932
     77          1           0       -4.100746    5.755677    1.223842
     78          1           0       -5.600102    6.633855    1.685742
     79          1           0       -4.901767    5.130406    2.821008
     80          1           0       -7.794622    6.997581    1.400306
     81          1           0       -9.149902    6.092507   -1.461241
     82          1           0       -9.281810    7.776216   -0.408802
     83          1           0      -12.414723    3.485219   -0.486600
     84          1           0      -12.034532    3.885835   -2.159925
     85          1           0      -13.030537    2.571879   -1.699248
     86          1           0      -12.511507   -0.964619   -1.270870
     87          1           0      -13.461309    0.516939   -1.523233
     88          1           0      -12.686409    0.612018   -3.824767
     89          1           0      -11.653863   -0.736086   -3.428544
     90          1           0      -13.582092   -0.778971   -3.592258
     91          1           0       -9.829945   -4.590963   -0.542064
     92          1           0       -9.447329   -4.324682   -2.262845
     93          1           0       -8.542773   -5.638053   -1.203323
     94          1           0       -3.924504   -3.403959   -0.373393
     95          1           0       -2.000545   -6.285781    2.399065
     96          1           0       -2.688529   -4.630451    3.759296
     97          1           0       -3.639115   -6.416535    3.046838
     98          1           0        2.494585   -2.084575   -1.458502
     99          1           0        2.565855   -0.332019   -2.090404
    100          1           0        4.126474   -1.082873    0.571041
    101          1           0        5.603488    1.843643   -2.582649
    102          1           0        5.208771    0.183174   -3.111770
    103          1           0        3.906919    1.101207   -2.731702
    104          1           0        6.579807    1.532735   -0.092575
    105          1           0        6.122401   -0.123717    0.950770
    106          1           0        7.203008   -1.357783   -1.067565
    107          1           0        7.821178    0.255349   -1.797763
    108          1           0        8.975511    0.569998    0.114135
    109          1           0        8.619897   -0.988739    0.929716
    110          1           0        9.942005   -0.768802   -1.718890
    111          1           0        8.953632   -2.987846   -0.698478
    112          1           0       10.578604   -2.952191   -1.438673
    113          1           0       10.502721   -2.808916    0.556047
    114          1           0       11.275353    0.793958   -0.281511
    115          1           0       11.449170   -0.441197    1.063037
    116          1           0       12.706902   -1.662975   -0.734953
    117          1           0       12.734487   -0.415420   -1.909823
    118          1           0       13.726855    1.395610   -0.415728
    119          1           0       13.880295    0.105295    1.263227
    120          1           0       15.542239   -0.227873   -1.681717
    121          1           0       15.105984   -2.474608   -1.308076
    122          1           0       16.777654   -2.079151   -0.470562
    123          1           0       15.030550   -2.144190    0.776199
    124          1           0       15.808078    1.604204    0.272111
    125          1           0       16.158855    0.295764    1.293094
    126          1           0       18.139080   -0.343348   -0.170656
    127          1           0       17.599442    1.068303   -1.277092
    128          1           0       18.338866    2.461077    0.594207
    129          1           0       18.957358    1.220538    1.600347
    130          1           0       20.757209    0.659872    0.182237
    131          1           0       19.931139    3.255263   -1.614408
    132          1           0       21.491947    2.375240   -1.507311
    133          1           0       19.892774    1.404920   -2.179230
    134          1           0       20.678418    2.208289    2.104495
    135          1           0       21.990203    2.637918    0.844656
    136          1           0       20.426339    3.654820    0.992014
    137          1           0       -7.427094    1.654958    0.600052
    138          1           0       -7.228408   -0.348069   -0.484204
 ---------------------------------------------------------------------

 SCF Done:  E(RB3LYP) =  -2732.76117861     A.U. after   17 cycles

 Excitation energies and oscillator strengths:

 Excited State   1:      Singlet-A      2.0606 eV  601.68 nm  f=0.0958  <S**2>=0.000
     235 -> 237        0.52268
     235 -> 238        0.12247
     236 -> 237       -0.28794
     236 -> 238        0.34883
 This state for optimization and/or second-order correction.
 Total Energy, E(TD-HF/TD-DFT) =  -2732.68545135
 Copying the excited state density for this state as the 1-particle RhoCI density.

 The electronic state is 1-A.
 Alpha  occ. eigenvalues --  -19.17292 -19.16820 -19.13925 -19.12664 -19.10448
 Alpha  occ. eigenvalues --  -14.36791 -14.35708 -14.32525 -14.30344 -10.31405
 Alpha  occ. eigenvalues --  -10.30609 -10.28955 -10.26312 -10.26297 -10.23849
 Alpha  occ. eigenvalues --  -10.23193 -10.23175 -10.22888 -10.22749 -10.22715
 Alpha  occ. eigenvalues --  -10.22619 -10.22352 -10.22320 -10.22144 -10.22059
 Alpha  occ. eigenvalues --  -10.22027 -10.21825 -10.21815 -10.21737 -10.21440
 Alpha  occ. eigenvalues --  -10.21161 -10.21063 -10.21054 -10.21007 -10.20948
 Alpha  occ. eigenvalues --  -10.20887 -10.20750 -10.20746 -10.20526 -10.20385
 Alpha  occ. eigenvalues --  -10.20385 -10.20327 -10.20316 -10.20248 -10.20150
 Alpha  occ. eigenvalues --  -10.20033 -10.19996 -10.19581 -10.19491 -10.19440
 Alpha  occ. eigenvalues --  -10.19072 -10.18997 -10.18763 -10.18762 -10.18634
 Alpha  occ. eigenvalues --  -10.18451 -10.18311 -10.18122 -10.18086 -10.18059
 Alpha  occ. eigenvalues --  -10.17418 -10.17261 -10.17034 -10.16866  -1.09450
 Alpha  occ. eigenvalues --   -1.07995  -1.06691  -0.99898  -0.99656  -0.98321
 Alpha  occ. eigenvalues --   -0.96780  -0.94455  -0.91636  -0.84659  -0.82682
 Alpha  occ. eigenvalues --   -0.81982  -0.81491  -0.81231  -0.80611  -0.80454
 Alpha  occ. eigenvalues --   -0.80197  -0.79563  -0.79273  -0.78656  -0.77492
 Alpha  occ. eigenvalues --   -0.76777  -0.76188  -0.75758  -0.74773  -0.73878
 Alpha  occ. eigenvalues --   -0.72963  -0.72719  -0.72028  -0.71285  -0.71018
 Alpha  occ. eigenvalues --   -0.69396  -0.68990  -0.68407  -0.67717  -0.67089
 Alpha  occ. eigenvalues --   -0.66526  -0.66390  -0.65911  -0.65104  -0.64797
 Alpha  occ. eigenvalues --   -0.63847  -0.62639  -0.62340  -0.61660  -0.61137
 Alpha  occ. eigenvalues --   -0.60768  -0.59208  -0.58486  -0.57588  -0.57368
 Alpha  occ. eigenvalues --   -0.56723  -0.56217  -0.56069  -0.55052  -0.54901
 Alpha  occ. eigenvalues --   -0.54567  -0.53710  -0.52996  -0.52894  -0.52668
 Alpha  occ. eigenvalues --   -0.52229  -0.52005  -0.51570  -0.51108  -0.50909
 Alpha  occ. eigenvalues --   -0.49877  -0.49606  -0.49505  -0.48310  -0.48088
 Alpha  occ. eigenvalues --   -0.47993  -0.47693  -0.47288  -0.46943  -0.46727
 Alpha  occ. eigenvalues --   -0.46636  -0.46495  -0.46284  -0.45927  -0.45464
 Alpha  occ. eigenvalues --   -0.45346  -0.45288  -0.45170  -0.44947  -0.44693
 Alpha  occ. eigenvalues --   -0.44541  -0.44426  -0.44320  -0.44039  -0.43904
 Alpha  occ. eigenvalues --   -0.43701  -0.43540  -0.43225  -0.42759  -0.42614
 Alpha  occ. eigenvalues --   -0.42328  -0.42088  -0.42054  -0.41722  -0.41339
 Alpha  occ. eigenvalues --   -0.41165  -0.40926  -0.40628  -0.40474  -0.40425
 Alpha  occ. eigenvalues --   -0.40368  -0.40333  -0.39818  -0.39727  -0.39422
 Alpha  occ. eigenvalues --   -0.38675  -0.38584  -0.38235  -0.38202  -0.37994
 Alpha  occ. eigenvalues --   -0.37841  -0.37492  -0.37408  -0.37132  -0.36874
 Alpha  occ. eigenvalues --   -0.36797  -0.36654  -0.36601  -0.36341  -0.36222
 Alpha  occ. eigenvalues --   -0.36079  -0.36009  -0.35488  -0.35434  -0.35189
 Alpha  occ. eigenvalues --   -0.35013  -0.34977  -0.34884  -0.34838  -0.34606
 Alpha  occ. eigenvalues --   -0.34344  -0.34255  -0.34239  -0.33910  -0.33859
 Alpha  occ. eigenvalues --   -0.33400  -0.33284  -0.33164  -0.32957  -0.32767
 Alpha  occ. eigenvalues --   -0.32610  -0.32361  -0.31416  -0.31241  -0.30684
 Alpha  occ. eigenvalues --   -0.30283  -0.29940  -0.29653  -0.29538  -0.29412
 Alpha  occ. eigenvalues --   -0.29094  -0.28486  -0.28197  -0.27790  -0.27705
 Alpha  occ. eigenvalues --   -0.27527  -0.27471  -0.26931  -0.26681  -0.25951
 Alpha  occ. eigenvalues --   -0.25632  -0.23528  -0.23486  -0.22371  -0.19839
 Alpha  occ. eigenvalues --   -0.19033
 Alpha virt. eigenvalues --   -0.10621  -0.08031  -0.04137  -0.02734  -0.02685
 Alpha virt. eigenvalues --   -0.00664   0.00596   0.01047   0.01506   0.02269
 Alpha virt. eigenvalues --    0.03473   0.03642   0.03691   0.04066   0.04350

 Mulliken charges:
               1
     1  C   -0.031792
     2  C   -0.112219
     3  C   -0.115599
     4  C   -0.024657
     5  N   -0.140640
     6  C   -0.123014
     7  C    0.084787
     8  C   -0.216508
     9  C    0.009875
    10  C    0.014456
    11  C   -0.003215
    12  C    0.092194
    13  C    0.144788
    14  O   -0.276411
    15  O   -0.291153
    16  N   -0.186269
    17  C    0.158942
    18  C   -0.160099
    19  C    0.004928
    20  C    0.113686
    21  C    0.067064
    22  C   -0.008147
    23  C   -0.079048
    24  N   -0.296564
    25  C    0.048151
    26  C   -0.165992
    27  C   -0.102947
    28  C    0.099879
    29  C    0.222629
    30  C    0.143408
    31  C    0.003576
    32  N    0.037366
    33  C    0.034411
    34  C   -0.155123
    35  C   -0.023316
    36  C    0.033120
    37  C    0.149775
    38  C    0.071968
    39  O   -0.089603
    40  C   -0.020789
    41  C    0.252105
    42  O   -0.240082
    43  O   -0.328422
    44  C    0.072614
    45  C    0.215051
    46  C   -0.097106
    47  C   -0.101037
    48  C    0.007300
    49  C    0.003748
    50  C   -0.006576
    51  C    0.219429
    52  C   -0.022959
    53  C   -0.116631
    54  C   -0.020047
    55  C    0.196487
    56  C   -0.142169
    57  C   -0.104607
    58  C   -0.084161
    59  C    0.120386
    60  C   -0.009850
    61  C    0.157825
    62  C   -0.167268
    63  C   -0.051467
    64  C    0.035598
    65  H    0.011119
    66  H    0.009829
    67  H   -0.059127
    68  H    0.001023
    69  H    0.048274
    70  H    0.024136
    71  H    0.025629
    72  H    0.048309
    73  H    0.023815
    74  H    0.028777
    75  H    0.029091
    76  H    0.026705
    77  H    0.038546
    78  H    0.019653
    79  H    0.058035
    80  H   -0.006616
    81  H    0.079829
    82  H    0.036031
    83  H   -0.028596
    84  H    0.028754
    85  H   -0.032643
    86  H   -0.017447
    87  H   -0.006931
    88  H   -0.005388
    89  H    0.000693
    90  H    0.017654
    91  H   -0.061954
    92  H    0.055915
    93  H    0.057136
    94  H    0.055256
    95  H    0.042207
    96  H    0.101718
    97  H    0.045420
    98  H    0.054285
    99  H    0.021585
   100  H    0.020028
   101  H    0.037699
   102  H    0.027033
   103  H    0.025806
   104  H    0.021850
   105  H    0.034525
   106  H    0.020189
   107  H   -0.006573
   108  H   -0.146036
   109  H    0.016469
   110  H   -0.047524
   111  H    0.029893
   112  H    0.012486
   113  H    0.035063
   114  H   -0.003322
   115  H    0.019244
   116  H   -0.057564
   117  H    0.019210
   118  H    0.015802
   119  H    0.042574
   120  H    0.003039
   121  H    0.043407
   122  H    0.039937
   123  H    0.013916
   124  H   -0.034329
   125  H   -0.019975
   126  H    0.005912
   127  H    0.006493
   128  H   -0.116863
   129  H    0.001794
   130  H    0.013639
   131  H    0.016827
   132  H    0.003847
   133  H    0.045901
   134  H    0.018469
   135  H    0.025503
   136  H    0.008083
   137  H    0.224826
   138  H    0.111945
 Sum of Mulliken charges =  -0.00000

 Dipole moment (field-independent basis, Debye):
    X=              1.8845    Y=              4.3472    Z=             -0.1667  Tot=              4.7411
 Quadrupole moment (field-independent basis, Debye-Ang):
   XX=           -340.3966   YY=           -388.5972   ZZ=           -394.8061
   XY=            -13.3361   XZ=              4.1551   YZ=             -0.5453

 Normal termination of Gaussian 16 at Sat Aug 17 23:03:02 2019.
