 Gaussian 16, Revision A.03,
 Gaussian 16:  ES64L-G16RevA.03 25-Dec-2016

 --------------------------
 # td=(NStates=1) B3LYP/SVP
 --------------------------

 --
 TD
 --
 Symbolic Z-matrix:
 Charge =  0 Multiplicity = 1

                         Standard orientation:
 ---------------------------------------------------------------------
 Center     Atomic      Atomic             Coordinates (Angstroms)
 Number     Number       Type             X           Y           Z
 ---------------------------------------------------------------------
      1          6           0       -5.067967   -1.950758    0.410511
      2          6           0       -4.623066    2.716718    1.635816
      3          6           0       -9.156224    3.451828   -0.252711
      4          6           0       -9.714233   -1.302631   -1.091654
      5          7           0       -5.185722    0.411126    0.955332
      6          6           0       -4.500622   -0.733682    0.931879
      7          6           0       -3.078417   -0.545805    1.392361
      8          6           0       -3.021450    0.844573    1.882900
      9          6           0       -4.365907    1.367535    1.419170
     10          6           0       -2.939561    0.916823    3.405999
     11          6           0       -2.003329   -0.890706    0.234485
     12          6           0       -0.575259   -0.802752    0.759117
     13          6           0        0.346377   -1.274153   -0.433737
     14          8           0       -0.131178   -1.546446   -1.518034
     15          8           0        1.656337   -1.109870   -0.084228
     16          7           0       -6.960843    2.790010    0.511362
     17          6           0       -5.837312    3.406566    1.222638
     18          6           0       -6.183229    4.867813    1.315435
     19          6           0       -7.420820    4.986616    0.622491
     20          6           0       -7.937111    3.700360    0.133057
     21          6           0       -5.084564    5.811526    1.789018
     22          6           0       -8.008456    6.289987    0.456079
     23          6           0       -8.952896    6.622741   -0.527997
     24          7           0       -9.062430    0.965189   -0.603959
     25          6           0       -9.722862    2.176879   -0.562969
     26          6           0      -11.041907    1.978254   -1.184966
     27          6           0      -11.292684    0.634867   -1.347868
     28          6           0       -9.965292    0.060714   -1.010614
     29          6           0      -12.113025    3.082318   -1.294521
     30          6           0      -12.362379   -0.063737   -1.982027
     31          6           0      -12.357152   -0.224299   -3.534384
     32          7           0       -7.424112   -1.231252   -0.205466
     33          6           0       -8.535669   -1.915899   -0.780652
     34          6           0       -8.182627   -3.326454   -0.713492
     35          6           0       -6.870718   -3.389054   -0.230184
     36          6           0       -6.440709   -2.036180    0.083742
     37          6           0       -9.069085   -4.395265   -1.133957
     38          6           0       -5.746327   -4.338422    0.004594
     39          8           0       -5.555264   -5.486955   -0.208272
     40          6           0       -4.553106   -3.357217    0.468817
     41          6           0       -4.105710   -3.898366    1.876976
     42          8           0       -4.356122   -3.410409    2.886187
     43          8           0       -3.277800   -4.934262    1.601457
     44          6           0       -2.820619   -5.761177    2.690285
     45          6           0        2.693998   -1.264263   -1.188236
     46          6           0        3.906411   -0.914230   -0.574454
     47          6           0        4.896901   -0.159411   -1.164094
     48          6           0        4.929894    0.353053   -2.568505
     49          6           0        6.140243    0.120325   -0.252786
     50          6           0        7.471245   -0.415745   -0.859606
     51          6           0        8.649155   -0.265668   -0.057551
     52          6           0       10.029835   -0.759610   -0.703031
     53          6           0        9.948678   -2.273736   -0.685224
     54          6           0       11.151966   -0.222368    0.098458
     55          6           0       12.474392   -0.549473   -0.471214
     56          6           0       13.703877    0.164584    0.238681
     57          6           0       15.057692   -0.032771   -0.418284
     58          6           0       15.588668   -1.549917   -0.269534
     59          6           0       16.172302    0.881919    0.253689
     60          6           0       17.469584    0.746418   -0.274165
     61          6           0       18.496865    1.600849    0.440405
     62          6           0       20.040060    1.636728   -0.044672
     63          6           0       20.154020    2.119975   -1.534198
     64          6           0       20.850211    2.633126    0.879103
     65          1           0       -3.848234    3.477113    2.049161
     66          1           0       -9.895423    4.144630   -0.520134
     67          1           0      -10.359333   -2.000485   -1.794725
     68          1           0       -2.958937   -1.336733    2.265275
     69          1           0       -2.220941    1.414644    1.512321
     70          1           0       -2.085296    0.500335    3.918951
     71          1           0       -3.006591    1.988456    3.858993
     72          1           0       -3.749098    0.455623    3.852359
     73          1           0       -2.142418   -1.727040   -0.387814
     74          1           0       -2.245074   -0.115665   -0.674192
     75          1           0       -0.155349    0.175047    0.993737
     76          1           0       -0.602560   -1.460575    1.591831
     77          1           0       -4.289000    6.042198    0.925622
     78          1           0       -5.530386    6.844654    1.933235
     79          1           0       -4.567137    5.314196    2.763435
     80          1           0       -7.894994    7.148567    1.146191
     81          1           0       -9.331142    5.882361   -1.208848
     82          1           0       -9.399926    7.646094   -0.655391
     83          1           0      -12.390626    3.393917   -0.202597
     84          1           0      -11.717619    3.837436   -1.906615
     85          1           0      -12.932120    2.680025   -1.628660
     86          1           0      -12.470636   -1.029193   -1.486598
     87          1           0      -13.418307    0.435028   -1.731885
     88          1           0      -12.435241    0.970160   -3.917314
     89          1           0      -11.353331   -0.768545   -3.999280
     90          1           0      -13.439606   -0.560473   -3.935985
     91          1           0       -9.992517   -4.493268   -0.481029
     92          1           0       -9.667451   -4.255171   -1.966394
     93          1           0       -8.453496   -5.288353   -1.191093
     94          1           0       -3.978884   -3.534865   -0.499104
     95          1           0       -2.294313   -6.516340    2.134996
     96          1           0       -2.328841   -5.178868    3.461803
     97          1           0       -3.887591   -6.328032    3.105204
     98          1           0        2.668027   -2.414255   -1.394481
     99          1           0        2.349395   -0.697915   -2.006625
    100          1           0        4.095273   -0.877348    0.477784
    101          1           0        5.285328    1.437653   -2.710372
    102          1           0        5.702586   -0.402697   -3.262319
    103          1           0        3.934188   -0.019111   -3.010238
    104          1           0        6.165949    1.202430   -0.034743
    105          1           0        5.977677   -0.346323    0.859346
    106          1           0        7.318433   -1.429577   -1.101488
    107          1           0        7.618056   -0.168346   -1.849425
    108          1           0        8.719902    0.816067    0.101635
    109          1           0        8.743816   -0.797468    0.918205
    110          1           0       10.160041   -0.287428   -1.771014
    111          1           0        9.217789   -2.835553   -1.416892
    112          1           0       11.085534   -2.751745   -0.797628
    113          1           0        9.724439   -2.610198    0.448157
    114          1           0       11.067798    0.856868    0.229253
    115          1           0       11.299805   -0.607138    1.195006
    116          1           0       12.885649   -1.398563   -0.696230
    117          1           0       12.562165   -0.193621   -1.554871
    118          1           0       13.463049    1.263330    0.225811
    119          1           0       13.721241   -0.054547    1.414043
    120          1           0       15.022523    0.169228   -1.638620
    121          1           0       15.097197   -2.259851   -0.732839
    122          1           0       16.566186   -1.849924   -0.490236
    123          1           0       15.458841   -1.898906    0.908674
    124          1           0       15.837155    1.933444    0.202711
    125          1           0       16.130262    0.648282    1.427139
    126          1           0       17.823071   -0.364336   -0.556799
    127          1           0       17.263590    1.106620   -1.480252
    128          1           0       18.203006    2.734646    0.490581
    129          1           0       18.393302    1.277882    1.356967
    130          1           0       20.412232    0.524432    0.295684
    131          1           0       19.950161    3.190976   -1.575333
    132          1           0       21.327555    2.018732   -1.972456
    133          1           0       19.754616    1.287987   -2.089146
    134          1           0       20.847940    2.116602    1.915313
    135          1           0       21.796450    2.768764    0.266110
    136          1           0       20.415320    3.598576    1.019439
    137          1           0       -6.875234    1.724601    0.329526
    138          1           0       -7.536415   -0.167198   -0.273122
 ---------------------------------------------------------------------

 SCF Done:  E(RB3LYP) =  -2733.03528894     A.U. after   16 cycles

 Excitation energies and oscillator strengths:

 Excited State   1:      Singlet-A      2.0235 eV  612.71 nm  f=0.1622  <S**2>=0.000
     235 -> 238        0.31323
     236 -> 237        0.62102
 This state for optimization and/or second-order correction.
 Total Energy, E(TD-HF/TD-DFT) =  -2732.96092514
 Copying the excited state density for this state as the 1-particle RhoCI density.

 The electronic state is 1-A.
 Alpha  occ. eigenvalues --  -19.17729 -19.16830 -19.13315 -19.12856 -19.12415
 Alpha  occ. eigenvalues --  -14.36709 -14.36136 -14.32283 -14.29845 -10.31677
 Alpha  occ. eigenvalues --  -10.31392 -10.27675 -10.25616 -10.25527 -10.24706
 Alpha  occ. eigenvalues --  -10.23286 -10.23082 -10.22964 -10.22783 -10.22481
 Alpha  occ. eigenvalues --  -10.22479 -10.22402 -10.21937 -10.21326 -10.21323
 Alpha  occ. eigenvalues --  -10.21209 -10.21081 -10.21072 -10.20920 -10.20794
 Alpha  occ. eigenvalues --  -10.20746 -10.20666 -10.20563 -10.20563 -10.20286
 Alpha  occ. eigenvalues --  -10.20216 -10.20212 -10.20173 -10.20088 -10.19923
 Alpha  occ. eigenvalues --  -10.19719 -10.19597 -10.19581 -10.19557 -10.19468
 Alpha  occ. eigenvalues --  -10.19457 -10.19338 -10.19084 -10.18856 -10.18848
 Alpha  occ. eigenvalues --  -10.18839 -10.18837 -10.18729 -10.18562 -10.18347
 Alpha  occ. eigenvalues --  -10.18095 -10.18085 -10.18041 -10.17841 -10.17632
 Alpha  occ. eigenvalues --  -10.17572 -10.17389 -10.17269 -10.17180  -1.10343
 Alpha  occ. eigenvalues --   -1.07576  -1.04366  -1.02796  -1.00403  -0.97886
 Alpha  occ. eigenvalues --   -0.95760  -0.94764  -0.92919  -0.83634  -0.83364
 Alpha  occ. eigenvalues --   -0.82436  -0.81497  -0.81136  -0.80871  -0.80479
 Alpha  occ. eigenvalues --   -0.80211  -0.79341  -0.79270  -0.78822  -0.77810
 Alpha  occ. eigenvalues --   -0.77072  -0.75804  -0.75185  -0.74825  -0.73904
 Alpha  occ. eigenvalues --   -0.73709  -0.73043  -0.72011  -0.71748  -0.70221
 Alpha  occ. eigenvalues --   -0.69234  -0.68570  -0.68035  -0.67840  -0.67526
 Alpha  occ. eigenvalues --   -0.67285  -0.66783  -0.66399  -0.65141  -0.64848
 Alpha  occ. eigenvalues --   -0.64225  -0.62846  -0.61812  -0.61325  -0.60866
 Alpha  occ. eigenvalues --   -0.60459  -0.59433  -0.58459  -0.57574  -0.57245
 Alpha  occ. eigenvalues --   -0.56879  -0.56115  -0.55755  -0.55113  -0.54575
 Alpha  occ. eigenvalues --   -0.54489  -0.54229  -0.53627  -0.53363  -0.52848
 Alpha  occ. eigenvalues --   -0.52084  -0.51790  -0.51356  -0.50752  -0.50398
 Alpha  occ. eigenvalues --   -0.49634  -0.48938  -0.48542  -0.48396  -0.48339
 Alpha  occ. eigenvalues --   -0.47814  -0.47727  -0.47487  -0.47360  -0.46999
 Alpha  occ. eigenvalues --   -0.46584  -0.46202  -0.45945  -0.45893  -0.45722
 Alpha  occ. eigenvalues --   -0.45389  -0.45331  -0.45138  -0.44982  -0.44821
 Alpha  occ. eigenvalues --   -0.44334  -0.44302  -0.44147  -0.43941  -0.43816
 Alpha  occ. eigenvalues --   -0.43455  -0.43119  -0.43082  -0.42744  -0.42430
 Alpha  occ. eigenvalues --   -0.42271  -0.42037  -0.41554  -0.41467  -0.41134
 Alpha  occ. eigenvalues --   -0.40986  -0.40694  -0.40364  -0.40180  -0.40142
 Alpha  occ. eigenvalues --   -0.39927  -0.39888  -0.39724  -0.39532  -0.39360
 Alpha  occ. eigenvalues --   -0.39229  -0.39053  -0.38811  -0.38653  -0.38246
 Alpha  occ. eigenvalues --   -0.38237  -0.38106  -0.37802  -0.37417  -0.37369
 Alpha  occ. eigenvalues --   -0.37299  -0.37082  -0.36937  -0.36843  -0.36507
 Alpha  occ. eigenvalues --   -0.36375  -0.36309  -0.36277  -0.35688  -0.35580
 Alpha  occ. eigenvalues --   -0.35564  -0.35450  -0.35184  -0.35145  -0.34971
 Alpha  occ. eigenvalues --   -0.34461  -0.34344  -0.34167  -0.33782  -0.33639
 Alpha  occ. eigenvalues --   -0.33472  -0.33247  -0.33125  -0.33049  -0.31950
 Alpha  occ. eigenvalues --   -0.31778  -0.31690  -0.31362  -0.31143  -0.31015
 Alpha  occ. eigenvalues --   -0.30881  -0.30621  -0.30279  -0.30069  -0.30018
 Alpha  occ. eigenvalues --   -0.29748  -0.29041  -0.29006  -0.28148  -0.28091
 Alpha  occ. eigenvalues --   -0.27854  -0.27325  -0.26378  -0.25814  -0.25672
 Alpha  occ. eigenvalues --   -0.24509  -0.24324  -0.22771  -0.22310  -0.19746
 Alpha  occ. eigenvalues --   -0.18491
 Alpha virt. eigenvalues --   -0.09869  -0.07903  -0.03990  -0.01782  -0.01510
 Alpha virt. eigenvalues --    0.00530   0.00780   0.01349   0.02396   0.03440
 Alpha virt. eigenvalues --    0.03570   0.03870   0.03934   0.04364   0.04750

 Mulliken charges:
               1
     1  C   -0.054165
     2  C   -0.080950
     3  C   -0.052264
     4  C   -0.110048
     5  N   -0.148302
     6  C   -0.062711
     7  C   -0.024820
     8  C    0.044068
     9  C    0.028121
    10  C    0.060110
    11  C    0.006450
    12  C    0.068265
    13  C    0.191461
    14  O   -0.241219
    15  O   -0.358996
    16  N   -0.192199
    17  C    0.064338
    18  C   -0.103914
    19  C    0.038805
    20  C    0.254205
    21  C   -0.001146
    22  C   -0.082684
    23  C   -0.066225
    24  N   -0.241315
    25  C    0.000863
    26  C   -0.199757
    27  C   -0.043392
    28  C    0.063976
    29  C    0.199997
    30  C    0.032661
    31  C   -0.081555
    32  N   -0.050887
    33  C    0.033579
    34  C   -0.118442
    35  C   -0.058441
    36  C    0.086135
    37  C    0.145485
    38  C    0.034581
    39  O   -0.129960
    40  C   -0.071782
    41  C    0.220533
    42  O   -0.145573
    43  O   -0.316788
    44  C    0.148127
    45  C    0.317616
    46  C   -0.059258
    47  C   -0.194002
    48  C    0.004821
    49  C    0.031439
    50  C    0.136777
    51  C    0.041938
    52  C   -0.084733
    53  C   -0.058166
    54  C    0.098104
    55  C    0.106576
    56  C   -0.013665
    57  C   -0.109167
    58  C    0.060314
    59  C    0.018257
    60  C   -0.024207
    61  C    0.084653
    62  C   -0.155679
    63  C    0.023848
    64  C    0.019711
    65  H    0.011594
    66  H   -0.059789
    67  H    0.024027
    68  H    0.034607
    69  H   -0.021470
    70  H    0.003999
    71  H    0.005057
    72  H   -0.003780
    73  H    0.010315
    74  H    0.007995
    75  H    0.034761
    76  H    0.018166
    77  H    0.058822
    78  H    0.026313
    79  H    0.064886
    80  H    0.012684
    81  H    0.020393
    82  H    0.032739
    83  H    0.034181
    84  H    0.011507
    85  H   -0.061008
    86  H    0.000010
    87  H    0.007857
    88  H    0.022081
    89  H    0.056500
    90  H    0.036836
    91  H    0.018129
    92  H   -0.016977
    93  H    0.041163
    94  H    0.069157
    95  H    0.042995
    96  H    0.045456
    97  H    0.045608
    98  H    0.046100
    99  H    0.027235
   100  H   -0.002619
   101  H    0.060601
   102  H    0.045229
   103  H    0.018593
   104  H    0.005101
   105  H    0.012440
   106  H   -0.047774
   107  H   -0.047218
   108  H   -0.023696
   109  H   -0.005383
   110  H    0.006567
   111  H    0.047535
   112  H    0.026137
   113  H    0.019594
   114  H   -0.013094
   115  H   -0.001029
   116  H   -0.087957
   117  H   -0.037411
   118  H   -0.010180
   119  H    0.008289
   120  H    0.018861
   121  H   -0.036709
   122  H   -0.014727
   123  H    0.001331
   124  H   -0.001730
   125  H   -0.002643
   126  H    0.021526
   127  H   -0.009308
   128  H   -0.005900
   129  H   -0.055408
   130  H    0.016520
   131  H    0.030366
   132  H    0.009279
   133  H    0.023384
   134  H    0.021361
   135  H    0.021407
   136  H   -0.000403
   137  H    0.184136
   138  H    0.167380
 Sum of Mulliken charges =  -0.00000

 Dipole moment (field-independent basis, Debye):
    X=              3.5940    Y=              3.0771    Z=              0.0283  Tot=              4.7314
 Quadrupole moment (field-independent basis, Debye-Ang):
   XX=           -370.9755   YY=           -380.7454   ZZ=           -394.3519
   XY=            -15.2606   XZ=              6.6442   YZ=             -0.9093

 Normal termination of Gaussian 16 at Thu Aug 29 10:50:01 2019.
