 Gaussian 16, Revision A.03,
 Gaussian 16:  ES64L-G16RevA.03 25-Dec-2016

 --------------------------
 # td=(NStates=1) B3LYP/SVP
 --------------------------

 --
 TD
 --
 Symbolic Z-matrix:
 Charge =  0 Multiplicity = 1

                         Standard orientation:
 ---------------------------------------------------------------------
 Center     Atomic      Atomic             Coordinates (Angstroms)
 Number     Number       Type             X           Y           Z
 ---------------------------------------------------------------------
      1          6           0       -5.118270   -2.007791    0.514840
      2          6           0       -4.711163    2.707209    1.455115
      3          6           0       -9.397604    3.445751   -0.226092
      4          6           0       -9.878640   -1.306362   -0.966389
      5          7           0       -5.137116    0.388394    0.961163
      6          6           0       -4.533360   -0.823586    0.717875
      7          6           0       -3.034160   -0.547330    1.198190
      8          6           0       -3.038385    0.857051    1.798195
      9          6           0       -4.363173    1.321638    1.441405
     10          6           0       -2.681103    0.896946    3.417516
     11          6           0       -2.153459   -0.720567   -0.011215
     12          6           0       -0.590152   -0.767032    0.417601
     13          6           0        0.290638   -1.142703   -0.729097
     14          8           0       -0.020120   -1.508947   -1.792856
     15          8           0        1.489171   -0.883583   -0.257445
     16          7           0       -7.113696    2.770108    0.693772
     17          6           0       -5.846982    3.365081    1.054213
     18          6           0       -6.153053    4.766630    1.084444
     19          6           0       -7.393301    5.040403    0.597948
     20          6           0       -8.082107    3.741728    0.225641
     21          6           0       -5.143392    5.809017    1.496645
     22          6           0       -7.962697    6.289163    0.360003
     23          6           0       -8.829525    6.667339   -0.669395
     24          7           0       -9.177578    1.037632   -0.501903
     25          6           0       -9.916620    2.238924   -0.559561
     26          6           0      -11.260815    1.978318   -0.956663
     27          6           0      -11.392613    0.612810   -1.058426
     28          6           0      -10.054153    0.079356   -0.862137
     29          6           0      -12.282661    3.051675   -1.071035
     30          6           0      -12.704250   -0.122421   -1.580748
     31          6           0      -12.524635   -0.428239   -3.073636
     32          7           0       -7.444576   -1.252092   -0.127605
     33          6           0       -8.609656   -1.923647   -0.639522
     34          6           0       -8.246525   -3.282769   -0.639275
     35          6           0       -6.863133   -3.302910   -0.250538
     36          6           0       -6.474653   -2.068973    0.020154
     37          6           0       -9.150615   -4.476738   -0.870676
     38          6           0       -5.801145   -4.283850    0.145421
     39          8           0       -5.893740   -5.551461    0.210241
     40          6           0       -4.593325   -3.365459    0.489498
     41          6           0       -3.903699   -3.928341    1.767668
     42          8           0       -3.875781   -3.437892    2.841829
     43          8           0       -3.110852   -4.901977    1.417781
     44          6           0       -2.473892   -5.601452    2.529067
     45          6           0        2.574011   -1.213125   -1.268213
     46          6           0        3.876233   -0.739611   -0.699676
     47          6           0        4.947119   -0.148857   -1.260476
     48          6           0        4.869301    0.349153   -2.701049
     49          6           0        6.297542    0.095116   -0.496405
     50          6           0        7.536252   -0.521398   -1.060201
     51          6           0        8.852628   -0.082399   -0.332468
     52          6           0       10.021293   -0.771212   -0.930927
     53          6           0        9.987627   -2.305970   -0.960070
     54          6           0       11.198957   -0.383845   -0.063281
     55          6           0       12.670879   -0.648787   -0.587908
     56          6           0       13.757823    0.001189    0.121849
     57          6           0       15.233175   -0.295978   -0.406276
     58          6           0       15.596951   -1.702301   -0.255573
     59          6           0       16.200854    0.599369    0.405340
     60          6           0       17.622155    0.821887   -0.138658
     61          6           0       18.509671    1.729294    0.754768
     62          6           0       20.107565    1.831056    0.261828
     63          6           0       20.062845    2.433393   -1.203868
     64          6           0       20.987348    2.628052    1.274379
     65          1           0       -3.729917    3.200375    1.718392
     66          1           0      -10.000666    4.372602   -0.153494
     67          1           0      -10.617829   -1.922029   -1.496854
     68          1           0       -2.596733   -1.335554    2.086574
     69          1           0       -2.236820    1.403231    1.290365
     70          1           0       -1.767896    0.319202    3.699803
     71          1           0       -2.867807    1.816060    3.825344
     72          1           0       -3.459192    0.221025    3.836243
     73          1           0       -2.346858   -1.601667   -0.706881
     74          1           0       -2.321794    0.267191   -0.659187
     75          1           0       -0.223758    0.146589    0.863531
     76          1           0       -0.314899   -1.569295    1.256396
     77          1           0       -4.152924    5.386070    0.945738
     78          1           0       -5.552554    6.739333    1.113348
     79          1           0       -5.222378    5.833154    2.749969
     80          1           0       -7.482911    7.098905    0.892121
     81          1           0       -9.177733    5.784263   -1.513383
     82          1           0       -9.141621    7.702967   -0.793209
     83          1           0      -12.432571    3.585600   -0.136657
     84          1           0      -12.007124    3.939449   -1.852010
     85          1           0      -13.310967    2.691277   -1.169063
     86          1           0      -12.663362   -1.061458   -0.904846
     87          1           0      -13.387433    0.455286   -1.255016
     88          1           0      -12.558347    0.509292   -3.523717
     89          1           0      -11.603123   -1.077211   -3.412249
     90          1           0      -13.424634   -0.975257   -3.303308
     91          1           0      -10.071554   -4.565645   -0.202537
     92          1           0       -9.629262   -4.432443   -1.937445
     93          1           0       -8.600465   -5.447280   -0.769422
     94          1           0       -3.854612   -3.612084   -0.250651
     95          1           0       -1.749445   -6.377435    1.923452
     96          1           0       -1.967953   -4.723879    3.012824
     97          1           0       -3.102385   -6.129833    3.344130
     98          1           0        2.462672   -2.362512   -1.313770
     99          1           0        2.437565   -0.756756   -2.165340
    100          1           0        3.918625   -1.247089    0.299770
    101          1           0        5.206031    1.434010   -2.669764
    102          1           0        5.532360   -0.182966   -3.417981
    103          1           0        3.798798    0.504127   -3.076523
    104          1           0        6.391988    1.189175   -0.656625
    105          1           0        5.858825   -0.166121    0.446648
    106          1           0        7.582006   -1.650834   -0.975289
    107          1           0        7.741740   -0.342160   -2.044029
    108          1           0        8.976337    1.016736   -0.328805
    109          1           0        8.921569   -0.489994    0.864620
    110          1           0       10.179626   -0.545248   -1.940166
    111          1           0        9.358167   -2.611743   -1.649307
    112          1           0       10.997238   -2.657445   -1.225562
    113          1           0        9.696052   -2.793183    0.112840
    114          1           0       11.176879    0.676081    0.129001
    115          1           0       11.166151   -0.743396    0.919888
    116          1           0       12.890775   -1.757398   -0.495978
    117          1           0       12.755119   -0.273443   -1.596128
    118          1           0       13.378285    0.991283    0.141405
    119          1           0       13.989836   -0.337487    1.172007
    120          1           0       15.285429    0.015329   -1.335197
    121          1           0       14.942479   -2.340419   -0.849097
    122          1           0       16.719183   -1.820994   -0.594663
    123          1           0       15.915204   -2.042108    0.968917
    124          1           0       15.668032    1.573662    0.614063
    125          1           0       16.559192    0.160592    1.401284
    126          1           0       18.081696   -0.136821   -0.248243
    127          1           0       17.592623    1.222013   -1.201102
    128          1           0       18.269761    2.832962    0.842198
    129          1           0       18.437140    1.161440    1.805091
    130          1           0       20.596842    0.705613    0.211345
    131          1           0       19.406033    3.441874   -1.185326
    132          1           0       21.034054    2.494648   -1.728375
    133          1           0       19.341849    2.028078   -1.904654
    134          1           0       20.979444    2.252097    2.324855
    135          1           0       22.034475    2.754746    0.855920
    136          1           0       20.381276    3.555493    1.526669
    137          1           0       -7.457988    1.810332    0.979414
    138          1           0       -7.452216   -0.203742   -0.187591
 ---------------------------------------------------------------------

 SCF Done:  E(RB3LYP) =  -2733.08046143     A.U. after   17 cycles

 Excitation energies and oscillator strengths:

 Excited State   1:      Singlet-A      2.0220 eV  613.17 nm  f=0.1721  <S**2>=0.000
     235 -> 237       -0.16673
     235 -> 238        0.22590
     236 -> 237        0.62589
     236 -> 238        0.16100
 This state for optimization and/or second-order correction.
 Total Energy, E(TD-HF/TD-DFT) =  -2733.00615406
 Copying the excited state density for this state as the 1-particle RhoCI density.

 The electronic state is 1-A.
 Alpha  occ. eigenvalues --  -19.17675 -19.17071 -19.11971 -19.11885 -19.11643
 Alpha  occ. eigenvalues --  -14.36578 -14.36507 -14.31311 -14.29615 -10.30947
 Alpha  occ. eigenvalues --  -10.29925 -10.27778 -10.26178 -10.24757 -10.24712
 Alpha  occ. eigenvalues --  -10.24465 -10.22966 -10.22693 -10.22352 -10.22122
 Alpha  occ. eigenvalues --  -10.21884 -10.21680 -10.21461 -10.21086 -10.21060
 Alpha  occ. eigenvalues --  -10.20996 -10.20991 -10.20861 -10.20721 -10.20683
 Alpha  occ. eigenvalues --  -10.20428 -10.20377 -10.20270 -10.20263 -10.20249
 Alpha  occ. eigenvalues --  -10.20233 -10.20131 -10.20115 -10.19988 -10.19963
 Alpha  occ. eigenvalues --  -10.19906 -10.19883 -10.19808 -10.19748 -10.19663
 Alpha  occ. eigenvalues --  -10.19642 -10.19046 -10.19021 -10.18994 -10.18993
 Alpha  occ. eigenvalues --  -10.18917 -10.18902 -10.18744 -10.18444 -10.18393
 Alpha  occ. eigenvalues --  -10.18230 -10.18195 -10.17994 -10.17960 -10.17770
 Alpha  occ. eigenvalues --  -10.17754 -10.17532 -10.17215 -10.17201  -1.11207
 Alpha  occ. eigenvalues --   -1.10079  -1.01750  -1.01245  -0.99803  -0.98524
 Alpha  occ. eigenvalues --   -0.95052  -0.94316  -0.92871  -0.85647  -0.83434
 Alpha  occ. eigenvalues --   -0.82315  -0.82090  -0.81528  -0.80902  -0.79725
 Alpha  occ. eigenvalues --   -0.79411  -0.79247  -0.79103  -0.78489  -0.77534
 Alpha  occ. eigenvalues --   -0.76707  -0.75917  -0.75790  -0.74610  -0.74407
 Alpha  occ. eigenvalues --   -0.73540  -0.73157  -0.72686  -0.71938  -0.69651
 Alpha  occ. eigenvalues --   -0.69485  -0.69081  -0.68564  -0.68311  -0.67630
 Alpha  occ. eigenvalues --   -0.67488  -0.67233  -0.66237  -0.65550  -0.64963
 Alpha  occ. eigenvalues --   -0.64506  -0.63153  -0.62621  -0.61783  -0.61564
 Alpha  occ. eigenvalues --   -0.60781  -0.59274  -0.58216  -0.57628  -0.56521
 Alpha  occ. eigenvalues --   -0.56472  -0.56205  -0.55708  -0.55414  -0.55091
 Alpha  occ. eigenvalues --   -0.54198  -0.54057  -0.54026  -0.52944  -0.52720
 Alpha  occ. eigenvalues --   -0.52449  -0.51823  -0.51287  -0.50842  -0.50299
 Alpha  occ. eigenvalues --   -0.50117  -0.49783  -0.49446  -0.48889  -0.48608
 Alpha  occ. eigenvalues --   -0.48345  -0.47993  -0.47802  -0.47074  -0.47008
 Alpha  occ. eigenvalues --   -0.46701  -0.46650  -0.46205  -0.45851  -0.45817
 Alpha  occ. eigenvalues --   -0.45535  -0.45309  -0.44839  -0.44623  -0.44342
 Alpha  occ. eigenvalues --   -0.44106  -0.43810  -0.43495  -0.43385  -0.43315
 Alpha  occ. eigenvalues --   -0.43213  -0.43061  -0.42929  -0.42831  -0.42757
 Alpha  occ. eigenvalues --   -0.42474  -0.42291  -0.42029  -0.41232  -0.41088
 Alpha  occ. eigenvalues --   -0.40808  -0.40692  -0.40489  -0.40329  -0.40270
 Alpha  occ. eigenvalues --   -0.39837  -0.39673  -0.39628  -0.39405  -0.39315
 Alpha  occ. eigenvalues --   -0.39115  -0.38865  -0.38748  -0.38469  -0.38380
 Alpha  occ. eigenvalues --   -0.38201  -0.38043  -0.37905  -0.37746  -0.37326
 Alpha  occ. eigenvalues --   -0.37241  -0.37085  -0.36878  -0.36712  -0.36668
 Alpha  occ. eigenvalues --   -0.36551  -0.36484  -0.35977  -0.35950  -0.35653
 Alpha  occ. eigenvalues --   -0.35493  -0.35289  -0.35274  -0.34900  -0.34879
 Alpha  occ. eigenvalues --   -0.34610  -0.34400  -0.34189  -0.34073  -0.33844
 Alpha  occ. eigenvalues --   -0.33619  -0.33379  -0.33271  -0.32593  -0.32297
 Alpha  occ. eigenvalues --   -0.32040  -0.32017  -0.31737  -0.31517  -0.31170
 Alpha  occ. eigenvalues --   -0.31152  -0.30900  -0.30846  -0.30300  -0.30194
 Alpha  occ. eigenvalues --   -0.29933  -0.29835  -0.28278  -0.28153  -0.28020
 Alpha  occ. eigenvalues --   -0.27622  -0.26507  -0.26334  -0.25443  -0.25339
 Alpha  occ. eigenvalues --   -0.24516  -0.24371  -0.23063  -0.22463  -0.20461
 Alpha  occ. eigenvalues --   -0.18790
 Alpha virt. eigenvalues --   -0.10619  -0.07925  -0.04235  -0.02562  -0.00615
 Alpha virt. eigenvalues --   -0.00335   0.01067   0.01896   0.02581   0.03771
 Alpha virt. eigenvalues --    0.04223   0.04313   0.04518   0.04836   0.04991

 Mulliken charges:
               1
     1  C    0.083658
     2  C   -0.066166
     3  C   -0.133350
     4  C   -0.091810
     5  N   -0.135902
     6  C   -0.057073
     7  C   -0.133256
     8  C   -0.009319
     9  C   -0.105871
    10  C    0.079680
    11  C    0.015344
    12  C   -0.015480
    13  C    0.152649
    14  O   -0.194519
    15  O   -0.330680
    16  N   -0.192829
    17  C    0.215801
    18  C   -0.147725
    19  C    0.088784
    20  C    0.087990
    21  C    0.038786
    22  C   -0.084731
    23  C   -0.087191
    24  N   -0.251969
    25  C    0.129532
    26  C   -0.092062
    27  C   -0.195374
    28  C    0.095997
    29  C    0.079748
    30  C    0.150232
    31  C    0.048980
    32  N   -0.001276
    33  C    0.058811
    34  C   -0.122167
    35  C   -0.038344
    36  C    0.041736
    37  C    0.038274
    38  C    0.082176
    39  O   -0.231484
    40  C   -0.021307
    41  C    0.163080
    42  O   -0.199020
    43  O   -0.275826
    44  C    0.113188
    45  C    0.305213
    46  C   -0.126418
    47  C   -0.157499
    48  C    0.022973
    49  C    0.170535
    50  C    0.070786
    51  C   -0.036753
    52  C   -0.033567
    53  C    0.064649
    54  C    0.060740
    55  C    0.058510
    56  C   -0.009536
    57  C    0.052917
    58  C   -0.026898
    59  C   -0.018829
    60  C    0.045791
    61  C   -0.047360
    62  C   -0.134149
    63  C    0.005103
    64  C    0.038405
    65  H   -0.007456
    66  H    0.001553
    67  H    0.002302
    68  H    0.043383
    69  H   -0.001908
    70  H    0.030376
    71  H   -0.005935
    72  H    0.018881
    73  H    0.042781
    74  H    0.017524
    75  H    0.020963
    76  H    0.037639
    77  H    0.066900
    78  H    0.018878
    79  H    0.062962
    80  H   -0.007879
    81  H    0.072193
    82  H    0.033006
    83  H    0.008097
    84  H    0.035571
    85  H   -0.002909
    86  H    0.008948
    87  H   -0.068006
    88  H    0.004923
    89  H    0.042469
    90  H    0.007765
    91  H    0.034221
    92  H    0.027208
    93  H    0.047254
    94  H    0.052221
    95  H    0.063658
    96  H    0.043672
    97  H    0.065858
    98  H    0.041264
    99  H   -0.017873
   100  H   -0.004552
   101  H    0.009798
   102  H    0.043915
   103  H    0.026522
   104  H   -0.002574
   105  H   -0.004683
   106  H    0.006557
   107  H   -0.034990
   108  H    0.003008
   109  H    0.012072
   110  H   -0.036318
   111  H   -0.030569
   112  H    0.004426
   113  H    0.015225
   114  H   -0.039136
   115  H   -0.029988
   116  H    0.004339
   117  H   -0.020377
   118  H   -0.025966
   119  H   -0.007636
   120  H   -0.061706
   121  H    0.025559
   122  H    0.013975
   123  H    0.023457
   124  H   -0.000604
   125  H   -0.006819
   126  H   -0.014117
   127  H   -0.006459
   128  H    0.020519
   129  H    0.013698
   130  H    0.012172
   131  H   -0.000351
   132  H    0.023637
   133  H    0.002626
   134  H    0.008035
   135  H    0.035105
   136  H   -0.000922
   137  H    0.170599
   138  H    0.157693
 Sum of Mulliken charges =  -0.00000

 Dipole moment (field-independent basis, Debye):
    X=              2.7806    Y=              4.6664    Z=             -0.4495  Tot=              5.4506
 Quadrupole moment (field-independent basis, Debye-Ang):
   XX=           -346.8026   YY=           -386.4254   ZZ=           -393.9107
   XY=            -32.8730   XZ=             -3.0538   YZ=             -0.4004

 Normal termination of Gaussian 16 at Sun Aug 18 14:42:41 2019.
