 Gaussian 16, Revision A.03,
 Gaussian 16:  ES64L-G16RevA.03 25-Dec-2016

 --------------------------
 # td=(NStates=1) B3LYP/SVP
 --------------------------

 --
 TD
 --
 Symbolic Z-matrix:
 Charge =  0 Multiplicity = 1

                         Standard orientation:
 ---------------------------------------------------------------------
 Center     Atomic      Atomic             Coordinates (Angstroms)
 Number     Number       Type             X           Y           Z
 ---------------------------------------------------------------------
      1          6           0       -5.081536   -1.987535    0.322561
      2          6           0       -4.833072    2.759294    1.545231
      3          6           0       -9.364452    3.387008   -0.292117
      4          6           0       -9.817647   -1.431412   -1.058247
      5          7           0       -5.173170    0.437303    0.659788
      6          6           0       -4.514175   -0.824560    0.800241
      7          6           0       -3.115437   -0.606912    1.398379
      8          6           0       -3.105499    0.882592    1.857623
      9          6           0       -4.405511    1.421587    1.338714
     10          6           0       -2.887486    0.895314    3.391946
     11          6           0       -1.998074   -0.893785    0.296279
     12          6           0       -0.612373   -0.767987    0.808918
     13          6           0        0.298634   -1.058148   -0.343940
     14          8           0        0.024201   -1.408327   -1.469743
     15          8           0        1.505938   -0.776123   -0.068706
     16          7           0       -7.038828    2.701456    0.479085
     17          6           0       -6.026539    3.314393    1.100620
     18          6           0       -6.262110    4.698274    1.072300
     19          6           0       -7.552737    4.955411    0.494872
     20          6           0       -8.011634    3.649413    0.097860
     21          6           0       -5.426569    5.840518    1.580014
     22          6           0       -8.205072    6.186850    0.306208
     23          6           0       -9.046506    6.617390   -0.638848
     24          7           0       -9.121028    0.840254   -0.540581
     25          6           0       -9.793040    2.056115   -0.688813
     26          6           0      -11.206526    1.896120   -0.979207
     27          6           0      -11.392848    0.527801   -1.218900
     28          6           0      -10.068762   -0.086967   -0.979962
     29          6           0      -12.191840    2.968855   -1.126602
     30          6           0      -12.660813   -0.169734   -1.638032
     31          6           0      -12.584561   -0.357695   -3.100019
     32          7           0       -7.505370   -1.237669   -0.213319
     33          6           0       -8.611321   -1.972568   -0.680691
     34          6           0       -8.240613   -3.409591   -0.723708
     35          6           0       -6.937492   -3.336081   -0.241873
     36          6           0       -6.465789   -2.021782    0.046651
     37          6           0       -9.158737   -4.420933   -1.169054
     38          6           0       -5.818880   -4.326395   -0.061087
     39          8           0       -5.706597   -5.540190   -0.190163
     40          6           0       -4.589284   -3.327197    0.331535
     41          6           0       -4.023590   -3.865202    1.646987
     42          8           0       -4.295678   -3.448601    2.720859
     43          8           0       -3.152103   -4.811349    1.475340
     44          6           0       -2.420718   -5.360938    2.566294
     45          6           0        2.686087   -1.065371   -0.961091
     46          6           0        4.018525   -0.613331   -0.308171
     47          6           0        5.021402    0.030030   -0.908110
     48          6           0        4.877578    0.721909   -2.277384
     49          6           0        6.343840    0.251729   -0.230085
     50          6           0        7.569953   -0.413970   -0.834899
     51          6           0        8.792094   -0.230739    0.008065
     52          6           0       10.083263   -0.732599   -0.671579
     53          6           0        9.990902   -2.289667   -0.941711
     54          6           0       11.319450   -0.334389    0.165482
     55          6           0       12.567734   -0.669243   -0.559669
     56          6           0       13.842882    0.092488    0.202252
     57          6           0       15.171186   -0.056589   -0.443795
     58          6           0       15.660668   -1.474048   -0.649455
     59          6           0       16.299626    0.769971    0.192668
     60          6           0       17.723664    0.817158   -0.298453
     61          6           0       18.647835    1.651033    0.484989
     62          6           0       20.152561    1.587865    0.071165
     63          6           0       20.402118    2.202312   -1.441242
     64          6           0       21.198161    2.158004    1.065377
     65          1           0       -4.111246    3.418601    2.079653
     66          1           0      -10.299510    4.168589   -0.181065
     67          1           0      -10.449724   -2.194857   -1.171760
     68          1           0       -3.119379   -1.635908    2.125967
     69          1           0       -2.121676    1.333677    1.401169
     70          1           0       -1.897266    0.383608    3.856410
     71          1           0       -3.025092    1.868363    4.037198
     72          1           0       -3.505412    0.210145    3.790773
     73          1           0       -2.028558   -1.881129   -0.060184
     74          1           0       -2.168622   -0.070974   -0.449713
     75          1           0       -0.317178    0.238198    1.288188
     76          1           0       -0.545139   -1.430726    1.693052
     77          1           0       -4.739810    6.264989    0.654457
     78          1           0       -6.064372    6.749046    1.651821
     79          1           0       -4.572852    5.248166    2.398662
     80          1           0       -8.006038    6.943389    0.996754
     81          1           0       -9.383455    6.004414   -1.384818
     82          1           0       -9.468424    7.680917   -0.655303
     83          1           0      -12.291439    3.647606   -0.145460
     84          1           0      -11.947215    3.704558   -1.850041
     85          1           0      -13.099556    2.515352   -1.446411
     86          1           0      -12.805000   -1.192910   -0.973805
     87          1           0      -13.663166    0.173117   -1.336672
     88          1           0      -12.453321    0.544316   -3.782749
     89          1           0      -11.596004   -0.942188   -3.379170
     90          1           0      -13.607866   -0.829004   -3.535665
     91          1           0      -10.114385   -4.465072   -0.537857
     92          1           0       -9.410180   -4.186637   -2.192962
     93          1           0       -8.660812   -5.407879   -1.195945
     94          1           0       -3.835538   -3.828872   -0.467623
     95          1           0       -1.980665   -6.084210    1.999742
     96          1           0       -1.711725   -4.626494    3.041591
     97          1           0       -3.219829   -5.501004    3.377691
     98          1           0        2.789338   -2.113819   -1.108390
     99          1           0        2.456633   -0.569490   -1.889250
    100          1           0        4.108470   -1.172720    0.683282
    101          1           0        4.980051    1.894947   -2.340210
    102          1           0        5.774049    0.468419   -2.956595
    103          1           0        3.933865    0.426057   -2.683985
    104          1           0        6.628567    1.317896   -0.341081
    105          1           0        5.881502   -0.116106    0.831842
    106          1           0        7.410447   -1.564429   -1.091323
    107          1           0        7.768523   -0.009492   -2.009236
    108          1           0        8.893945    0.791044    0.211324
    109          1           0        8.740223   -0.880553    0.962383
    110          1           0       10.212760   -0.198587   -1.633465
    111          1           0        9.192751   -2.579671   -1.712780
    112          1           0       10.872878   -2.959708   -1.346324
    113          1           0       10.045246   -2.929090    0.157083
    114          1           0       11.492913    0.613924    0.178665
    115          1           0       11.254089   -0.813089    1.181278
    116          1           0       12.844991   -1.795970   -0.559538
    117          1           0       12.370150   -0.266670   -1.612044
    118          1           0       13.692087    1.323057    0.368179
    119          1           0       13.880600   -0.455186    1.191961
    120          1           0       14.992835    0.379639   -1.473216
    121          1           0       15.099343   -1.908341   -1.449291
    122          1           0       16.672549   -1.552713   -1.277315
    123          1           0       15.479696   -2.075099    0.366756
    124          1           0       16.029466    1.666363    0.634799
    125          1           0       16.345424    0.267934    1.224788
    126          1           0       18.001347   -0.169035   -0.274419
    127          1           0       17.650632    1.150513   -1.400899
    128          1           0       18.279338    2.721778    0.321921
    129          1           0       18.666206    1.581384    1.690880
    130          1           0       20.234472    0.411648   -0.110999
    131          1           0       20.223906    3.338758   -1.526442
    132          1           0       21.512225    2.104346   -1.478527
    133          1           0       19.825386    1.729658   -2.376005
    134          1           0       20.712009    1.591978    2.113121
    135          1           0       22.146815    1.720422    0.920544
    136          1           0       21.153785    3.467565    1.183853
    137          1           0       -6.915668    1.827761    0.044798
    138          1           0       -7.672225   -0.201599   -0.056487
 ---------------------------------------------------------------------

 SCF Done:  E(RB3LYP) =  -2733.01671686     A.U. after   16 cycles

 Excitation energies and oscillator strengths:

 Excited State   1:      Singlet-A      1.9776 eV  626.94 nm  f=0.1453  <S**2>=0.000
     235 -> 238       -0.30078
     236 -> 237        0.62634
 This state for optimization and/or second-order correction.
 Total Energy, E(TD-HF/TD-DFT) =  -2732.94404162
 Copying the excited state density for this state as the 1-particle RhoCI density.

 The electronic state is 1-A.
 Alpha  occ. eigenvalues --  -19.17189 -19.16737 -19.12606 -19.11441 -19.10262
 Alpha  occ. eigenvalues --  -14.36611 -14.36454 -14.32545 -14.30501 -10.30579
 Alpha  occ. eigenvalues --  -10.30221 -10.28096 -10.25669 -10.24704 -10.23854
 Alpha  occ. eigenvalues --  -10.23566 -10.23388 -10.23345 -10.23113 -10.22688
 Alpha  occ. eigenvalues --  -10.22556 -10.21731 -10.21630 -10.21593 -10.21389
 Alpha  occ. eigenvalues --  -10.21323 -10.21299 -10.21061 -10.20993 -10.20981
 Alpha  occ. eigenvalues --  -10.20955 -10.20938 -10.20917 -10.20472 -10.20333
 Alpha  occ. eigenvalues --  -10.20285 -10.20270 -10.20211 -10.20172 -10.20051
 Alpha  occ. eigenvalues --  -10.20050 -10.20039 -10.20000 -10.19964 -10.19962
 Alpha  occ. eigenvalues --  -10.19768 -10.19767 -10.19665 -10.19435 -10.19378
 Alpha  occ. eigenvalues --  -10.19282 -10.19050 -10.19045 -10.19027 -10.18999
 Alpha  occ. eigenvalues --  -10.18847 -10.18821 -10.18819 -10.18663 -10.18648
 Alpha  occ. eigenvalues --  -10.18228 -10.17581 -10.17013 -10.16954  -1.11345
 Alpha  occ. eigenvalues --   -1.10343  -1.01956  -1.01351  -0.98683  -0.98570
 Alpha  occ. eigenvalues --   -0.98003  -0.92067  -0.91310  -0.84959  -0.83199
 Alpha  occ. eigenvalues --   -0.82507  -0.82321  -0.81471  -0.81445  -0.80857
 Alpha  occ. eigenvalues --   -0.79997  -0.79750  -0.79177  -0.79087  -0.77749
 Alpha  occ. eigenvalues --   -0.77071  -0.76295  -0.76138  -0.75120  -0.74913
 Alpha  occ. eigenvalues --   -0.74232  -0.73753  -0.72783  -0.71338  -0.70361
 Alpha  occ. eigenvalues --   -0.69772  -0.69093  -0.68244  -0.67892  -0.67334
 Alpha  occ. eigenvalues --   -0.66842  -0.66241  -0.65990  -0.65658  -0.65431
 Alpha  occ. eigenvalues --   -0.64201  -0.63364  -0.62025  -0.61404  -0.60868
 Alpha  occ. eigenvalues --   -0.60423  -0.58954  -0.58446  -0.57645  -0.56920
 Alpha  occ. eigenvalues --   -0.56400  -0.55742  -0.55668  -0.55456  -0.55416
 Alpha  occ. eigenvalues --   -0.55048  -0.54442  -0.54093  -0.53381  -0.53314
 Alpha  occ. eigenvalues --   -0.52985  -0.51935  -0.51313  -0.51178  -0.50386
 Alpha  occ. eigenvalues --   -0.50162  -0.49672  -0.49107  -0.49047  -0.48654
 Alpha  occ. eigenvalues --   -0.48248  -0.47796  -0.47592  -0.47387  -0.47337
 Alpha  occ. eigenvalues --   -0.46694  -0.46078  -0.45849  -0.45703  -0.45604
 Alpha  occ. eigenvalues --   -0.45448  -0.45310  -0.44993  -0.44948  -0.44551
 Alpha  occ. eigenvalues --   -0.44231  -0.44115  -0.43963  -0.43874  -0.43664
 Alpha  occ. eigenvalues --   -0.43259  -0.43087  -0.42752  -0.42644  -0.42269
 Alpha  occ. eigenvalues --   -0.41978  -0.41766  -0.41699  -0.41604  -0.41318
 Alpha  occ. eigenvalues --   -0.40909  -0.40739  -0.40643  -0.40481  -0.40296
 Alpha  occ. eigenvalues --   -0.40008  -0.39832  -0.39658  -0.39487  -0.39157
 Alpha  occ. eigenvalues --   -0.38926  -0.38836  -0.38748  -0.38571  -0.38406
 Alpha  occ. eigenvalues --   -0.38291  -0.38072  -0.37727  -0.37430  -0.37412
 Alpha  occ. eigenvalues --   -0.37213  -0.37126  -0.36858  -0.36695  -0.36681
 Alpha  occ. eigenvalues --   -0.36615  -0.36325  -0.35775  -0.35746  -0.35638
 Alpha  occ. eigenvalues --   -0.35542  -0.35185  -0.34824  -0.34650  -0.34451
 Alpha  occ. eigenvalues --   -0.33883  -0.33660  -0.33576  -0.33481  -0.33392
 Alpha  occ. eigenvalues --   -0.33224  -0.32984  -0.32811  -0.32537  -0.32261
 Alpha  occ. eigenvalues --   -0.32103  -0.31786  -0.31318  -0.31067  -0.30801
 Alpha  occ. eigenvalues --   -0.30764  -0.30325  -0.30177  -0.29955  -0.29894
 Alpha  occ. eigenvalues --   -0.29791  -0.29390  -0.28434  -0.27789  -0.27452
 Alpha  occ. eigenvalues --   -0.27165  -0.26867  -0.26363  -0.26090  -0.25891
 Alpha  occ. eigenvalues --   -0.25671  -0.24424  -0.23597  -0.22223  -0.19649
 Alpha  occ. eigenvalues --   -0.18829
 Alpha virt. eigenvalues --   -0.10392  -0.07886  -0.04021  -0.02135  -0.00718
 Alpha virt. eigenvalues --   -0.00525   0.01002   0.01495   0.02067   0.02592
 Alpha virt. eigenvalues --    0.03597   0.03638   0.03948   0.03983   0.04195

 Mulliken charges:
               1
     1  C    0.064109
     2  C   -0.080819
     3  C   -0.144740
     4  C   -0.026231
     5  N   -0.264935
     6  C   -0.015764
     7  C   -0.121175
     8  C    0.014293
     9  C    0.028967
    10  C    0.025537
    11  C    0.062787
    12  C   -0.006772
    13  C    0.153295
    14  O   -0.256932
    15  O   -0.286536
    16  N   -0.016191
    17  C    0.120594
    18  C   -0.129212
    19  C    0.104700
    20  C    0.087281
    21  C    0.019635
    22  C   -0.074207
    23  C   -0.020786
    24  N   -0.301823
    25  C    0.086491
    26  C   -0.154929
    27  C   -0.074278
    28  C    0.154627
    29  C    0.109689
    30  C    0.034933
    31  C   -0.043119
    32  N   -0.041223
    33  C   -0.005978
    34  C   -0.108688
    35  C   -0.084388
    36  C    0.129032
    37  C    0.104474
    38  C    0.099543
    39  O   -0.173584
    40  C   -0.166465
    41  C    0.151468
    42  O   -0.215553
    43  O   -0.267462
    44  C    0.186050
    45  C    0.285235
    46  C   -0.129363
    47  C   -0.101019
    48  C    0.038477
    49  C    0.086094
    50  C   -0.096712
    51  C    0.121525
    52  C   -0.090720
    53  C   -0.082587
    54  C    0.160602
    55  C   -0.034977
    56  C   -0.064021
    57  C   -0.011820
    58  C    0.004874
    59  C    0.031990
    60  C    0.110175
    61  C   -0.005732
    62  C   -0.133338
    63  C   -0.048010
    64  C   -0.026304
    65  H   -0.021804
    66  H    0.054881
    67  H   -0.089868
    68  H    0.061506
    69  H    0.031198
    70  H    0.013010
    71  H    0.026151
    72  H   -0.008483
    73  H    0.005616
    74  H    0.020150
    75  H    0.038162
    76  H    0.020577
    77  H    0.038715
    78  H    0.020415
    79  H    0.063714
    80  H   -0.024479
    81  H   -0.008471
    82  H    0.035418
    83  H    0.033468
    84  H    0.006256
    85  H   -0.000407
    86  H    0.014392
    87  H    0.005006
    88  H    0.022067
    89  H    0.026551
    90  H    0.020578
    91  H    0.053265
    92  H    0.026752
    93  H    0.036198
    94  H    0.084634
    95  H    0.031669
    96  H    0.028347
    97  H    0.052864
    98  H    0.027083
    99  H    0.024294
   100  H    0.015022
   101  H    0.036347
   102  H    0.025957
   103  H   -0.000550
   104  H    0.004116
   105  H    0.028712
   106  H    0.016267
   107  H    0.012672
   108  H   -0.026475
   109  H    0.010245
   110  H   -0.013932
   111  H    0.039615
   112  H    0.021961
   113  H    0.019224
   114  H   -0.067819
   115  H   -0.001926
   116  H    0.021149
   117  H    0.003398
   118  H    0.028529
   119  H   -0.000362
   120  H   -0.021110
   121  H   -0.007778
   122  H    0.023782
   123  H    0.028976
   124  H   -0.057163
   125  H   -0.041484
   126  H   -0.029026
   127  H    0.005021
   128  H   -0.007941
   129  H    0.004541
   130  H    0.013642
   131  H    0.015023
   132  H    0.011377
   133  H    0.040584
   134  H    0.026297
   135  H    0.024667
   136  H    0.055063
   137  H    0.138051
   138  H    0.165821
 Sum of Mulliken charges =  -0.00000

 Dipole moment (field-independent basis, Debye):
    X=              2.6538    Y=              3.4202    Z=              0.1261  Tot=              4.3309
 Quadrupole moment (field-independent basis, Debye-Ang):
   XX=           -344.0313   YY=           -382.3457   ZZ=           -398.1643
   XY=            -27.9540   XZ=              5.7551   YZ=             -3.7097

 Normal termination of Gaussian 16 at Tue Aug 13 23:14:15 2019.
