 Gaussian 16, Revision A.03,
 Gaussian 16:  ES64L-G16RevA.03 25-Dec-2016

 --------------------------
 # td=(NStates=1) B3LYP/SVP
 --------------------------

 --
 TD
 --
 Symbolic Z-matrix:
 Charge =  0 Multiplicity = 1

                         Standard orientation:
 ---------------------------------------------------------------------
 Center     Atomic      Atomic             Coordinates (Angstroms)
 Number     Number       Type             X           Y           Z
 ---------------------------------------------------------------------
      1          6           0       -5.142811   -1.977619    0.600468
      2          6           0       -4.770517    2.861742    1.397128
      3          6           0       -9.402222    3.222280   -0.298035
      4          6           0       -9.761242   -1.550689   -0.958989
      5          7           0       -5.253292    0.388207    0.821335
      6          6           0       -4.514116   -0.697679    0.828275
      7          6           0       -3.056743   -0.426938    1.257494
      8          6           0       -3.144946    0.996150    1.917962
      9          6           0       -4.406049    1.458456    1.311327
     10          6           0       -2.979594    1.107678    3.408607
     11          6           0       -2.073730   -0.706224    0.188954
     12          6           0       -0.658851   -0.585470    0.605982
     13          6           0        0.411315   -0.972337   -0.485643
     14          8           0        0.100975   -1.661019   -1.440887
     15          8           0        1.646792   -0.479470   -0.165766
     16          7           0       -7.117598    2.730007    0.579401
     17          6           0       -5.992345    3.430899    1.046547
     18          6           0       -6.355245    4.870852    1.074907
     19          6           0       -7.580444    4.970543    0.511906
     20          6           0       -8.159209    3.556845    0.137517
     21          6           0       -5.276690    5.883262    1.394487
     22          6           0       -8.272190    6.203500    0.265526
     23          6           0       -9.256322    6.648973   -0.549675
     24          7           0       -9.167923    0.798637   -0.546781
     25          6           0       -9.766038    1.954350   -0.607391
     26          6           0      -11.280068    1.717087   -1.049653
     27          6           0      -11.373697    0.398656   -1.292616
     28          6           0      -10.083631   -0.187964   -0.967391
     29          6           0      -12.233666    2.888227   -1.204658
     30          6           0      -12.592879   -0.293625   -1.636817
     31          6           0      -12.628322   -0.727273   -3.140357
     32          7           0       -7.439495   -1.287547   -0.108075
     33          6           0       -8.554913   -2.131371   -0.606278
     34          6           0       -8.072037   -3.480967   -0.472402
     35          6           0       -6.804167   -3.488091   -0.170752
     36          6           0       -6.493464   -2.050962    0.182979
     37          6           0       -8.950929   -4.645081   -1.105177
     38          6           0       -5.666713   -4.428331    0.238554
     39          8           0       -5.680814   -5.656165    0.051317
     40          6           0       -4.485435   -3.376436    0.554177
     41          6           0       -3.763200   -3.815159    1.898668
     42          8           0       -3.914315   -3.296187    3.038536
     43          8           0       -2.884444   -4.792041    1.534564
     44          6           0       -2.311540   -5.529203    2.775277
     45          6           0        2.554043   -1.024176   -1.203784
     46          6           0        3.937942   -0.589863   -0.683069
     47          6           0        4.849553    0.266074   -1.169056
     48          6           0        4.608848    0.803654   -2.540601
     49          6           0        6.194350    0.533355   -0.447567
     50          6           0        7.434894   -0.265030   -1.007785
     51          6           0        8.740993   -0.095385   -0.238425
     52          6           0       10.015584   -0.605997   -0.939532
     53          6           0       10.119977   -2.154306   -1.267842
     54          6           0       11.265941   -0.178504   -0.174045
     55          6           0       12.615583   -0.468218   -0.801257
     56          6           0       13.837219    0.074636    0.131948
     57          6           0       15.210581   -0.188234   -0.497726
     58          6           0       15.485309   -1.652745   -0.862464
     59          6           0       16.244494    0.582175    0.399342
     60          6           0       17.698761    0.576695   -0.118511
     61          6           0       18.604353    1.510112    0.819946
     62          6           0       20.057902    1.486784    0.378505
     63          6           0       20.309056    2.011713   -1.016204
     64          6           0       21.082529    2.139815    1.413275
     65          1           0       -4.016685    3.431679    1.923721
     66          1           0      -10.172752    3.919068   -0.510694
     67          1           0      -10.509941   -2.449717   -1.274474
     68          1           0       -2.770016   -1.105932    1.980207
     69          1           0       -2.396837    1.739340    1.330095
     70          1           0       -1.950159    0.668130    3.711826
     71          1           0       -2.923697    2.385385    3.569120
     72          1           0       -3.793800    0.814863    3.762945
     73          1           0       -2.168599   -1.747885   -0.228288
     74          1           0       -2.346536   -0.069905   -0.554773
     75          1           0       -0.558459    0.495415    0.681085
     76          1           0       -0.498920   -1.164292    1.558952
     77          1           0       -4.333775    5.762283    0.882751
     78          1           0       -5.703446    6.898502    1.183192
     79          1           0       -5.141127    5.850328    2.573071
     80          1           0       -8.008602    6.941231    1.155745
     81          1           0       -9.421618    6.076840   -1.397827
     82          1           0       -9.627124    7.591547   -0.761550
     83          1           0      -12.087128    3.585890   -0.361048
     84          1           0      -12.086993    3.458721   -2.167827
     85          1           0      -13.122609    2.516747   -1.368371
     86          1           0      -12.684664   -1.211758   -1.003361
     87          1           0      -13.389870    0.283252   -1.428126
     88          1           0      -12.470885    0.150790   -3.788739
     89          1           0      -11.521286   -1.377145   -3.306168
     90          1           0      -13.601371   -1.279322   -3.449973
     91          1           0       -9.970811   -4.740129   -0.667212
     92          1           0       -9.103217   -4.421914   -2.195453
     93          1           0       -8.591767   -5.561186   -0.839863
     94          1           0       -3.607124   -3.423923   -0.185445
     95          1           0       -1.451287   -6.177725    2.357198
     96          1           0       -1.889436   -4.462833    3.230214
     97          1           0       -2.962580   -5.977620    3.423528
     98          1           0        2.533832   -2.079512   -1.101133
     99          1           0        2.193046   -0.629784   -2.227916
    100          1           0        4.055368   -0.765363    0.421437
    101          1           0        4.888277    1.988353   -2.504775
    102          1           0        5.694872    0.537888   -3.210774
    103          1           0        3.678941    0.612138   -3.092163
    104          1           0        6.368274    1.649251   -0.511057
    105          1           0        6.200831    0.070219    0.627265
    106          1           0        7.041099   -1.247079   -0.983029
    107          1           0        7.821514    0.041503   -2.215172
    108          1           0        8.759480    1.042979   -0.095233
    109          1           0        8.567492   -0.736019    0.817155
    110          1           0       10.127668   -0.069408   -1.963440
    111          1           0        9.402575   -2.215662   -2.024837
    112          1           0       11.138323   -2.126680   -1.725902
    113          1           0        9.955331   -2.733709   -0.318131
    114          1           0       11.110521    0.802312    0.188690
    115          1           0       11.199733   -0.917031    0.849400
    116          1           0       12.875481   -1.493951   -1.140109
    117          1           0       12.687632    0.033786   -1.784997
    118          1           0       13.676549    1.086284    0.317329
    119          1           0       13.561142   -0.542650    1.123229
    120          1           0       15.367537    0.317625   -1.593460
    121          1           0       14.516181   -2.033008   -1.477955
    122          1           0       16.365924   -1.686507   -1.429938
    123          1           0       15.840073   -2.078146    0.118750
    124          1           0       15.899588    1.640952    0.568272
    125          1           0       16.252485    0.158178    1.390995
    126          1           0       18.177221   -0.453127   -0.160732
    127          1           0       17.826406    0.898415   -1.223998
    128          1           0       18.311466    2.490842    0.510347
    129          1           0       18.699295    1.362235    1.676270
    130          1           0       20.453186    0.454111    0.538863
    131          1           0       20.297876    3.027777   -0.827859
    132          1           0       21.340218    1.665116   -1.286951
    133          1           0       19.591085    1.637795   -1.952935
    134          1           0       20.658906    1.985491    2.506554
    135          1           0       22.038650    1.826707    1.144897
    136          1           0       20.861009    3.350192    1.202328
    137          1           0       -7.335276    1.560387    0.485797
    138          1           0       -7.605657   -0.321516   -0.189148
 ---------------------------------------------------------------------

 SCF Done:  E(RB3LYP) =  -2732.94847380     A.U. after   16 cycles

 Excitation energies and oscillator strengths:

 Excited State   1:      Singlet-A      1.9828 eV  625.29 nm  f=0.2119  <S**2>=0.000
     235 -> 237        0.11439
     235 -> 238       -0.25312
     236 -> 237        0.64235
 This state for optimization and/or second-order correction.
 Total Energy, E(TD-HF/TD-DFT) =  -2732.87560598
 Copying the excited state density for this state as the 1-particle RhoCI density.

 The electronic state is 1-A.
 Alpha  occ. eigenvalues --  -19.18878 -19.18656 -19.13358 -19.13212 -19.13107
 Alpha  occ. eigenvalues --  -14.37782 -14.36622 -14.32548 -14.30760 -10.32421
 Alpha  occ. eigenvalues --  -10.32096 -10.29278 -10.26416 -10.25686 -10.24462
 Alpha  occ. eigenvalues --  -10.24055 -10.23539 -10.23372 -10.22935 -10.22924
 Alpha  occ. eigenvalues --  -10.22908 -10.21783 -10.21722 -10.21298 -10.21090
 Alpha  occ. eigenvalues --  -10.21083 -10.21041 -10.20980 -10.20968 -10.20829
 Alpha  occ. eigenvalues --  -10.20809 -10.20736 -10.20691 -10.20570 -10.20405
 Alpha  occ. eigenvalues --  -10.20374 -10.20254 -10.20233 -10.20129 -10.19856
 Alpha  occ. eigenvalues --  -10.19834 -10.19817 -10.19685 -10.19250 -10.19137
 Alpha  occ. eigenvalues --  -10.18977 -10.18927 -10.18918 -10.18876 -10.18794
 Alpha  occ. eigenvalues --  -10.18794 -10.18668 -10.18631 -10.18488 -10.18412
 Alpha  occ. eigenvalues --  -10.18368 -10.18354 -10.18341 -10.18339 -10.18143
 Alpha  occ. eigenvalues --  -10.18009 -10.18008 -10.17660 -10.15880  -1.09260
 Alpha  occ. eigenvalues --   -1.07023  -1.01514  -1.01102  -0.99310  -0.98515
 Alpha  occ. eigenvalues --   -0.95577  -0.93804  -0.93299  -0.82984  -0.82407
 Alpha  occ. eigenvalues --   -0.82088  -0.81791  -0.81557  -0.81261  -0.80968
 Alpha  occ. eigenvalues --   -0.80659  -0.80038  -0.79600  -0.79452  -0.77580
 Alpha  occ. eigenvalues --   -0.76538  -0.75602  -0.75225  -0.74390  -0.74128
 Alpha  occ. eigenvalues --   -0.73218  -0.72568  -0.71763  -0.71192  -0.70131
 Alpha  occ. eigenvalues --   -0.69895  -0.69420  -0.68743  -0.68120  -0.67534
 Alpha  occ. eigenvalues --   -0.67485  -0.66924  -0.66368  -0.65701  -0.64914
 Alpha  occ. eigenvalues --   -0.64233  -0.62908  -0.62664  -0.62018  -0.61412
 Alpha  occ. eigenvalues --   -0.61149  -0.59552  -0.58648  -0.57428  -0.56913
 Alpha  occ. eigenvalues --   -0.56681  -0.56105  -0.55838  -0.54933  -0.54608
 Alpha  occ. eigenvalues --   -0.54162  -0.53977  -0.53187  -0.53049  -0.52982
 Alpha  occ. eigenvalues --   -0.52493  -0.51883  -0.51374  -0.50818  -0.49991
 Alpha  occ. eigenvalues --   -0.49000  -0.48951  -0.48645  -0.48622  -0.48518
 Alpha  occ. eigenvalues --   -0.48261  -0.47973  -0.47546  -0.47374  -0.47155
 Alpha  occ. eigenvalues --   -0.46811  -0.46658  -0.46144  -0.45968  -0.45866
 Alpha  occ. eigenvalues --   -0.45611  -0.45311  -0.44966  -0.44705  -0.44625
 Alpha  occ. eigenvalues --   -0.44189  -0.44100  -0.43969  -0.43853  -0.43749
 Alpha  occ. eigenvalues --   -0.43278  -0.43208  -0.43037  -0.42785  -0.42695
 Alpha  occ. eigenvalues --   -0.42583  -0.42498  -0.42011  -0.41766  -0.41544
 Alpha  occ. eigenvalues --   -0.41298  -0.41169  -0.40864  -0.40578  -0.40347
 Alpha  occ. eigenvalues --   -0.40189  -0.40109  -0.40004  -0.39738  -0.39227
 Alpha  occ. eigenvalues --   -0.39125  -0.38797  -0.38739  -0.38689  -0.38399
 Alpha  occ. eigenvalues --   -0.38147  -0.38099  -0.38061  -0.37693  -0.37405
 Alpha  occ. eigenvalues --   -0.37353  -0.37140  -0.37054  -0.36804  -0.36756
 Alpha  occ. eigenvalues --   -0.36420  -0.36359  -0.36252  -0.36195  -0.36114
 Alpha  occ. eigenvalues --   -0.35592  -0.35376  -0.35266  -0.34920  -0.34663
 Alpha  occ. eigenvalues --   -0.34457  -0.34127  -0.34031  -0.33962  -0.33588
 Alpha  occ. eigenvalues --   -0.33379  -0.33290  -0.33066  -0.32876  -0.32669
 Alpha  occ. eigenvalues --   -0.32344  -0.32002  -0.31916  -0.31834  -0.31184
 Alpha  occ. eigenvalues --   -0.31078  -0.30685  -0.30645  -0.30317  -0.29948
 Alpha  occ. eigenvalues --   -0.29692  -0.29065  -0.28517  -0.28268  -0.28004
 Alpha  occ. eigenvalues --   -0.27710  -0.27619  -0.27294  -0.26486  -0.25618
 Alpha  occ. eigenvalues --   -0.25123  -0.24556  -0.23930  -0.23088  -0.20011
 Alpha  occ. eigenvalues --   -0.17901
 Alpha virt. eigenvalues --   -0.09741  -0.07483  -0.04583  -0.02477  -0.01001
 Alpha virt. eigenvalues --   -0.00495  -0.00307   0.00485   0.01868   0.02593
 Alpha virt. eigenvalues --    0.03255   0.03652   0.03997   0.04016   0.04081

 Mulliken charges:
               1
     1  C   -0.004803
     2  C   -0.072358
     3  C   -0.092560
     4  C   -0.101073
     5  N   -0.193433
     6  C   -0.062354
     7  C    0.056283
     8  C   -0.119545
     9  C   -0.021373
    10  C    0.165593
    11  C    0.065220
    12  C    0.071188
    13  C    0.177579
    14  O   -0.239915
    15  O   -0.322893
    16  N   -0.204547
    17  C    0.152817
    18  C   -0.120650
    19  C    0.028758
    20  C    0.164485
    21  C    0.081577
    22  C   -0.104011
    23  C    0.004635
    24  N   -0.231918
    25  C    0.047214
    26  C   -0.205694
    27  C   -0.077925
    28  C    0.104566
    29  C    0.192795
    30  C    0.144315
    31  C   -0.072367
    32  N    0.062149
    33  C   -0.002774
    34  C   -0.143272
    35  C   -0.047103
    36  C    0.042369
    37  C    0.114936
    38  C    0.177716
    39  O   -0.188516
    40  C   -0.097126
    41  C    0.229342
    42  O   -0.268657
    43  O   -0.337138
    44  C    0.140674
    45  C    0.286770
    46  C   -0.117739
    47  C   -0.110610
    48  C   -0.017422
    49  C    0.057178
    50  C   -0.045266
    51  C    0.022629
    52  C   -0.143922
    53  C    0.083047
    54  C    0.033913
    55  C   -0.005384
    56  C    0.052499
    57  C   -0.135552
    58  C    0.050395
    59  C    0.067574
    60  C   -0.035618
    61  C    0.258023
    62  C   -0.174216
    63  C    0.028008
    64  C   -0.025754
    65  H   -0.027349
    66  H   -0.050967
    67  H    0.026898
    68  H   -0.052320
    69  H    0.017264
    70  H    0.048812
    71  H    0.019819
    72  H   -0.030491
    73  H    0.016461
    74  H   -0.040768
    75  H    0.010063
    76  H    0.037625
    77  H    0.042268
    78  H    0.019034
    79  H    0.038585
    80  H    0.021607
    81  H   -0.002810
    82  H    0.004569
    83  H    0.039775
    84  H    0.021209
    85  H   -0.059613
    86  H    0.002397
    87  H   -0.041311
    88  H    0.015982
    89  H    0.029641
    90  H    0.037283
    91  H    0.008881
    92  H    0.047941
    93  H    0.001199
    94  H    0.089948
    95  H    0.066249
    96  H    0.066895
    97  H    0.048785
    98  H    0.016865
    99  H    0.051050
   100  H    0.000738
   101  H    0.023426
   102  H    0.033029
   103  H    0.037309
   104  H    0.013191
   105  H    0.019745
   106  H   -0.001643
   107  H    0.013891
   108  H    0.009991
   109  H    0.013349
   110  H   -0.007797
   111  H   -0.005337
   112  H    0.009949
   113  H    0.028335
   114  H   -0.018842
   115  H   -0.009569
   116  H    0.015810
   117  H   -0.020489
   118  H   -0.018599
   119  H    0.014140
   120  H   -0.002997
   121  H    0.043894
   122  H   -0.007343
   123  H    0.006361
   124  H   -0.002279
   125  H   -0.016524
   126  H   -0.003630
   127  H    0.002648
   128  H   -0.023190
   129  H   -0.132622
   130  H   -0.016672
   131  H   -0.009795
   132  H    0.007769
   133  H    0.040728
   134  H    0.034484
   135  H    0.018918
   136  H    0.008205
   137  H    0.238883
   138  H    0.100296
 Sum of Mulliken charges =  -0.00000

 Dipole moment (field-independent basis, Debye):
    X=              3.1384    Y=              3.7610    Z=              0.5704  Tot=              4.9315
 Quadrupole moment (field-independent basis, Debye-Ang):
   XX=           -351.2244   YY=           -387.6576   ZZ=           -396.3327
   XY=            -21.8190   XZ=              9.8318   YZ=             -7.0354

 Normal termination of Gaussian 16 at Wed Aug 28 16:09:45 2019.
