 Gaussian 16, Revision A.03,
 Gaussian 16:  ES64L-G16RevA.03 25-Dec-2016

 --------------------------
 # td=(NStates=1) B3LYP/SVP
 --------------------------

 --
 TD
 --
 Symbolic Z-matrix:
 Charge =  0 Multiplicity = 1

                         Standard orientation:
 ---------------------------------------------------------------------
 Center     Atomic      Atomic             Coordinates (Angstroms)
 Number     Number       Type             X           Y           Z
 ---------------------------------------------------------------------
      1          6           0       -5.134264   -2.075512    0.396173
      2          6           0       -4.767775    2.668265    1.311221
      3          6           0       -9.303853    3.348733   -0.203596
      4          6           0       -9.828089   -1.371739   -0.834180
      5          7           0       -5.254793    0.345650    0.713160
      6          6           0       -4.580127   -0.828234    0.775334
      7          6           0       -3.021606   -0.609072    1.140975
      8          6           0       -3.086104    0.833354    1.718607
      9          6           0       -4.454216    1.315336    1.252967
     10          6           0       -2.944810    0.905563    3.243728
     11          6           0       -2.002710   -0.898687    0.124521
     12          6           0       -0.479239   -0.745917    0.667869
     13          6           0        0.445639   -1.085368   -0.555113
     14          8           0        0.100772   -1.579721   -1.630500
     15          8           0        1.665683   -0.771777   -0.190937
     16          7           0       -7.057763    2.757055    0.513014
     17          6           0       -5.973417    3.369003    1.024922
     18          6           0       -6.142457    4.806519    0.987399
     19          6           0       -7.458702    4.990619    0.485775
     20          6           0       -8.000797    3.732797    0.228491
     21          6           0       -5.166001    5.852638    1.478020
     22          6           0       -8.092889    6.303245    0.318759
     23          6           0       -9.096593    6.600528   -0.517556
     24          7           0       -9.120306    0.935952   -0.555078
     25          6           0       -9.767984    2.144625   -0.591642
     26          6           0      -11.262581    1.873411   -0.920842
     27          6           0      -11.421442    0.537523   -1.172978
     28          6           0      -10.125484    0.020313   -0.857725
     29          6           0      -12.320025    3.007094   -0.946512
     30          6           0      -12.692812   -0.135234   -1.564403
     31          6           0      -12.651486   -0.373273   -3.022671
     32          7           0       -7.584780   -1.341404   -0.216346
     33          6           0       -8.630259   -2.088781   -0.579893
     34          6           0       -8.270689   -3.508091   -0.764723
     35          6           0       -6.938124   -3.495904   -0.257703
     36          6           0       -6.471843   -2.158136    0.053218
     37          6           0       -9.145756   -4.581054   -1.068844
     38          6           0       -5.814969   -4.405263    0.097824
     39          8           0       -5.709984   -5.583715    0.068716
     40          6           0       -4.539248   -3.440588    0.416995
     41          6           0       -3.998759   -3.800773    1.819833
     42          8           0       -4.271954   -3.353629    2.903738
     43          8           0       -3.121205   -4.873201    1.565002
     44          6           0       -2.479545   -5.282149    2.770656
     45          6           0        2.646565   -1.058710   -1.326222
     46          6           0        3.985679   -0.864074   -0.783229
     47          6           0        4.914643    0.107563   -1.052349
     48          6           0        4.754829    1.125509   -2.256551
     49          6           0        6.275911    0.290020   -0.301968
     50          6           0        7.589398   -0.210363   -1.101624
     51          6           0        8.869959   -0.190823   -0.242635
     52          6           0       10.070579   -0.558417   -0.918335
     53          6           0       10.216042   -2.148370   -1.291068
     54          6           0       11.327043   -0.185287   -0.138395
     55          6           0       12.717088   -0.613516   -0.631621
     56          6           0       13.881951   -0.065227    0.249229
     57          6           0       15.239045   -0.251242   -0.344236
     58          6           0       15.527135   -1.629878   -0.534177
     59          6           0       16.268647    0.642105    0.422120
     60          6           0       17.704818    0.670255   -0.090924
     61          6           0       18.557554    1.640114    0.699442
     62          6           0       20.059387    1.558811    0.381215
     63          6           0       20.279438    1.911981   -1.116443
     64          6           0       21.002585    2.383223    1.238558
     65          1           0       -3.933989    3.291961    1.856414
     66          1           0      -10.017600    4.078068   -0.195988
     67          1           0      -10.726253   -2.161253   -1.096095
     68          1           0       -2.972645   -1.151201    2.120503
     69          1           0       -2.183591    1.349331    1.274416
     70          1           0       -1.762184    0.892470    3.386606
     71          1           0       -3.298540    2.014073    3.448303
     72          1           0       -3.661986    0.047691    3.870832
     73          1           0       -2.043779   -1.769297   -0.428844
     74          1           0       -1.911508   -0.037072   -0.706354
     75          1           0       -0.317442    0.378340    0.858222
     76          1           0       -0.138117   -1.430384    1.432738
     77          1           0       -4.105926    5.821695    1.083109
     78          1           0       -5.625550    6.879512    1.175230
     79          1           0       -5.034923    5.990109    2.584887
     80          1           0       -7.693899    7.076235    0.946301
     81          1           0       -9.727485    5.761099   -1.296214
     82          1           0       -9.458516    7.622006   -0.341767
     83          1           0      -12.318440    3.568176    0.066152
     84          1           0      -12.009067    3.647999   -1.732126
     85          1           0      -13.376087    2.692451   -1.101389
     86          1           0      -12.914722   -1.140478   -0.847297
     87          1           0      -13.549224    0.530479   -1.306222
     88          1           0      -12.350607    0.423943   -3.543008
     89          1           0      -11.874740   -1.145646   -3.495121
     90          1           0      -13.686276   -0.867313   -3.262612
     91          1           0       -9.851775   -4.813949   -0.341245
     92          1           0       -9.979279   -4.320663   -2.093000
     93          1           0       -8.335230   -5.329037   -1.274023
     94          1           0       -3.808817   -3.680093   -0.238218
     95          1           0       -1.802159   -6.090878    2.678983
     96          1           0       -1.875726   -4.600699    3.278057
     97          1           0       -3.281245   -5.812007    3.451445
     98          1           0        2.570725   -2.083108   -1.649640
     99          1           0        2.621427   -0.125034   -2.110405
    100          1           0        4.170420   -1.583233    0.036873
    101          1           0        4.905628    2.236617   -1.871823
    102          1           0        5.413014    0.788366   -3.043614
    103          1           0        3.804315    0.872458   -2.784891
    104          1           0        6.377521    1.332170    0.060222
    105          1           0        6.281520   -0.495022    0.549951
    106          1           0        7.387028   -1.135639   -1.604533
    107          1           0        7.663357    0.405652   -1.949618
    108          1           0        8.980672    0.899501   -0.092517
    109          1           0        8.561718   -0.834722    0.678899
    110          1           0       10.028550   -0.030857   -1.953138
    111          1           0        9.093183   -2.519812   -1.752335
    112          1           0       11.052602   -2.431561   -1.941204
    113          1           0       10.438345   -2.630041   -0.370541
    114          1           0       11.400697    0.839906    0.060014
    115          1           0       11.252691   -0.582333    0.917908
    116          1           0       12.848871   -1.616423   -0.861915
    117          1           0       12.629191   -0.033184   -1.639183
    118          1           0       13.811085    1.092530    0.418315
    119          1           0       13.865047   -0.397129    1.400694
    120          1           0       15.291589    0.300532   -1.364994
    121          1           0       14.990549   -1.989056   -1.373687
    122          1           0       16.592281   -2.014335   -0.936470
    123          1           0       15.246613   -2.194197    0.310635
    124          1           0       15.786699    1.606492    0.328406
    125          1           0       16.147561    0.336773    1.515959
    126          1           0       18.019136   -0.420055    0.072987
    127          1           0       17.647927    0.742498   -1.271004
    128          1           0       18.073835    2.740021    0.335042
    129          1           0       18.380639    1.511531    1.864402
    130          1           0       20.549284    0.448845    0.532063
    131          1           0       19.796425    3.030876   -1.152401
    132          1           0       21.363161    1.917772   -1.274527
    133          1           0       19.724379    1.321192   -1.846579
    134          1           0       20.908781    2.221845    2.312973
    135          1           0       21.988325    2.388104    0.869947
    136          1           0       20.762682    3.431179    1.247972
    137          1           0       -7.344831    1.714637    0.091915
    138          1           0       -7.254005   -0.240644    0.221585
 ---------------------------------------------------------------------

 SCF Done:  E(RB3LYP) =  -2733.06388191     A.U. after   17 cycles

 Excitation energies and oscillator strengths:

 Excited State   1:      Singlet-A      2.0054 eV  618.24 nm  f=0.2169  <S**2>=0.000
     235 -> 238        0.28061
     236 -> 237        0.64584
 This state for optimization and/or second-order correction.
 Total Energy, E(TD-HF/TD-DFT) =  -2732.99018366
 Copying the excited state density for this state as the 1-particle RhoCI density.

 The electronic state is 1-A.
 Alpha  occ. eigenvalues --  -19.18718 -19.17557 -19.13679 -19.12862 -19.12125
 Alpha  occ. eigenvalues --  -14.36971 -14.36727 -14.33286 -14.30623 -10.31898
 Alpha  occ. eigenvalues --  -10.31293 -10.28201 -10.25913 -10.23696 -10.23431
 Alpha  occ. eigenvalues --  -10.23396 -10.23351 -10.22765 -10.22642 -10.22554
 Alpha  occ. eigenvalues --  -10.22130 -10.22054 -10.21947 -10.21623 -10.21259
 Alpha  occ. eigenvalues --  -10.21079 -10.21066 -10.20993 -10.20884 -10.20884
 Alpha  occ. eigenvalues --  -10.20833 -10.20830 -10.20635 -10.20601 -10.20574
 Alpha  occ. eigenvalues --  -10.20478 -10.20177 -10.20118 -10.20099 -10.20050
 Alpha  occ. eigenvalues --  -10.19940 -10.19799 -10.19785 -10.19777 -10.19771
 Alpha  occ. eigenvalues --  -10.19759 -10.19676 -10.19645 -10.19639 -10.19435
 Alpha  occ. eigenvalues --  -10.19306 -10.19241 -10.19160 -10.18827 -10.18723
 Alpha  occ. eigenvalues --  -10.18697 -10.18611 -10.18535 -10.18472 -10.18385
 Alpha  occ. eigenvalues --  -10.17926 -10.17844 -10.17188 -10.16863  -1.09542
 Alpha  occ. eigenvalues --   -1.08324  -1.04739  -1.01056  -0.99509  -0.97711
 Alpha  occ. eigenvalues --   -0.97229  -0.93916  -0.92699  -0.84754  -0.83109
 Alpha  occ. eigenvalues --   -0.82295  -0.81400  -0.81274  -0.81006  -0.80663
 Alpha  occ. eigenvalues --   -0.80383  -0.80091  -0.79652  -0.78042  -0.77377
 Alpha  occ. eigenvalues --   -0.76530  -0.75620  -0.75370  -0.74775  -0.74461
 Alpha  occ. eigenvalues --   -0.73791  -0.72849  -0.72424  -0.71527  -0.70522
 Alpha  occ. eigenvalues --   -0.69496  -0.69358  -0.68284  -0.68200  -0.67775
 Alpha  occ. eigenvalues --   -0.67387  -0.67089  -0.66078  -0.65550  -0.64863
 Alpha  occ. eigenvalues --   -0.63081  -0.62546  -0.61678  -0.61224  -0.60937
 Alpha  occ. eigenvalues --   -0.60593  -0.59354  -0.57853  -0.57277  -0.57099
 Alpha  occ. eigenvalues --   -0.56387  -0.56208  -0.55387  -0.55218  -0.55024
 Alpha  occ. eigenvalues --   -0.54283  -0.54145  -0.53597  -0.52419  -0.52282
 Alpha  occ. eigenvalues --   -0.51857  -0.51726  -0.51319  -0.50807  -0.50492
 Alpha  occ. eigenvalues --   -0.49805  -0.49140  -0.48882  -0.48298  -0.48257
 Alpha  occ. eigenvalues --   -0.47940  -0.47731  -0.47354  -0.47255  -0.47085
 Alpha  occ. eigenvalues --   -0.46502  -0.46356  -0.46322  -0.45975  -0.45560
 Alpha  occ. eigenvalues --   -0.45395  -0.44998  -0.44935  -0.44689  -0.44338
 Alpha  occ. eigenvalues --   -0.44171  -0.44059  -0.43988  -0.43845  -0.43618
 Alpha  occ. eigenvalues --   -0.43197  -0.43053  -0.42953  -0.42621  -0.42445
 Alpha  occ. eigenvalues --   -0.42341  -0.42331  -0.41846  -0.41576  -0.41457
 Alpha  occ. eigenvalues --   -0.41272  -0.40872  -0.40702  -0.40517  -0.40285
 Alpha  occ. eigenvalues --   -0.40157  -0.39992  -0.39643  -0.39461  -0.39339
 Alpha  occ. eigenvalues --   -0.39230  -0.38754  -0.38620  -0.38529  -0.38312
 Alpha  occ. eigenvalues --   -0.38223  -0.38053  -0.37725  -0.37693  -0.37547
 Alpha  occ. eigenvalues --   -0.37416  -0.37066  -0.37031  -0.36840  -0.36786
 Alpha  occ. eigenvalues --   -0.36625  -0.36432  -0.36025  -0.35951  -0.35701
 Alpha  occ. eigenvalues --   -0.35552  -0.35272  -0.35132  -0.34971  -0.34826
 Alpha  occ. eigenvalues --   -0.34792  -0.34607  -0.34386  -0.34026  -0.33619
 Alpha  occ. eigenvalues --   -0.33368  -0.32996  -0.32602  -0.32365  -0.32239
 Alpha  occ. eigenvalues --   -0.32022  -0.31969  -0.31800  -0.31280  -0.31151
 Alpha  occ. eigenvalues --   -0.31021  -0.30708  -0.30595  -0.30295  -0.30233
 Alpha  occ. eigenvalues --   -0.30061  -0.29811  -0.28925  -0.28634  -0.28094
 Alpha  occ. eigenvalues --   -0.27713  -0.27609  -0.26988  -0.26439  -0.25470
 Alpha  occ. eigenvalues --   -0.25160  -0.24887  -0.23775  -0.23185  -0.19344
 Alpha  occ. eigenvalues --   -0.18782
 Alpha virt. eigenvalues --   -0.10507  -0.07059  -0.04212  -0.01630  -0.01396
 Alpha virt. eigenvalues --   -0.00525   0.00246   0.00869   0.01991   0.02986
 Alpha virt. eigenvalues --    0.03227   0.03655   0.03914   0.04065   0.04178

 Mulliken charges:
               1
     1  C   -0.005465
     2  C   -0.094145
     3  C   -0.055692
     4  C   -0.131452
     5  N   -0.199875
     6  C   -0.071088
     7  C    0.051873
     8  C   -0.122045
     9  C    0.026554
    10  C   -0.023309
    11  C    0.087710
    12  C   -0.013266
    13  C    0.162853
    14  O   -0.267140
    15  O   -0.300978
    16  N   -0.126676
    17  C    0.101611
    18  C   -0.109359
    19  C    0.053957
    20  C    0.066109
    21  C    0.033675
    22  C   -0.048242
    23  C   -0.067519
    24  N   -0.266431
    25  C    0.097144
    26  C   -0.159465
    27  C   -0.083445
    28  C    0.086172
    29  C    0.091293
    30  C    0.048671
    31  C    0.025274
    32  N   -0.141044
    33  C    0.057013
    34  C   -0.064953
    35  C   -0.039071
    36  C    0.074230
    37  C    0.003675
    38  C    0.058813
    39  O   -0.124137
    40  C    0.010511
    41  C    0.216095
    42  O   -0.200702
    43  O   -0.329879
    44  C    0.206871
    45  C    0.273915
    46  C   -0.122400
    47  C   -0.146431
    48  C    0.048728
    49  C    0.044223
    50  C    0.010147
    51  C    0.074758
    52  C   -0.063654
    53  C   -0.023979
    54  C    0.046421
    55  C    0.058864
    56  C   -0.039268
    57  C   -0.089826
    58  C    0.081884
    59  C    0.009480
    60  C    0.009946
    61  C   -0.001354
    62  C   -0.124698
    63  C   -0.003582
    64  C    0.101072
    65  H    0.004188
    66  H   -0.079618
    67  H    0.004243
    68  H    0.008534
    69  H    0.006530
    70  H    0.033760
    71  H    0.023185
    72  H    0.076136
    73  H    0.003390
    74  H    0.021424
    75  H    0.047456
    76  H    0.036274
    77  H    0.036826
    78  H    0.018563
    79  H    0.034454
    80  H   -0.004653
    81  H    0.074609
    82  H    0.021867
    83  H    0.041992
    84  H    0.018685
    85  H    0.014398
    86  H    0.027359
    87  H    0.004859
    88  H   -0.013645
    89  H    0.020450
    90  H    0.022708
    91  H    0.035490
    92  H    0.041163
    93  H    0.065991
    94  H    0.011752
    95  H   -0.000627
    96  H    0.009226
    97  H    0.031854
    98  H    0.042348
    99  H    0.051429
   100  H   -0.009346
   101  H    0.057056
   102  H    0.025498
   103  H   -0.004961
   104  H    0.018369
   105  H    0.009946
   106  H   -0.016100
   107  H   -0.031444
   108  H   -0.003469
   109  H    0.013095
   110  H   -0.003934
   111  H    0.027907
   112  H    0.027884
   113  H    0.000399
   114  H   -0.034416
   115  H   -0.018973
   116  H   -0.013245
   117  H   -0.000699
   118  H   -0.004650
   119  H    0.010537
   120  H   -0.014642
   121  H   -0.006789
   122  H    0.009103
   123  H   -0.011178
   124  H   -0.021668
   125  H   -0.011102
   126  H    0.002589
   127  H    0.016434
   128  H    0.017022
   129  H    0.019404
   130  H    0.010058
   131  H    0.011523
   132  H    0.012456
   133  H    0.021868
   134  H   -0.002535
   135  H   -0.007299
   136  H   -0.028696
   137  H    0.224311
   138  H    0.258112
 Sum of Mulliken charges =  -0.00000

 Dipole moment (field-independent basis, Debye):
    X=              3.0422    Y=              4.0939    Z=              0.4187  Tot=              5.1177
 Quadrupole moment (field-independent basis, Debye-Ang):
   XX=           -342.6691   YY=           -389.5391   ZZ=           -399.4705
   XY=            -22.5941   XZ=              3.8152   YZ=              0.9238

 Normal termination of Gaussian 16 at Sat Aug 17 16:47:32 2019.
