 Gaussian 16, Revision A.03,
 Gaussian 16:  ES64L-G16RevA.03 25-Dec-2016

 --------------------------
 # td=(NStates=1) B3LYP/SVP
 --------------------------

 --
 TD
 --
 Symbolic Z-matrix:
 Charge =  0 Multiplicity = 1

                         Standard orientation:
 ---------------------------------------------------------------------
 Center     Atomic      Atomic             Coordinates (Angstroms)
 Number     Number       Type             X           Y           Z
 ---------------------------------------------------------------------
      1          6           0       -5.173317   -1.928771    0.512840
      2          6           0       -4.823537    2.757598    1.472547
      3          6           0       -9.401311    3.234093   -0.291916
      4          6           0       -9.716270   -1.479645   -0.902446
      5          7           0       -5.180995    0.464970    1.015363
      6          6           0       -4.545358   -0.652879    0.912201
      7          6           0       -3.051098   -0.539417    1.325764
      8          6           0       -3.077858    0.900852    1.918673
      9          6           0       -4.409114    1.432234    1.405672
     10          6           0       -3.046107    0.906559    3.503641
     11          6           0       -2.144659   -0.680831    0.094111
     12          6           0       -0.628453   -0.511141    0.500659
     13          6           0        0.296340   -0.910849   -0.724034
     14          8           0       -0.060169   -1.335298   -1.717126
     15          8           0        1.580660   -0.743683   -0.311471
     16          7           0       -7.062342    2.705895    0.402466
     17          6           0       -5.954425    3.429567    0.953632
     18          6           0       -6.266933    4.806468    1.036735
     19          6           0       -7.549859    5.006904    0.417090
     20          6           0       -8.061334    3.667063    0.097455
     21          6           0       -5.368013    5.801112    1.400506
     22          6           0       -8.192806    6.339430    0.274152
     23          6           0       -9.153646    6.650485   -0.697747
     24          7           0       -9.221674    0.887388   -0.442865
     25          6           0       -9.877043    2.007378   -0.487617
     26          6           0      -11.322327    1.820721   -0.997807
     27          6           0      -11.345671    0.513956   -1.403726
     28          6           0      -10.096288   -0.028624   -0.891323
     29          6           0      -12.283686    2.889971   -1.108171
     30          6           0      -12.546373   -0.265475   -1.678997
     31          6           0      -12.465748   -0.711703   -3.226521
     32          7           0       -7.492289   -1.309677   -0.104763
     33          6           0       -8.548240   -2.100310   -0.554971
     34          6           0       -8.207640   -3.485970   -0.665537
     35          6           0       -6.725986   -3.429431   -0.251284
     36          6           0       -6.478890   -2.075299    0.147235
     37          6           0       -8.870930   -4.729738   -1.033410
     38          6           0       -5.681478   -4.291634    0.042802
     39          8           0       -5.608108   -5.498003    0.056717
     40          6           0       -4.419102   -3.316081    0.471250
     41          6           0       -3.838827   -3.849944    1.816302
     42          8           0       -4.181964   -3.442881    2.927330
     43          8           0       -2.892331   -4.719272    1.526638
     44          6           0       -2.433896   -5.368145    2.632370
     45          6           0        2.754348   -1.042154   -1.193136
     46          6           0        3.963579   -0.710760   -0.469386
     47          6           0        4.986141    0.087776   -0.919324
     48          6           0        5.036336    0.747727   -2.302156
     49          6           0        6.178700    0.182455   -0.078747
     50          6           0        7.427254   -0.477355   -0.800264
     51          6           0        8.755964   -0.261070   -0.050986
     52          6           0        9.960459   -0.778895   -0.837786
     53          6           0        9.957364   -2.261660   -1.162772
     54          6           0       11.301162   -0.315820   -0.091316
     55          6           0       12.692718   -0.518897   -0.748352
     56          6           0       13.902609    0.102943    0.069532
     57          6           0       15.256454   -0.095330   -0.555621
     58          6           0       15.509719   -1.593822   -0.903085
     59          6           0       16.304603    0.503965    0.396042
     60          6           0       17.652501    0.582813   -0.203775
     61          6           0       18.568145    1.554259    0.725637
     62          6           0       20.089207    1.664986    0.246841
     63          6           0       20.195259    2.403916   -1.171331
     64          6           0       20.862211    2.335495    1.312703
     65          1           0       -4.152599    3.417196    1.922458
     66          1           0      -10.056463    4.121784   -0.592609
     67          1           0      -10.653683   -2.036158   -1.408004
     68          1           0       -2.794547   -1.216061    2.109388
     69          1           0       -2.259586    1.509990    1.477988
     70          1           0       -2.059156    0.508183    4.014904
     71          1           0       -3.339970    2.040521    3.843794
     72          1           0       -3.880212    0.443193    3.661756
     73          1           0       -2.062308   -1.833758   -0.287102
     74          1           0       -2.355483    0.071911   -0.728234
     75          1           0       -0.377329    0.665762    0.779663
     76          1           0       -0.418034   -1.147327    1.352544
     77          1           0       -4.119540    5.721048    1.068246
     78          1           0       -5.672926    6.892140    0.823486
     79          1           0       -5.300062    5.940880    2.615377
     80          1           0       -7.652897    6.914849    0.950283
     81          1           0       -9.130735    5.870684   -1.578300
     82          1           0       -9.307184    7.809499   -0.879668
     83          1           0      -12.571041    3.397985   -0.150306
     84          1           0      -12.152629    3.706970   -1.605538
     85          1           0      -13.388932    2.654005   -1.406764
     86          1           0      -12.566480   -1.270092   -0.934880
     87          1           0      -13.381946    0.330622   -1.289438
     88          1           0      -12.252310    0.071452   -3.982937
     89          1           0      -11.509216   -1.315512   -3.206327
     90          1           0      -13.446160   -1.213557   -3.703991
     91          1           0       -9.697130   -4.932900   -0.205295
     92          1           0       -9.274219   -4.624866   -2.136234
     93          1           0       -8.097774   -5.596786   -1.130895
     94          1           0       -3.603676   -3.235190   -0.250206
     95          1           0       -1.286474   -5.708686    2.341159
     96          1           0       -2.342651   -4.508280    3.593206
     97          1           0       -3.140491   -6.177775    2.920937
     98          1           0        2.831726   -2.122778   -1.469585
     99          1           0        2.507199   -0.597934   -2.088030
    100          1           0        4.055064   -1.287516    0.469255
    101          1           0        5.433284    1.938880   -2.156196
    102          1           0        5.624949    0.190875   -3.065601
    103          1           0        4.120553    0.852795   -2.749108
    104          1           0        6.344306    1.259050    0.082184
    105          1           0        6.190223   -0.357357    0.845135
    106          1           0        7.185366   -1.531460   -1.051864
    107          1           0        7.615451   -0.164963   -1.723677
    108          1           0        8.801906    0.750827    0.281029
    109          1           0        8.615195   -0.843374    0.937234
    110          1           0        9.955224    0.032316   -1.727380
    111          1           0        9.006925   -2.471476   -1.563066
    112          1           0       10.767869   -2.693422   -1.628992
    113          1           0        9.984909   -2.830770   -0.214270
    114          1           0       11.053208    0.803295    0.279873
    115          1           0       11.326330   -1.010834    0.951281
    116          1           0       12.860725   -1.766631   -0.947204
    117          1           0       12.562852   -0.002194   -1.631725
    118          1           0       13.640974    1.074888    0.070546
    119          1           0       13.758201   -0.422111    1.024553
    120          1           0       15.157887    0.247303   -1.539662
    121          1           0       14.726218   -2.211982   -1.404887
    122          1           0       16.394960   -1.776459   -1.620045
    123          1           0       15.645071   -2.189860    0.162153
    124          1           0       15.957172    1.423632    0.459033
    125          1           0       16.416087    0.178552    1.439209
    126          1           0       18.235722   -0.398498   -0.254577
    127          1           0       17.706289    0.780759   -1.149139
    128          1           0       18.046118    2.565880    0.777550
    129          1           0       18.388039    0.897827    1.607050
    130          1           0       20.464643    0.837900    0.115248
    131          1           0       19.898215    3.505276   -0.932785
    132          1           0       21.297122    2.459438   -1.561296
    133          1           0       19.668620    1.772767   -1.824864
    134          1           0       20.654092    2.007127    2.228638
    135          1           0       21.860139    2.282181    1.205368
    136          1           0       20.642318    3.503931    1.415358
    137          1           0       -7.216923    1.547697    0.462788
    138          1           0       -7.553110   -0.346704   -0.153209
 ---------------------------------------------------------------------

 SCF Done:  E(RB3LYP) =  -2732.94732837     A.U. after   17 cycles

 Excitation energies and oscillator strengths:

 Excited State   1:      Singlet-A      1.9347 eV  640.83 nm  f=0.1682  <S**2>=0.000
     235 -> 238        0.27807
     236 -> 237        0.63161
 This state for optimization and/or second-order correction.
 Total Energy, E(TD-HF/TD-DFT) =  -2732.87622797
 Copying the excited state density for this state as the 1-particle RhoCI density.

 The electronic state is 1-A.
 Alpha  occ. eigenvalues --  -19.19184 -19.16073 -19.12919 -19.12404 -19.11864
 Alpha  occ. eigenvalues --  -14.37079 -14.37030 -14.31801 -14.30454 -10.31727
 Alpha  occ. eigenvalues --  -10.30828 -10.27190 -10.26217 -10.24288 -10.24232
 Alpha  occ. eigenvalues --  -10.24147 -10.23478 -10.23285 -10.23188 -10.23157
 Alpha  occ. eigenvalues --  -10.23116 -10.22398 -10.22128 -10.21987 -10.21502
 Alpha  occ. eigenvalues --  -10.21323 -10.21085 -10.21008 -10.20935 -10.20920
 Alpha  occ. eigenvalues --  -10.20887 -10.20837 -10.20814 -10.20750 -10.20670
 Alpha  occ. eigenvalues --  -10.20516 -10.20333 -10.20229 -10.20170 -10.20072
 Alpha  occ. eigenvalues --  -10.20023 -10.19866 -10.19671 -10.19531 -10.19478
 Alpha  occ. eigenvalues --  -10.19424 -10.19126 -10.19054 -10.19014 -10.18899
 Alpha  occ. eigenvalues --  -10.18795 -10.18737 -10.18675 -10.18636 -10.18574
 Alpha  occ. eigenvalues --  -10.18567 -10.18511 -10.17716 -10.17370 -10.17303
 Alpha  occ. eigenvalues --  -10.17298 -10.16882 -10.16604 -10.15803  -1.12324
 Alpha  occ. eigenvalues --   -1.10138  -1.02649  -1.01524  -1.00602  -1.00329
 Alpha  occ. eigenvalues --   -0.97151  -0.95966  -0.94390  -0.84424  -0.82982
 Alpha  occ. eigenvalues --   -0.82405  -0.81695  -0.81175  -0.80745  -0.80717
 Alpha  occ. eigenvalues --   -0.80310  -0.79848  -0.79823  -0.78651  -0.77279
 Alpha  occ. eigenvalues --   -0.76549  -0.76105  -0.75964  -0.74673  -0.74127
 Alpha  occ. eigenvalues --   -0.73566  -0.73171  -0.72137  -0.71690  -0.70206
 Alpha  occ. eigenvalues --   -0.69602  -0.69073  -0.68880  -0.68307  -0.67874
 Alpha  occ. eigenvalues --   -0.67441  -0.66906  -0.66262  -0.66153  -0.64855
 Alpha  occ. eigenvalues --   -0.63802  -0.63080  -0.62475  -0.62020  -0.61618
 Alpha  occ. eigenvalues --   -0.60640  -0.59998  -0.57927  -0.57775  -0.57478
 Alpha  occ. eigenvalues --   -0.57271  -0.56861  -0.56147  -0.55759  -0.55529
 Alpha  occ. eigenvalues --   -0.55485  -0.54473  -0.54471  -0.53461  -0.53289
 Alpha  occ. eigenvalues --   -0.52288  -0.51978  -0.51546  -0.50969  -0.50426
 Alpha  occ. eigenvalues --   -0.49798  -0.49567  -0.49005  -0.48742  -0.48535
 Alpha  occ. eigenvalues --   -0.48219  -0.47949  -0.47780  -0.47418  -0.47223
 Alpha  occ. eigenvalues --   -0.46752  -0.46473  -0.46229  -0.46029  -0.45940
 Alpha  occ. eigenvalues --   -0.45625  -0.45420  -0.45331  -0.45258  -0.44782
 Alpha  occ. eigenvalues --   -0.44676  -0.44280  -0.43767  -0.43474  -0.43323
 Alpha  occ. eigenvalues --   -0.43114  -0.42833  -0.42829  -0.42709  -0.42641
 Alpha  occ. eigenvalues --   -0.42476  -0.42085  -0.41574  -0.41498  -0.41405
 Alpha  occ. eigenvalues --   -0.41220  -0.41024  -0.40834  -0.40587  -0.40492
 Alpha  occ. eigenvalues --   -0.40251  -0.40055  -0.39895  -0.39376  -0.39318
 Alpha  occ. eigenvalues --   -0.39192  -0.38767  -0.38534  -0.38282  -0.38117
 Alpha  occ. eigenvalues --   -0.37897  -0.37810  -0.37709  -0.37435  -0.37404
 Alpha  occ. eigenvalues --   -0.37377  -0.37163  -0.37069  -0.36944  -0.36736
 Alpha  occ. eigenvalues --   -0.36619  -0.36403  -0.36271  -0.35732  -0.35710
 Alpha  occ. eigenvalues --   -0.35369  -0.35316  -0.35202  -0.35133  -0.34779
 Alpha  occ. eigenvalues --   -0.34401  -0.34155  -0.34012  -0.33888  -0.33741
 Alpha  occ. eigenvalues --   -0.33596  -0.33098  -0.33075  -0.32932  -0.32661
 Alpha  occ. eigenvalues --   -0.32209  -0.31816  -0.31588  -0.31430  -0.31293
 Alpha  occ. eigenvalues --   -0.31259  -0.31090  -0.30721  -0.30681  -0.30562
 Alpha  occ. eigenvalues --   -0.30389  -0.29079  -0.28380  -0.28325  -0.27988
 Alpha  occ. eigenvalues --   -0.27746  -0.27556  -0.26721  -0.26065  -0.25734
 Alpha  occ. eigenvalues --   -0.24548  -0.24430  -0.23634  -0.23210  -0.19528
 Alpha  occ. eigenvalues --   -0.18874
 Alpha virt. eigenvalues --   -0.10821  -0.07903  -0.05190  -0.03075  -0.00755
 Alpha virt. eigenvalues --   -0.00297   0.00145   0.02075   0.02446   0.03589
 Alpha virt. eigenvalues --    0.03785   0.03986   0.04214   0.04351   0.05109

 Mulliken charges:
               1
     1  C   -0.047211
     2  C   -0.015212
     3  C   -0.136022
     4  C   -0.126231
     5  N   -0.073957
     6  C   -0.082895
     7  C    0.000859
     8  C   -0.025180
     9  C   -0.070098
    10  C    0.087547
    11  C    0.000954
    12  C   -0.060262
    13  C    0.166774
    14  O   -0.150109
    15  O   -0.358972
    16  N   -0.214589
    17  C    0.120772
    18  C   -0.018468
    19  C   -0.025767
    20  C    0.063303
    21  C   -0.137725
    22  C    0.016485
    23  C   -0.072077
    24  N   -0.164942
    25  C    0.098994
    26  C   -0.081310
    27  C   -0.086206
    28  C   -0.018985
    29  C    0.127307
    30  C   -0.004913
    31  C   -0.026108
    32  N    0.066438
    33  C    0.127729
    34  C   -0.060525
    35  C   -0.042327
    36  C    0.086658
    37  C    0.013185
    38  C    0.032086
    39  O   -0.178722
    40  C   -0.043175
    41  C    0.197881
    42  O   -0.245696
    43  O   -0.220223
    44  C    0.056943
    45  C    0.312977
    46  C   -0.092746
    47  C   -0.136445
    48  C    0.066867
    49  C    0.138364
    50  C    0.014074
    51  C    0.031249
    52  C   -0.092635
    53  C    0.139643
    54  C   -0.095095
    55  C    0.010310
    56  C    0.086996
    57  C   -0.022294
    58  C   -0.064595
    59  C    0.179493
    60  C    0.059827
    61  C   -0.046829
    62  C    0.031581
    63  C   -0.008805
    64  C    0.132132
    65  H   -0.067757
    66  H   -0.008940
    67  H    0.016888
    68  H   -0.007431
    69  H   -0.009892
    70  H    0.052643
    71  H    0.017367
    72  H   -0.020150
    73  H    0.050953
    74  H    0.029285
    75  H    0.052405
    76  H    0.027174
    77  H    0.060778
    78  H    0.053631
    79  H    0.056014
    80  H   -0.025578
    81  H    0.069262
    82  H    0.056030
    83  H    0.003615
    84  H   -0.033022
    85  H    0.007181
    86  H    0.038108
    87  H    0.007036
    88  H    0.020959
    89  H    0.019049
    90  H    0.033230
    91  H    0.068499
    92  H    0.048972
    93  H    0.066813
    94  H    0.048149
    95  H    0.051537
    96  H    0.062246
    97  H    0.054017
    98  H    0.022189
    99  H   -0.021298
   100  H    0.000243
   101  H    0.031814
   102  H    0.043726
   103  H   -0.015170
   104  H    0.000042
   105  H   -0.009312
   106  H   -0.002947
   107  H   -0.055144
   108  H   -0.017413
   109  H   -0.012448
   110  H    0.003574
   111  H   -0.012733
   112  H   -0.003644
   113  H   -0.009969
   114  H    0.008393
   115  H   -0.004471
   116  H    0.032086
   117  H   -0.029289
   118  H   -0.033421
   119  H   -0.003359
   120  H   -0.028218
   121  H    0.012247
   122  H    0.019024
   123  H    0.008777
   124  H   -0.062910
   125  H   -0.008052
   126  H   -0.014958
   127  H   -0.073137
   128  H    0.012900
   129  H    0.007621
   130  H   -0.093971
   131  H    0.028102
   132  H    0.014688
   133  H    0.008904
   134  H   -0.040210
   135  H   -0.033670
   136  H   -0.009018
   137  H    0.231299
   138  H    0.089986
 Sum of Mulliken charges =  -0.00000

 Dipole moment (field-independent basis, Debye):
    X=              2.7401    Y=              3.5445    Z=             -1.1826  Tot=              4.6335
 Quadrupole moment (field-independent basis, Debye-Ang):
   XX=           -351.8612   YY=           -387.7557   ZZ=           -397.0200
   XY=            -22.6808   XZ=              7.5496   YZ=              0.7780

 Normal termination of Gaussian 16 at Sun Aug 25 09:28:46 2019.
