 Gaussian 16, Revision A.03,
 Gaussian 16:  ES64L-G16RevA.03 25-Dec-2016

 --------------------------
 # td=(NStates=1) B3LYP/SVP
 --------------------------

 --
 TD
 --
 Symbolic Z-matrix:
 Charge =  0 Multiplicity = 1

                         Standard orientation:
 ---------------------------------------------------------------------
 Center     Atomic      Atomic             Coordinates (Angstroms)
 Number     Number       Type             X           Y           Z
 ---------------------------------------------------------------------
      1          6           0       -5.120797   -1.931030    0.337141
      2          6           0       -4.759813    2.791122    1.411619
      3          6           0       -9.394485    3.284811   -0.329661
      4          6           0       -9.850788   -1.503883   -0.885987
      5          7           0       -5.249057    0.468119    0.776246
      6          6           0       -4.571237   -0.658016    0.803082
      7          6           0       -3.134593   -0.526108    1.226316
      8          6           0       -3.039713    0.939832    1.783714
      9          6           0       -4.476428    1.449833    1.263193
     10          6           0       -3.191823    1.086714    3.226302
     11          6           0       -2.184362   -0.765102    0.067200
     12          6           0       -0.634215   -0.786943    0.608119
     13          6           0        0.341703   -1.090226   -0.492503
     14          8           0        0.160892   -1.396719   -1.677237
     15          8           0        1.639652   -0.823165    0.050009
     16          7           0       -7.064064    2.811735    0.353561
     17          6           0       -5.928356    3.371128    0.858335
     18          6           0       -6.333603    4.864360    1.000808
     19          6           0       -7.588164    4.968211    0.493831
     20          6           0       -8.042074    3.731599    0.160483
     21          6           0       -5.324691    5.852939    1.297162
     22          6           0       -8.321753    6.239504    0.282064
     23          6           0       -9.256279    6.611790   -0.565085
     24          7           0       -9.275871    0.941072   -0.427140
     25          6           0       -9.976993    2.058308   -0.549750
     26          6           0      -11.360194    1.849479   -0.955672
     27          6           0      -11.523957    0.525191   -1.125336
     28          6           0      -10.189464   -0.137492   -0.790780
     29          6           0      -12.366624    2.988622   -0.960322
     30          6           0      -12.831069   -0.215681   -1.542358
     31          6           0      -12.699200   -0.655446   -3.023660
     32          7           0       -7.520954   -1.294988   -0.213589
     33          6           0       -8.621983   -2.008904   -0.645328
     34          6           0       -8.153339   -3.440920   -0.608647
     35          6           0       -6.833286   -3.397787   -0.117277
     36          6           0       -6.467475   -2.078781    0.051895
     37          6           0       -9.122254   -4.610054   -0.888697
     38          6           0       -5.645892   -4.298753   -0.119447
     39          8           0       -5.457144   -5.465297   -0.375378
     40          6           0       -4.516083   -3.391092    0.308603
     41          6           0       -3.941032   -3.786338    1.619812
     42          8           0       -4.159001   -3.290601    2.724096
     43          8           0       -3.127824   -4.876935    1.457962
     44          6           0       -2.518940   -5.491899    2.544809
     45          6           0        2.769513   -1.118804   -0.909335
     46          6           0        4.084466   -0.666127   -0.320541
     47          6           0        5.041103    0.003271   -0.991948
     48          6           0        4.978286    0.535413   -2.432306
     49          6           0        6.360496    0.377191   -0.321817
     50          6           0        7.643799   -0.435689   -0.837738
     51          6           0        8.864344   -0.216508   -0.101769
     52          6           0       10.211245   -0.869831   -0.601178
     53          6           0       10.159104   -2.473798   -0.614108
     54          6           0       11.361300   -0.507898    0.182295
     55          6           0       12.747767   -0.677449   -0.472241
     56          6           0       13.884925    0.066570    0.297082
     57          6           0       15.242858   -0.138250   -0.277238
     58          6           0       15.704605   -1.664080   -0.391634
     59          6           0       16.327263    0.830087    0.442754
     60          6           0       17.775894    0.777338   -0.161189
     61          6           0       18.696497    1.742226    0.418406
     62          6           0       20.134672    1.700972    0.000214
     63          6           0       20.341929    2.212921   -1.475346
     64          6           0       20.985228    2.598958    0.842842
     65          1           0       -4.128069    3.403135    1.911887
     66          1           0      -10.057871    4.227462   -0.348469
     67          1           0      -10.711173   -2.283102   -0.978736
     68          1           0       -2.679828   -1.280266    2.037596
     69          1           0       -2.290894    1.560625    1.269876
     70          1           0       -2.491320    0.468873    3.762078
     71          1           0       -3.365324    2.205791    3.687297
     72          1           0       -4.148171    0.404582    3.529352
     73          1           0       -2.058457   -1.881109   -0.423443
     74          1           0       -2.237393   -0.099126   -0.733865
     75          1           0       -0.324723    0.047355    1.006973
     76          1           0       -0.506682   -1.575592    1.362380
     77          1           0       -4.749238    6.095884    0.319807
     78          1           0       -5.703932    6.779520    1.678939
     79          1           0       -4.601888    5.613476    2.192380
     80          1           0       -7.795851    6.970562    0.960775
     81          1           0       -9.518436    5.963994   -1.293490
     82          1           0       -9.356518    7.696249   -0.297061
     83          1           0      -12.151292    3.967255   -0.315493
     84          1           0      -12.322887    3.516126   -1.992109
     85          1           0      -13.350559    2.684394   -0.952941
     86          1           0      -13.094066   -1.254375   -1.028201
     87          1           0      -13.654837    0.487315   -1.506342
     88          1           0      -12.507753    0.225647   -3.804832
     89          1           0      -11.915382   -1.459871   -3.157535
     90          1           0      -13.810631   -1.019902   -3.488470
     91          1           0      -10.110539   -4.331123   -0.456925
     92          1           0       -9.195505   -4.764657   -1.987741
     93          1           0       -8.839028   -5.612581   -0.575791
     94          1           0       -3.868564   -3.583337   -0.643230
     95          1           0       -2.041957   -6.320148    2.115148
     96          1           0       -1.706990   -4.861837    3.038021
     97          1           0       -3.264511   -5.708269    3.305340
     98          1           0        2.991274   -2.146328   -1.158392
     99          1           0        2.668805   -0.569363   -1.939537
    100          1           0        4.222703   -1.002786    0.696909
    101          1           0        5.655840    1.518365   -2.585490
    102          1           0        5.478380   -0.252116   -3.098538
    103          1           0        3.942218    0.687277   -2.682440
    104          1           0        6.561038    1.474250   -0.318480
    105          1           0        6.247857    0.120180    0.818141
    106          1           0        7.350909   -1.430066   -0.741945
    107          1           0        7.837298   -0.006188   -1.946494
    108          1           0        9.194297    0.892297   -0.287428
    109          1           0        8.811870   -0.485691    0.833844
    110          1           0       10.346065   -0.493739   -1.696679
    111          1           0        9.225983   -3.069368   -1.056074
    112          1           0       10.955768   -2.837302   -0.952829
    113          1           0       10.037244   -2.790479    0.447438
    114          1           0       11.205376    0.694255    0.482709
    115          1           0       11.390037   -0.760880    1.241587
    116          1           0       12.794692   -1.745550   -0.442609
    117          1           0       12.662301   -0.197726   -1.607324
    118          1           0       13.781546    1.235057    0.376593
    119          1           0       13.994531   -0.373324    1.285165
    120          1           0       15.190389   -0.074712   -1.421209
    121          1           0       14.993400   -2.111381   -1.142935
    122          1           0       16.805438   -1.727036   -0.906571
    123          1           0       15.760653   -2.241252    0.544387
    124          1           0       15.984347    1.858002    0.472468
    125          1           0       16.236399    0.445735    1.484816
    126          1           0       18.231447   -0.367821   -0.028914
    127          1           0       17.577450    0.993406   -1.310621
    128          1           0       18.350083    2.778500    0.271400
    129          1           0       18.706135    1.468927    1.468870
    130          1           0       20.503234    0.659377    0.028786
    131          1           0       19.555760    3.036521   -1.571784
    132          1           0       21.374409    2.192043   -1.862342
    133          1           0       19.729502    1.503105   -2.127680
    134          1           0       20.977215    2.200459    1.909585
    135          1           0       22.148849    2.500446    0.498367
    136          1           0       20.661750    3.649124    0.739099
    137          1           0       -7.106527    1.762258    0.236441
    138          1           0       -7.574918   -0.422267   -0.117729
 ---------------------------------------------------------------------

 SCF Done:  E(RB3LYP) =  -2733.08991885     A.U. after   17 cycles

 Excitation energies and oscillator strengths:

 Excited State   1:      Singlet-A      2.0319 eV  610.19 nm  f=0.1782  <S**2>=0.000
     235 -> 238        0.30926
     236 -> 237        0.63039
 This state for optimization and/or second-order correction.
 Total Energy, E(TD-HF/TD-DFT) =  -2733.01524774
 Copying the excited state density for this state as the 1-particle RhoCI density.

 The electronic state is 1-A.
 Alpha  occ. eigenvalues --  -19.17586 -19.17388 -19.13695 -19.12966 -19.12707
 Alpha  occ. eigenvalues --  -14.37476 -14.36308 -14.33024 -14.30245 -10.32345
 Alpha  occ. eigenvalues --  -10.32326 -10.28305 -10.25089 -10.24045 -10.24036
 Alpha  occ. eigenvalues --  -10.23992 -10.23738 -10.23556 -10.23157 -10.22908
 Alpha  occ. eigenvalues --  -10.22562 -10.22523 -10.22247 -10.21377 -10.20958
 Alpha  occ. eigenvalues --  -10.20950 -10.20911 -10.20906 -10.20815 -10.20802
 Alpha  occ. eigenvalues --  -10.20716 -10.20562 -10.20557 -10.20401 -10.20365
 Alpha  occ. eigenvalues --  -10.20350 -10.20312 -10.20246 -10.20197 -10.20145
 Alpha  occ. eigenvalues --  -10.19982 -10.19896 -10.19851 -10.19728 -10.19697
 Alpha  occ. eigenvalues --  -10.19510 -10.19367 -10.19222 -10.19179 -10.19157
 Alpha  occ. eigenvalues --  -10.19082 -10.18977 -10.18913 -10.18901 -10.18884
 Alpha  occ. eigenvalues --  -10.18723 -10.18722 -10.18661 -10.18642 -10.18349
 Alpha  occ. eigenvalues --  -10.18254 -10.17507 -10.17497 -10.17403  -1.09147
 Alpha  occ. eigenvalues --   -1.06155  -1.03540  -1.00413  -0.99993  -0.98867
 Alpha  occ. eigenvalues --   -0.98669  -0.96020  -0.92415  -0.85974  -0.82698
 Alpha  occ. eigenvalues --   -0.82662  -0.81975  -0.81637  -0.81207  -0.81036
 Alpha  occ. eigenvalues --   -0.80112  -0.79778  -0.79330  -0.78882  -0.78088
 Alpha  occ. eigenvalues --   -0.77276  -0.76662  -0.76153  -0.74838  -0.74476
 Alpha  occ. eigenvalues --   -0.74007  -0.73153  -0.72502  -0.71638  -0.71236
 Alpha  occ. eigenvalues --   -0.70753  -0.70189  -0.68576  -0.67927  -0.67501
 Alpha  occ. eigenvalues --   -0.66787  -0.66683  -0.66379  -0.65828  -0.64689
 Alpha  occ. eigenvalues --   -0.63989  -0.63317  -0.62701  -0.62168  -0.61149
 Alpha  occ. eigenvalues --   -0.60168  -0.58892  -0.58223  -0.58074  -0.57524
 Alpha  occ. eigenvalues --   -0.57129  -0.56535  -0.55975  -0.55643  -0.55528
 Alpha  occ. eigenvalues --   -0.55321  -0.54586  -0.54313  -0.53777  -0.53532
 Alpha  occ. eigenvalues --   -0.52768  -0.52194  -0.51428  -0.51009  -0.50703
 Alpha  occ. eigenvalues --   -0.50010  -0.49827  -0.49112  -0.48964  -0.48472
 Alpha  occ. eigenvalues --   -0.48372  -0.48180  -0.47801  -0.47670  -0.47285
 Alpha  occ. eigenvalues --   -0.47231  -0.46487  -0.46271  -0.46103  -0.45918
 Alpha  occ. eigenvalues --   -0.45751  -0.45555  -0.45082  -0.45032  -0.44814
 Alpha  occ. eigenvalues --   -0.44792  -0.44180  -0.43771  -0.43729  -0.43479
 Alpha  occ. eigenvalues --   -0.43326  -0.43105  -0.42924  -0.42653  -0.42583
 Alpha  occ. eigenvalues --   -0.42402  -0.42158  -0.41852  -0.41794  -0.41650
 Alpha  occ. eigenvalues --   -0.41239  -0.41069  -0.40904  -0.40645  -0.40494
 Alpha  occ. eigenvalues --   -0.40276  -0.40107  -0.39730  -0.39581  -0.39396
 Alpha  occ. eigenvalues --   -0.39349  -0.39203  -0.39025  -0.38774  -0.38628
 Alpha  occ. eigenvalues --   -0.38507  -0.38298  -0.38254  -0.37852  -0.37600
 Alpha  occ. eigenvalues --   -0.37493  -0.37196  -0.36983  -0.36865  -0.36599
 Alpha  occ. eigenvalues --   -0.36559  -0.36404  -0.36335  -0.36011  -0.35805
 Alpha  occ. eigenvalues --   -0.35770  -0.35488  -0.35371  -0.34887  -0.34642
 Alpha  occ. eigenvalues --   -0.34464  -0.34386  -0.34094  -0.34040  -0.33077
 Alpha  occ. eigenvalues --   -0.33022  -0.32847  -0.32590  -0.32494  -0.32083
 Alpha  occ. eigenvalues --   -0.32000  -0.31937  -0.31776  -0.31609  -0.31584
 Alpha  occ. eigenvalues --   -0.31414  -0.30873  -0.30533  -0.30035  -0.29944
 Alpha  occ. eigenvalues --   -0.29808  -0.29413  -0.28760  -0.28518  -0.28356
 Alpha  occ. eigenvalues --   -0.28165  -0.27395  -0.26800  -0.26681  -0.26106
 Alpha  occ. eigenvalues --   -0.25575  -0.24651  -0.24421  -0.23075  -0.19843
 Alpha  occ. eigenvalues --   -0.18829
 Alpha virt. eigenvalues --   -0.10328  -0.07672  -0.04805  -0.01998  -0.01189
 Alpha virt. eigenvalues --   -0.00754   0.00353   0.00514   0.01825   0.03267
 Alpha virt. eigenvalues --    0.03763   0.03837   0.04208   0.04363   0.04867

 Mulliken charges:
               1
     1  C   -0.065824
     2  C    0.008750
     3  C   -0.072211
     4  C   -0.099543
     5  N   -0.122442
     6  C   -0.010712
     7  C   -0.068392
     8  C   -0.011178
     9  C   -0.040848
    10  C    0.034520
    11  C   -0.000676
    12  C    0.083418
    13  C    0.207891
    14  O   -0.241574
    15  O   -0.382006
    16  N   -0.049413
    17  C    0.067398
    18  C   -0.144390
    19  C    0.055133
    20  C   -0.005337
    21  C    0.044748
    22  C   -0.067499
    23  C    0.054600
    24  N   -0.257012
    25  C    0.065842
    26  C   -0.090264
    27  C   -0.088706
    28  C    0.052322
    29  C    0.092120
    30  C    0.089496
    31  C   -0.112399
    32  N    0.105686
    33  C    0.066653
    34  C   -0.134022
    35  C   -0.070185
    36  C    0.117683
    37  C    0.095610
    38  C    0.055069
    39  O   -0.153280
    40  C   -0.024677
    41  C    0.243718
    42  O   -0.234441
    43  O   -0.301244
    44  C    0.202976
    45  C    0.263809
    46  C   -0.103208
    47  C   -0.123794
    48  C    0.033698
    49  C    0.011975
    50  C    0.057017
    51  C    0.078826
    52  C   -0.058003
    53  C    0.074143
    54  C   -0.035050
    55  C    0.025673
    56  C    0.062643
    57  C   -0.111322
    58  C   -0.058230
    59  C    0.052050
    60  C   -0.035830
    61  C    0.067188
    62  C   -0.101479
    63  C    0.016342
    64  C    0.021049
    65  H   -0.074390
    66  H   -0.015088
    67  H    0.018939
    68  H    0.036000
    69  H    0.007143
    70  H   -0.001306
    71  H    0.054695
    72  H    0.033614
    73  H    0.053935
    74  H    0.000714
    75  H   -0.017628
    76  H    0.034795
    77  H    0.056670
    78  H    0.001262
    79  H    0.033224
    80  H   -0.007518
    81  H   -0.009291
    82  H    0.043921
    83  H    0.046851
    84  H    0.010776
    85  H   -0.014005
    86  H    0.031777
    87  H   -0.003788
    88  H    0.029825
    89  H    0.037089
    90  H    0.020343
    91  H    0.035901
    92  H    0.030896
    93  H    0.027407
    94  H    0.086273
    95  H    0.021165
    96  H    0.017226
    97  H    0.026899
    98  H    0.030482
    99  H    0.030074
   100  H   -0.011670
   101  H    0.035578
   102  H    0.044417
   103  H    0.025030
   104  H    0.008925
   105  H   -0.006611
   106  H   -0.019469
   107  H    0.007822
   108  H    0.004299
   109  H   -0.054470
   110  H   -0.003858
   111  H    0.017378
   112  H   -0.050511
   113  H   -0.008908
   114  H   -0.024612
   115  H   -0.014885
   116  H    0.006884
   117  H    0.021090
   118  H    0.018373
   119  H   -0.013638
   120  H   -0.011949
   121  H    0.025201
   122  H    0.028870
   123  H    0.009225
   124  H   -0.008817
   125  H   -0.006190
   126  H    0.021737
   127  H    0.012618
   128  H   -0.009549
   129  H   -0.017246
   130  H   -0.014966
   131  H    0.000444
   132  H    0.030582
   133  H   -0.008833
   134  H    0.009411
   135  H    0.014645
   136  H    0.012262
   137  H    0.173319
   138  H    0.010337
 Sum of Mulliken charges =  -0.00000

 Dipole moment (field-independent basis, Debye):
    X=              1.6785    Y=              3.0456    Z=              1.1203  Tot=              3.6535
 Quadrupole moment (field-independent basis, Debye-Ang):
   XX=           -369.0295   YY=           -379.8856   ZZ=           -400.0593
   XY=            -22.5328   XZ=             10.7690   YZ=             -2.8258

 Normal termination of Gaussian 16 at Fri Aug  9 04:58:52 2019.
