 Gaussian 16, Revision A.03,
 Gaussian 16:  ES64L-G16RevA.03 25-Dec-2016

 --------------------------
 # td=(NStates=1) B3LYP/SVP
 --------------------------

 --
 TD
 --
 Symbolic Z-matrix:
 Charge =  0 Multiplicity = 1

                         Standard orientation:
 ---------------------------------------------------------------------
 Center     Atomic      Atomic             Coordinates (Angstroms)
 Number     Number       Type             X           Y           Z
 ---------------------------------------------------------------------
      1          6           0       -5.068010   -1.982475    0.619375
      2          6           0       -4.686237    2.770682    1.526156
      3          6           0       -9.331568    3.258147   -0.129503
      4          6           0       -9.714366   -1.470551   -1.111439
      5          7           0       -5.221252    0.327937    0.994947
      6          6           0       -4.465619   -0.827876    0.893820
      7          6           0       -3.071215   -0.518409    1.329139
      8          6           0       -3.111014    0.768336    2.006891
      9          6           0       -4.401261    1.319440    1.468242
     10          6           0       -3.190480    0.777340    3.509251
     11          6           0       -2.075447   -0.684731    0.204205
     12          6           0       -0.575571   -0.875738    0.638708
     13          6           0        0.240690   -0.826626   -0.660816
     14          8           0       -0.108222   -1.174962   -1.766028
     15          8           0        1.513782   -0.449167   -0.311185
     16          7           0       -6.983030    2.679435    0.625764
     17          6           0       -5.926244    3.349719    1.166393
     18          6           0       -6.216210    4.722367    1.142344
     19          6           0       -7.557439    4.844980    0.597755
     20          6           0       -8.100880    3.553734    0.331941
     21          6           0       -5.375548    5.817593    1.680951
     22          6           0       -8.128578    6.152755    0.492245
     23          6           0       -8.937131    6.553609   -0.515634
     24          7           0       -9.272143    0.825776   -0.585630
     25          6           0       -9.775861    1.984987   -0.536981
     26          6           0      -11.246255    1.912806   -1.107212
     27          6           0      -11.339901    0.544651   -1.288637
     28          6           0      -10.058933   -0.052911   -1.029460
     29          6           0      -12.180820    3.001091   -1.407179
     30          6           0      -12.435722   -0.239691   -1.993869
     31          6           0      -12.307698   -0.374523   -3.487887
     32          7           0       -7.412902   -1.308160   -0.166818
     33          6           0       -8.520287   -1.985502   -0.750334
     34          6           0       -8.132164   -3.373920   -0.769143
     35          6           0       -6.723540   -3.402365   -0.342460
     36          6           0       -6.414659   -2.117409    0.053800
     37          6           0       -8.918357   -4.577927   -1.091513
     38          6           0       -5.652780   -4.377650   -0.053566
     39          8           0       -5.481443   -5.551778   -0.202259
     40          6           0       -4.489547   -3.377509    0.578570
     41          6           0       -4.008396   -3.916866    1.862640
     42          8           0       -4.139802   -3.351482    2.976118
     43          8           0       -3.401472   -5.085606    1.625983
     44          6           0       -2.796312   -5.672587    2.854450
     45          6           0        2.518164   -0.628809   -1.393081
     46          6           0        3.936501   -0.580818   -0.589259
     47          6           0        4.949729    0.284211   -0.937143
     48          6           0        4.820312    1.257579   -2.111828
     49          6           0        6.234731    0.262957   -0.080344
     50          6           0        7.490075   -0.095354   -0.917996
     51          6           0        8.744602   -0.100954   -0.151777
     52          6           0        9.989291   -0.555623   -0.841785
     53          6           0        9.932572   -2.010619   -1.251346
     54          6           0       11.235555   -0.202555    0.017291
     55          6           0       12.685461   -0.532577   -0.723505
     56          6           0       13.860480   -0.051559    0.062325
     57          6           0       15.239793   -0.195459   -0.595871
     58          6           0       15.498808   -1.696997   -0.944026
     59          6           0       16.277719    0.555574    0.285900
     60          6           0       17.724666    0.580578   -0.270493
     61          6           0       18.654998    1.360355    0.603519
     62          6           0       20.226842    1.457596    0.267612
     63          6           0       20.397841    2.046122   -1.076594
     64          6           0       20.942758    2.061866    1.370978
     65          1           0       -4.072655    3.206683    2.379843
     66          1           0      -10.017655    4.006662   -0.031649
     67          1           0      -10.389482   -2.115351   -1.530958
     68          1           0       -2.792964   -1.421664    1.898322
     69          1           0       -2.216627    1.501253    1.724576
     70          1           0       -2.216360    0.266755    3.931191
     71          1           0       -3.408383    1.613321    3.978198
     72          1           0       -4.058991    0.072815    3.916308
     73          1           0       -2.262878   -1.541090   -0.585898
     74          1           0       -2.175432    0.318389   -0.399284
     75          1           0       -0.290165   -0.119347    1.508812
     76          1           0       -0.362119   -2.099863    1.114262
     77          1           0       -4.251944    5.902132    1.354443
     78          1           0       -5.877048    6.927094    1.409085
     79          1           0       -5.550489    5.679940    2.909239
     80          1           0       -7.927861    6.917933    1.320283
     81          1           0       -9.235938    5.904363   -1.324658
     82          1           0       -9.399523    7.647695   -0.545688
     83          1           0      -12.558950    3.610612   -0.573619
     84          1           0      -11.614215    3.936891   -1.954083
     85          1           0      -12.974343    2.598768   -2.161538
     86          1           0      -12.594004   -1.319774   -1.427304
     87          1           0      -13.580278    0.190032   -1.797864
     88          1           0      -12.078745    0.510239   -3.990633
     89          1           0      -11.710412   -1.301655   -3.682522
     90          1           0      -13.412265   -0.577096   -4.022297
     91          1           0      -10.035792   -4.411987   -0.551338
     92          1           0       -9.389728   -4.534432   -2.160162
     93          1           0       -8.361338   -5.448986   -0.583178
     94          1           0       -3.627994   -3.328124   -0.246080
     95          1           0       -2.294904   -6.551919    2.368530
     96          1           0       -2.149346   -5.145729    3.509401
     97          1           0       -3.514768   -6.091396    3.738433
     98          1           0        2.478916   -1.728726   -1.675324
     99          1           0        2.332269    0.225392   -2.193902
    100          1           0        4.246896   -1.360306    0.087386
    101          1           0        5.267170    2.271104   -1.854941
    102          1           0        5.339383    0.854922   -3.072213
    103          1           0        3.790307    1.398977   -2.557270
    104          1           0        6.342157    1.361877    0.481843
    105          1           0        6.134566   -0.723676    0.709395
    106          1           0        7.400449   -1.118381   -1.239387
    107          1           0        7.422849    0.537376   -1.857624
    108          1           0        8.877470    0.845588    0.260187
    109          1           0        8.718696   -0.680196    0.822870
    110          1           0        9.801846    0.182435   -1.676205
    111          1           0        9.128875   -2.336963   -2.009027
    112          1           0       10.796605   -2.457538   -1.835025
    113          1           0       10.030817   -2.576578   -0.193830
    114          1           0       11.390140    0.843911    0.156689
    115          1           0       11.386243   -0.600140    0.887880
    116          1           0       12.862882   -1.490164   -0.903140
    117          1           0       12.807814   -0.090072   -1.772013
    118          1           0       13.532375    1.035112    0.444654
    119          1           0       13.906461   -0.549453    1.033061
    120          1           0       15.334269    0.410560   -1.489342
    121          1           0       14.713526   -2.025244   -1.867634
    122          1           0       16.624434   -1.971655   -1.147350
    123          1           0       15.173486   -2.440799   -0.042563
    124          1           0       15.816922    1.434994    0.388261
    125          1           0       16.445819    0.142157    1.447341
    126          1           0       18.079291   -0.273448   -0.512577
    127          1           0       17.527421    1.086244   -1.248420
    128          1           0       18.164080    2.387352    0.848389
    129          1           0       18.701671    0.881380    1.671451
    130          1           0       20.655083    0.592557    0.053482
    131          1           0       20.404359    3.118173   -1.054597
    132          1           0       21.278645    1.837094   -1.512508
    133          1           0       19.864069    1.618755   -1.858403
    134          1           0       20.732861    1.443592    2.400645
    135          1           0       22.001012    2.464609    1.080986
    136          1           0       20.538581    3.152285    1.688743
    137          1           0       -7.207846    1.704906    0.526702
    138          1           0       -7.281951   -0.337035    0.009373
 ---------------------------------------------------------------------

 SCF Done:  E(RB3LYP) =  -2732.97998510     A.U. after   16 cycles

 Excitation energies and oscillator strengths:

 Excited State   1:      Singlet-A      2.0238 eV  612.63 nm  f=0.1760  <S**2>=0.000
     235 -> 237       -0.26791
     235 -> 238       -0.22721
     236 -> 237        0.57557
     236 -> 238       -0.20023
 This state for optimization and/or second-order correction.
 Total Energy, E(TD-HF/TD-DFT) =  -2732.90561163
 Copying the excited state density for this state as the 1-particle RhoCI density.

 The electronic state is 1-A.
 Alpha  occ. eigenvalues --  -19.19005 -19.17191 -19.13245 -19.13036 -19.12043
 Alpha  occ. eigenvalues --  -14.37288 -14.36459 -14.32031 -14.29239 -10.31708
 Alpha  occ. eigenvalues --  -10.31425 -10.28795 -10.26732 -10.25513 -10.24096
 Alpha  occ. eigenvalues --  -10.23728 -10.23525 -10.23451 -10.23379 -10.23207
 Alpha  occ. eigenvalues --  -10.22876 -10.22439 -10.22361 -10.22126 -10.22098
 Alpha  occ. eigenvalues --  -10.21404 -10.21394 -10.21226 -10.20972 -10.20851
 Alpha  occ. eigenvalues --  -10.20847 -10.20841 -10.20801 -10.20793 -10.20680
 Alpha  occ. eigenvalues --  -10.20583 -10.20429 -10.20417 -10.20333 -10.20308
 Alpha  occ. eigenvalues --  -10.19816 -10.19803 -10.19796 -10.19767 -10.19526
 Alpha  occ. eigenvalues --  -10.19522 -10.19417 -10.19403 -10.19317 -10.19165
 Alpha  occ. eigenvalues --  -10.19078 -10.18976 -10.18937 -10.18520 -10.18512
 Alpha  occ. eigenvalues --  -10.18309 -10.18204 -10.17777 -10.17770 -10.17397
 Alpha  occ. eigenvalues --  -10.17217 -10.17130 -10.16873 -10.15291  -1.08689
 Alpha  occ. eigenvalues --   -1.08029  -1.04149  -1.00256  -0.99539  -0.98577
 Alpha  occ. eigenvalues --   -0.97551  -0.96796  -0.94265  -0.84389  -0.82876
 Alpha  occ. eigenvalues --   -0.82097  -0.81999  -0.81778  -0.81131  -0.80888
 Alpha  occ. eigenvalues --   -0.80704  -0.80104  -0.79326  -0.78861  -0.77287
 Alpha  occ. eigenvalues --   -0.77009  -0.76092  -0.75504  -0.74728  -0.74342
 Alpha  occ. eigenvalues --   -0.73539  -0.72940  -0.72339  -0.71590  -0.70363
 Alpha  occ. eigenvalues --   -0.69528  -0.68908  -0.68856  -0.68520  -0.67759
 Alpha  occ. eigenvalues --   -0.67494  -0.66811  -0.66008  -0.65981  -0.64999
 Alpha  occ. eigenvalues --   -0.64715  -0.62879  -0.62008  -0.61335  -0.60833
 Alpha  occ. eigenvalues --   -0.60112  -0.59226  -0.58649  -0.57954  -0.57744
 Alpha  occ. eigenvalues --   -0.57074  -0.56737  -0.55994  -0.55793  -0.55686
 Alpha  occ. eigenvalues --   -0.54844  -0.54807  -0.53980  -0.53279  -0.52862
 Alpha  occ. eigenvalues --   -0.52635  -0.52166  -0.51636  -0.50955  -0.50202
 Alpha  occ. eigenvalues --   -0.49170  -0.49087  -0.48879  -0.48693  -0.48301
 Alpha  occ. eigenvalues --   -0.47662  -0.47584  -0.47309  -0.47110  -0.46772
 Alpha  occ. eigenvalues --   -0.46515  -0.46304  -0.46152  -0.46053  -0.45791
 Alpha  occ. eigenvalues --   -0.45650  -0.45205  -0.45136  -0.44906  -0.44707
 Alpha  occ. eigenvalues --   -0.44296  -0.44126  -0.44065  -0.43871  -0.43522
 Alpha  occ. eigenvalues --   -0.43378  -0.43204  -0.43031  -0.42782  -0.42292
 Alpha  occ. eigenvalues --   -0.42147  -0.42001  -0.41904  -0.41870  -0.41551
 Alpha  occ. eigenvalues --   -0.41474  -0.41352  -0.41084  -0.40445  -0.40378
 Alpha  occ. eigenvalues --   -0.40118  -0.39764  -0.39657  -0.39488  -0.39261
 Alpha  occ. eigenvalues --   -0.39174  -0.38975  -0.38861  -0.38754  -0.38556
 Alpha  occ. eigenvalues --   -0.38071  -0.37808  -0.37529  -0.37419  -0.37306
 Alpha  occ. eigenvalues --   -0.37155  -0.36979  -0.36943  -0.36718  -0.36609
 Alpha  occ. eigenvalues --   -0.36560  -0.36126  -0.35979  -0.35779  -0.35647
 Alpha  occ. eigenvalues --   -0.35451  -0.35257  -0.35158  -0.34760  -0.34605
 Alpha  occ. eigenvalues --   -0.34409  -0.34084  -0.34024  -0.33938  -0.33671
 Alpha  occ. eigenvalues --   -0.33201  -0.33086  -0.32450  -0.32261  -0.32112
 Alpha  occ. eigenvalues --   -0.32059  -0.31849  -0.31529  -0.31374  -0.30898
 Alpha  occ. eigenvalues --   -0.30851  -0.30646  -0.30575  -0.30349  -0.30237
 Alpha  occ. eigenvalues --   -0.30162  -0.29049  -0.28574  -0.28507  -0.28191
 Alpha  occ. eigenvalues --   -0.27677  -0.27106  -0.26022  -0.25600  -0.25088
 Alpha  occ. eigenvalues --   -0.24964  -0.24476  -0.23472  -0.22832  -0.20220
 Alpha  occ. eigenvalues --   -0.18964
 Alpha virt. eigenvalues --   -0.10767  -0.07905  -0.04325  -0.01884  -0.01360
 Alpha virt. eigenvalues --   -0.00974  -0.00245   0.00091   0.02493   0.03220
 Alpha virt. eigenvalues --    0.03653   0.03852   0.04114   0.04149   0.04383

 Mulliken charges:
               1
     1  C    0.062485
     2  C   -0.074650
     3  C   -0.097728
     4  C   -0.047568
     5  N   -0.224489
     6  C   -0.084019
     7  C    0.105033
     8  C   -0.038476
     9  C   -0.049607
    10  C    0.087793
    11  C   -0.065436
    12  C   -0.065929
    13  C    0.211304
    14  O   -0.228894
    15  O   -0.335611
    16  N   -0.108493
    17  C    0.135136
    18  C   -0.098821
    19  C    0.053557
    20  C    0.148378
    21  C   -0.044705
    22  C   -0.089955
    23  C   -0.069699
    24  N   -0.026183
    25  C    0.011780
    26  C   -0.141184
    27  C   -0.063323
    28  C   -0.025030
    29  C    0.039134
    30  C   -0.073436
    31  C    0.030634
    32  N    0.026111
    33  C    0.181475
    34  C   -0.125688
    35  C   -0.066375
    36  C    0.010126
    37  C    0.022420
    38  C    0.093612
    39  O   -0.130776
    40  C   -0.148208
    41  C    0.234155
    42  O   -0.273636
    43  O   -0.277381
    44  C    0.152890
    45  C    0.216276
    46  C   -0.070597
    47  C   -0.121663
    48  C    0.024490
    49  C   -0.039620
    50  C    0.042523
    51  C    0.071355
    52  C   -0.021122
    53  C   -0.015040
    54  C    0.114221
    55  C    0.070082
    56  C   -0.045581
    57  C   -0.004778
    58  C   -0.082403
    59  C    0.000289
    60  C    0.165748
    61  C   -0.045510
    62  C    0.035135
    63  C    0.118377
    64  C   -0.043260
    65  H    0.015799
    66  H   -0.050661
    67  H   -0.067895
    68  H   -0.012087
    69  H    0.017431
    70  H    0.023696
    71  H   -0.029023
    72  H    0.033870
    73  H    0.054769
    74  H    0.019383
    75  H    0.057988
    76  H    0.065830
    77  H    0.063009
    78  H    0.043013
    79  H    0.058205
    80  H    0.032485
    81  H    0.027283
    82  H    0.041742
    83  H    0.025745
    84  H    0.018304
    85  H    0.041363
    86  H    0.017082
    87  H    0.013898
    88  H    0.008719
    89  H    0.022680
    90  H    0.007281
    91  H    0.031404
    92  H    0.052264
    93  H    0.081425
    94  H    0.088364
    95  H    0.045483
    96  H    0.030335
    97  H    0.043745
    98  H    0.042889
    99  H    0.067550
   100  H   -0.007738
   101  H    0.029960
   102  H    0.041428
   103  H    0.010620
   104  H    0.040609
   105  H    0.027025
   106  H   -0.016063
   107  H    0.004018
   108  H   -0.045865
   109  H   -0.032664
   110  H   -0.016294
   111  H    0.029097
   112  H    0.015304
   113  H    0.018796
   114  H   -0.016192
   115  H   -0.052897
   116  H   -0.050067
   117  H   -0.013107
   118  H   -0.009364
   119  H   -0.015157
   120  H   -0.013812
   121  H    0.042398
   122  H    0.037902
   123  H    0.028279
   124  H   -0.037777
   125  H   -0.006392
   126  H   -0.070314
   127  H   -0.014520
   128  H    0.001863
   129  H   -0.008269
   130  H   -0.050462
   131  H   -0.016077
   132  H   -0.053188
   133  H   -0.024872
   134  H    0.034644
   135  H    0.018108
   136  H    0.001613
   137  H    0.134938
   138  H    0.121477
 Sum of Mulliken charges =  -0.00000

 Dipole moment (field-independent basis, Debye):
    X=              2.6053    Y=              3.2339    Z=              0.1865  Tot=              4.1570
 Quadrupole moment (field-independent basis, Debye-Ang):
   XX=           -357.9359   YY=           -381.4832   ZZ=           -394.3782
   XY=            -25.6614   XZ=             -3.9460   YZ=             -1.1010

 Normal termination of Gaussian 16 at Mon Aug 26 03:44:44 2019.
