 Gaussian 16, Revision A.03,
 Gaussian 16:  ES64L-G16RevA.03 25-Dec-2016

 --------------------------
 # td=(NStates=1) B3LYP/SVP
 --------------------------

 --
 TD
 --
 Symbolic Z-matrix:
 Charge =  0 Multiplicity = 1

                         Standard orientation:
 ---------------------------------------------------------------------
 Center     Atomic      Atomic             Coordinates (Angstroms)
 Number     Number       Type             X           Y           Z
 ---------------------------------------------------------------------
      1          6           0       -5.077780   -1.913007    0.513702
      2          6           0       -4.898193    2.799962    1.416277
      3          6           0       -9.411125    3.287465   -0.267070
      4          6           0       -9.772146   -1.488578   -0.971906
      5          7           0       -5.164985    0.463998    0.859221
      6          6           0       -4.488424   -0.706275    0.814733
      7          6           0       -3.078781   -0.499152    1.304011
      8          6           0       -3.155149    0.969572    1.811590
      9          6           0       -4.468649    1.424383    1.330773
     10          6           0       -3.029275    0.909955    3.337956
     11          6           0       -2.158125   -0.602559    0.119480
     12          6           0       -0.626223   -0.514171    0.518466
     13          6           0        0.330760   -0.891317   -0.704739
     14          8           0        0.035443   -1.213187   -1.805429
     15          8           0        1.651632   -0.438655   -0.341773
     16          7           0       -6.992525    2.806338    0.340444
     17          6           0       -5.952672    3.411213    0.989861
     18          6           0       -6.296210    4.811964    0.963930
     19          6           0       -7.577062    4.951196    0.456579
     20          6           0       -8.047449    3.622340    0.147617
     21          6           0       -5.394841    5.856432    1.612023
     22          6           0       -8.321940    6.229627    0.336046
     23          6           0       -9.215692    6.597766   -0.502619
     24          7           0       -9.201117    0.825855   -0.519825
     25          6           0       -9.919695    1.944957   -0.405429
     26          6           0      -11.293589    1.686565   -0.849878
     27          6           0      -11.428591    0.411255   -1.130029
     28          6           0      -10.073471   -0.189231   -0.846289
     29          6           0      -12.249746    2.837738   -1.011941
     30          6           0      -12.630893   -0.395748   -1.715113
     31          6           0      -12.463288   -0.551053   -3.225608
     32          7           0       -7.493858   -1.312274   -0.091663
     33          6           0       -8.596521   -2.096400   -0.518752
     34          6           0       -8.101019   -3.433024   -0.635575
     35          6           0       -6.773852   -3.469938   -0.228528
     36          6           0       -6.373046   -2.123442    0.031577
     37          6           0       -8.924429   -4.709699   -0.968546
     38          6           0       -5.615969   -4.331488   -0.035280
     39          8           0       -5.578743   -5.566712   -0.063186
     40          6           0       -4.409925   -3.340442    0.529031
     41          6           0       -3.983882   -3.795777    1.857010
     42          8           0       -4.324856   -3.325085    2.863623
     43          8           0       -2.982455   -4.751011    1.752710
     44          6           0       -2.615581   -5.386841    2.889955
     45          6           0        2.615503   -0.927276   -1.285764
     46          6           0        3.901469   -0.502481   -0.646973
     47          6           0        4.968390    0.096461   -1.446576
     48          6           0        5.041573    0.477002   -2.929296
     49          6           0        6.222545    0.292105   -0.715025
     50          6           0        7.473630   -0.475592   -1.212808
     51          6           0        8.688955   -0.087380   -0.338521
     52          6           0       10.122746   -0.710790   -0.760876
     53          6           0       10.002878   -2.297475   -0.912058
     54          6           0       11.284545   -0.180197   -0.037620
     55          6           0       12.687812   -0.592758   -0.533890
     56          6           0       13.823774    0.165875    0.249051
     57          6           0       15.305273   -0.249417   -0.279529
     58          6           0       15.568079   -1.764177   -0.187119
     59          6           0       16.383920    0.599499    0.508098
     60          6           0       17.752737    0.678956   -0.045094
     61          6           0       18.800220    1.434975    0.756173
     62          6           0       20.195965    1.559077    0.165804
     63          6           0       20.242574    2.276834   -1.184088
     64          6           0       21.138066    2.276043    1.213121
     65          1           0       -4.166163    3.460270    1.699655
     66          1           0      -10.176571    4.245874   -0.118810
     67          1           0      -10.540206   -2.373217   -1.062240
     68          1           0       -2.846998   -1.134078    2.044892
     69          1           0       -2.419962    1.681213    1.344126
     70          1           0       -1.985525    0.249761    3.436864
     71          1           0       -3.135447    1.907119    3.964524
     72          1           0       -3.857988    0.144866    3.872509
     73          1           0       -2.305730   -1.459751   -0.397794
     74          1           0       -2.173863    0.113910   -0.695203
     75          1           0       -0.230588    0.401611    0.798649
     76          1           0       -0.466056   -1.152048    1.417504
     77          1           0       -4.615438    5.891070    0.886997
     78          1           0       -6.014717    6.790800    1.664682
     79          1           0       -5.113479    5.643716    2.748563
     80          1           0       -8.265419    6.989726    1.408609
     81          1           0       -9.623676    6.120866   -1.328474
     82          1           0       -9.946131    7.597560   -0.331462
     83          1           0      -12.657029    3.131965    0.143953
     84          1           0      -11.675944    3.672599   -1.599750
     85          1           0      -13.367166    2.459634   -1.611273
     86          1           0      -12.729934   -1.425111   -1.240684
     87          1           0      -13.682912    0.108624   -1.479331
     88          1           0      -12.350568    0.396819   -3.675309
     89          1           0      -11.723091   -1.062814   -3.483160
     90          1           0      -13.542670   -0.926309   -3.544271
     91          1           0       -9.860080   -4.796734   -0.350733
     92          1           0       -9.329242   -4.649686   -2.047310
     93          1           0       -8.418629   -5.643499   -0.799480
     94          1           0       -3.697202   -3.496981   -0.222691
     95          1           0       -2.121691   -6.272290    2.494038
     96          1           0       -2.149787   -4.655934    3.603118
     97          1           0       -3.636563   -5.675146    3.355561
     98          1           0        2.601038   -2.055650   -1.394498
     99          1           0        2.417689   -0.471345   -2.434383
    100          1           0        3.978202   -0.651812    0.418348
    101          1           0        5.360774    1.459836   -2.819718
    102          1           0        5.937816   -0.020577   -3.514267
    103          1           0        3.923775    0.361968   -3.459924
    104          1           0        6.310078    1.413792   -0.532652
    105          1           0        6.285158    0.190033    0.459421
    106          1           0        7.426214   -1.617383   -0.993066
    107          1           0        7.727397   -0.247000   -2.167301
    108          1           0        8.650708    1.020607   -0.477522
    109          1           0        8.679804   -0.386131    0.853149
    110          1           0       10.155358   -0.467516   -1.840829
    111          1           0        9.104888   -2.499730   -1.488962
    112          1           0       10.897603   -2.586419   -1.405854
    113          1           0       10.055500   -2.754606    0.030166
    114          1           0       11.195548    0.841975   -0.069896
    115          1           0       11.212466   -0.458404    1.182952
    116          1           0       12.925241   -1.731158   -0.451439
    117          1           0       12.916981   -0.269370   -1.585782
    118          1           0       13.776085    1.250910    0.263410
    119          1           0       13.735044    0.024193    1.393639
    120          1           0       15.466348    0.107202   -1.380997
    121          1           0       14.830386   -2.189927   -0.945409
    122          1           0       16.579124   -2.050897   -0.409992
    123          1           0       15.479960   -2.255181    0.760054
    124          1           0       16.205823    1.711635    0.649293
    125          1           0       16.541087    0.334437    1.629170
    126          1           0       17.985278   -0.495151   -0.331026
    127          1           0       17.502675    1.367548   -1.113590
    128          1           0       18.350495    2.480792    0.973019
    129          1           0       18.874499    0.637569    1.642745
    130          1           0       20.571165    0.591835   -0.035112
    131          1           0       19.865810    3.264780   -1.229024
    132          1           0       21.164351    2.280643   -1.456926
    133          1           0       19.591443    1.621159   -1.894954
    134          1           0       21.177909    1.725799    2.128074
    135          1           0       22.112546    2.033235    0.879543
    136          1           0       20.737814    3.391368    1.298125
    137          1           0       -7.004959    1.762473    0.285933
    138          1           0       -7.688542   -0.381324    0.283032
 ---------------------------------------------------------------------

 SCF Done:  E(RB3LYP) =  -2733.02521510     A.U. after   17 cycles

 Excitation energies and oscillator strengths:

 Excited State   1:      Singlet-A      2.1611 eV  573.72 nm  f=0.1838  <S**2>=0.000
     235 -> 237        0.13245
     235 -> 238        0.28547
     236 -> 237        0.62276
     236 -> 238       -0.10877
 This state for optimization and/or second-order correction.
 Total Energy, E(TD-HF/TD-DFT) =  -2732.94579729
 Copying the excited state density for this state as the 1-particle RhoCI density.

 The electronic state is 1-A.
 Alpha  occ. eigenvalues --  -19.16823 -19.16298 -19.14647 -19.13243 -19.12667
 Alpha  occ. eigenvalues --  -14.36861 -14.36654 -14.32252 -14.30191 -10.32295
 Alpha  occ. eigenvalues --  -10.31249 -10.28609 -10.25085 -10.24915 -10.23899
 Alpha  occ. eigenvalues --  -10.23509 -10.23156 -10.23086 -10.23039 -10.22890
 Alpha  occ. eigenvalues --  -10.22584 -10.22489 -10.22379 -10.21976 -10.21631
 Alpha  occ. eigenvalues --  -10.21450 -10.21440 -10.21417 -10.21183 -10.21062
 Alpha  occ. eigenvalues --  -10.21043 -10.20977 -10.20973 -10.20830 -10.20796
 Alpha  occ. eigenvalues --  -10.20722 -10.20693 -10.20619 -10.20435 -10.20357
 Alpha  occ. eigenvalues --  -10.20020 -10.19914 -10.19690 -10.19637 -10.19545
 Alpha  occ. eigenvalues --  -10.19489 -10.19392 -10.19118 -10.19073 -10.19039
 Alpha  occ. eigenvalues --  -10.18991 -10.18940 -10.18928 -10.18872 -10.18691
 Alpha  occ. eigenvalues --  -10.18412 -10.18351 -10.18311 -10.17954 -10.17938
 Alpha  occ. eigenvalues --  -10.17933 -10.16977 -10.16855 -10.16155  -1.10783
 Alpha  occ. eigenvalues --   -1.08788  -1.03189  -1.01662  -1.01294  -0.99468
 Alpha  occ. eigenvalues --   -0.97392  -0.96685  -0.93968  -0.84705  -0.82537
 Alpha  occ. eigenvalues --   -0.82044  -0.81800  -0.81711  -0.81205  -0.80294
 Alpha  occ. eigenvalues --   -0.79837  -0.79555  -0.79097  -0.78830  -0.77703
 Alpha  occ. eigenvalues --   -0.76994  -0.76183  -0.75795  -0.75150  -0.74408
 Alpha  occ. eigenvalues --   -0.73835  -0.73641  -0.72555  -0.71477  -0.70976
 Alpha  occ. eigenvalues --   -0.69873  -0.68902  -0.68465  -0.68127  -0.67540
 Alpha  occ. eigenvalues --   -0.67142  -0.66766  -0.66624  -0.65978  -0.64352
 Alpha  occ. eigenvalues --   -0.63566  -0.62726  -0.62442  -0.62017  -0.61482
 Alpha  occ. eigenvalues --   -0.60308  -0.59919  -0.58711  -0.58141  -0.57793
 Alpha  occ. eigenvalues --   -0.56573  -0.55526  -0.55437  -0.55125  -0.54965
 Alpha  occ. eigenvalues --   -0.54606  -0.54231  -0.54200  -0.53521  -0.53013
 Alpha  occ. eigenvalues --   -0.52975  -0.52383  -0.51565  -0.51115  -0.50763
 Alpha  occ. eigenvalues --   -0.49944  -0.49592  -0.49193  -0.48778  -0.48046
 Alpha  occ. eigenvalues --   -0.47892  -0.47710  -0.47564  -0.47434  -0.47193
 Alpha  occ. eigenvalues --   -0.46968  -0.46515  -0.46433  -0.46230  -0.46073
 Alpha  occ. eigenvalues --   -0.45682  -0.45504  -0.45349  -0.44890  -0.44763
 Alpha  occ. eigenvalues --   -0.44613  -0.44115  -0.43944  -0.43740  -0.43577
 Alpha  occ. eigenvalues --   -0.43502  -0.43226  -0.43002  -0.42792  -0.42693
 Alpha  occ. eigenvalues --   -0.42295  -0.42167  -0.41874  -0.41786  -0.41484
 Alpha  occ. eigenvalues --   -0.41420  -0.41107  -0.40951  -0.40543  -0.40108
 Alpha  occ. eigenvalues --   -0.39831  -0.39725  -0.39641  -0.39415  -0.39326
 Alpha  occ. eigenvalues --   -0.39158  -0.38933  -0.38846  -0.38598  -0.38558
 Alpha  occ. eigenvalues --   -0.38442  -0.38352  -0.38195  -0.38011  -0.37900
 Alpha  occ. eigenvalues --   -0.37757  -0.37681  -0.37532  -0.37252  -0.37169
 Alpha  occ. eigenvalues --   -0.37046  -0.36509  -0.36337  -0.36150  -0.35992
 Alpha  occ. eigenvalues --   -0.35790  -0.35721  -0.35441  -0.34773  -0.34628
 Alpha  occ. eigenvalues --   -0.34573  -0.33998  -0.33953  -0.33913  -0.33757
 Alpha  occ. eigenvalues --   -0.33284  -0.33251  -0.33066  -0.32926  -0.32593
 Alpha  occ. eigenvalues --   -0.32423  -0.32348  -0.31686  -0.31412  -0.31090
 Alpha  occ. eigenvalues --   -0.30621  -0.30420  -0.30018  -0.29982  -0.29773
 Alpha  occ. eigenvalues --   -0.29375  -0.29016  -0.28861  -0.28799  -0.28470
 Alpha  occ. eigenvalues --   -0.27882  -0.27167  -0.26708  -0.26575  -0.25785
 Alpha  occ. eigenvalues --   -0.25419  -0.25192  -0.23646  -0.22511  -0.20527
 Alpha  occ. eigenvalues --   -0.19236
 Alpha virt. eigenvalues --   -0.10306  -0.07765  -0.04963  -0.01617  -0.01447
 Alpha virt. eigenvalues --   -0.00528  -0.00286   0.00426   0.02013   0.02158
 Alpha virt. eigenvalues --    0.03393   0.03527   0.03939   0.04065   0.04806

 Mulliken charges:
               1
     1  C    0.059740
     2  C   -0.028693
     3  C   -0.149659
     4  C   -0.089060
     5  N   -0.102115
     6  C   -0.118294
     7  C    0.064258
     8  C   -0.002922
     9  C   -0.063807
    10  C   -0.059390
    11  C    0.112471
    12  C    0.024503
    13  C    0.189758
    14  O   -0.179625
    15  O   -0.363303
    16  N   -0.055211
    17  C    0.110670
    18  C   -0.135536
    19  C    0.021450
    20  C    0.068614
    21  C    0.088699
    22  C   -0.039401
    23  C   -0.089398
    24  N   -0.231815
    25  C    0.072991
    26  C   -0.119248
    27  C   -0.060231
    28  C    0.092111
    29  C   -0.052685
    30  C    0.004399
    31  C    0.116669
    32  N   -0.087921
    33  C    0.009068
    34  C   -0.135681
    35  C    0.046353
    36  C    0.060812
    37  C    0.066928
    38  C    0.039050
    39  O   -0.189898
    40  C   -0.027486
    41  C    0.204781
    42  O   -0.165292
    43  O   -0.311392
    44  C    0.167709
    45  C    0.197006
    46  C   -0.074312
    47  C   -0.104883
    48  C    0.042863
    49  C   -0.019467
    50  C    0.075308
    51  C   -0.083571
    52  C   -0.086868
    53  C    0.063077
    54  C    0.097609
    55  C   -0.001584
    56  C    0.006207
    57  C   -0.058537
    58  C    0.048639
    59  C    0.012098
    60  C   -0.102183
    61  C    0.030803
    62  C   -0.098348
    63  C    0.105134
    64  C    0.067959
    65  H   -0.071711
    66  H    0.054583
    67  H    0.022283
    68  H   -0.040095
    69  H    0.009457
    70  H    0.039957
    71  H    0.045476
    72  H    0.054578
    73  H   -0.025449
    74  H    0.002127
    75  H    0.016053
    76  H    0.025590
    77  H    0.033910
    78  H    0.018120
    79  H    0.055478
    80  H    0.051784
    81  H    0.007418
    82  H    0.041920
    83  H    0.055085
    84  H    0.063457
    85  H    0.036740
    86  H    0.009496
    87  H    0.014722
    88  H   -0.005550
    89  H   -0.045618
    90  H    0.018143
    91  H    0.026429
    92  H    0.031946
    93  H    0.031204
    94  H    0.033048
    95  H    0.038602
    96  H    0.023732
    97  H    0.018249
    98  H    0.033368
    99  H    0.044002
   100  H   -0.000234
   101  H    0.003719
   102  H    0.052486
   103  H    0.048744
   104  H    0.006181
   105  H   -0.003067
   106  H    0.033424
   107  H   -0.024021
   108  H   -0.002822
   109  H    0.018474
   110  H   -0.024422
   111  H    0.012053
   112  H   -0.004413
   113  H   -0.011242
   114  H   -0.032962
   115  H    0.004489
   116  H    0.030555
   117  H    0.003883
   118  H   -0.013969
   119  H   -0.003973
   120  H    0.008028
   121  H    0.025261
   122  H   -0.006459
   123  H    0.000911
   124  H   -0.019264
   125  H   -0.018572
   126  H    0.011333
   127  H   -0.001195
   128  H    0.009307
   129  H    0.009405
   130  H   -0.029258
   131  H   -0.010780
   132  H   -0.047930
   133  H    0.020574
   134  H   -0.013613
   135  H   -0.012334
   136  H    0.035493
   137  H    0.150584
   138  H    0.147173
 Sum of Mulliken charges =  -0.00000

 Dipole moment (field-independent basis, Debye):
    X=              1.7621    Y=              4.4118    Z=              1.1097  Tot=              4.8785
 Quadrupole moment (field-independent basis, Debye-Ang):
   XX=           -349.8661   YY=           -389.6639   ZZ=           -396.5536
   XY=            -27.8763   XZ=             -0.9933   YZ=              1.8102

 Normal termination of Gaussian 16 at Thu Aug 29 03:12:17 2019.
