 Gaussian 16, Revision A.03,
 Gaussian 16:  ES64L-G16RevA.03 25-Dec-2016

 --------------------------
 # td=(NStates=1) B3LYP/SVP
 --------------------------

 --
 TD
 --
 Symbolic Z-matrix:
 Charge =  0 Multiplicity = 1

                         Standard orientation:
 ---------------------------------------------------------------------
 Center     Atomic      Atomic             Coordinates (Angstroms)
 Number     Number       Type             X           Y           Z
 ---------------------------------------------------------------------
      1          6           0       -5.146587   -1.923431    0.462414
      2          6           0       -4.684340    2.735489    1.557097
      3          6           0       -9.246778    3.449747   -0.291889
      4          6           0       -9.826616   -1.378299   -0.961748
      5          7           0       -5.151203    0.462251    0.678735
      6          6           0       -4.425289   -0.710869    0.671559
      7          6           0       -3.026303   -0.728022    1.214590
      8          6           0       -3.076365    0.730838    1.837192
      9          6           0       -4.342934    1.384016    1.267266
     10          6           0       -3.049232    0.893427    3.354429
     11          6           0       -2.022402   -0.917356    0.139529
     12          6           0       -0.608913   -0.810687    0.533360
     13          6           0        0.473460   -0.953490   -0.624903
     14          8           0        0.124533   -1.363398   -1.694682
     15          8           0        1.668888   -0.767203   -0.195080
     16          7           0       -7.093337    2.798546    0.545123
     17          6           0       -5.887356    3.382388    1.105385
     18          6           0       -6.102835    4.754200    1.052698
     19          6           0       -7.402430    5.071242    0.439608
     20          6           0       -7.973185    3.709185    0.184021
     21          6           0       -5.301467    5.779419    1.626904
     22          6           0       -8.056698    6.398618    0.329228
     23          6           0       -9.002554    6.826920   -0.398733
     24          7           0       -9.142336    0.920702   -0.582945
     25          6           0       -9.792480    2.125908   -0.657411
     26          6           0      -11.216018    1.950128   -1.069366
     27          6           0      -11.375568    0.633881   -1.256020
     28          6           0      -10.014718   -0.031078   -0.901993
     29          6           0      -12.207603    3.106529   -1.116191
     30          6           0      -12.605677   -0.141421   -1.659495
     31          6           0      -12.662929   -0.527197   -3.125184
     32          7           0       -7.556322   -1.243207   -0.241547
     33          6           0       -8.608858   -1.969060   -0.679997
     34          6           0       -8.209430   -3.393760   -0.685965
     35          6           0       -6.917734   -3.399449   -0.228607
     36          6           0       -6.478139   -2.033713    0.016827
     37          6           0       -9.006073   -4.646166   -1.058944
     38          6           0       -5.803295   -4.331160    0.037971
     39          8           0       -5.776621   -5.514269    0.104110
     40          6           0       -4.553968   -3.409875    0.463062
     41          6           0       -4.074664   -3.871741    1.827272
     42          8           0       -4.434858   -3.347214    2.914089
     43          8           0       -3.148597   -4.760139    1.593621
     44          6           0       -2.661867   -5.549350    2.778428
     45          6           0        2.639592   -1.147351   -1.161620
     46          6           0        3.921685   -0.776840   -0.549051
     47          6           0        4.940901    0.002175   -1.114137
     48          6           0        4.947856    0.721494   -2.448478
     49          6           0        6.336330    0.061786   -0.396478
     50          6           0        7.553688   -0.623385   -1.062404
     51          6           0        8.773605   -0.325467   -0.296691
     52          6           0       10.073117   -0.819124   -0.803346
     53          6           0       10.125923   -2.370003   -0.772791
     54          6           0       11.379991   -0.328326    0.018617
     55          6           0       12.680698   -0.543341   -0.570153
     56          6           0       13.878059   -0.199718    0.279768
     57          6           0       15.172131   -0.220868   -0.447685
     58          6           0       15.629128   -1.664541   -0.725715
     59          6           0       16.242751    0.632964    0.456570
     60          6           0       17.619024    0.683962   -0.107852
     61          6           0       18.529698    1.580835    0.721135
     62          6           0       20.064534    1.868860    0.157392
     63          6           0       20.059895    2.505012   -1.191545
     64          6           0       20.875104    2.598129    1.097319
     65          1           0       -3.831704    3.478433    1.813360
     66          1           0       -9.911962    4.235932   -0.137310
     67          1           0      -10.671295   -2.035042   -1.614442
     68          1           0       -2.855093   -1.328527    2.166413
     69          1           0       -2.292952    1.206562    1.480182
     70          1           0       -2.165747    0.631826    3.651898
     71          1           0       -3.222195    1.916898    3.708184
     72          1           0       -3.884387    0.322440    3.838541
     73          1           0       -2.152727   -1.781461   -0.467898
     74          1           0       -2.201727    0.004815   -0.575145
     75          1           0       -0.402570    0.156855    0.809497
     76          1           0       -0.234538   -1.664099    1.182132
     77          1           0       -4.452795    6.203618    0.917139
     78          1           0       -5.790974    6.682510    2.051013
     79          1           0       -4.753638    5.127177    2.412615
     80          1           0       -7.651074    7.242670    1.006327
     81          1           0       -9.633229    6.201124   -1.046777
     82          1           0       -9.517697    7.834539   -0.279774
     83          1           0      -12.294317    3.582357   -0.263048
     84          1           0      -11.792478    3.958836   -1.791745
     85          1           0      -13.217386    2.876303   -1.428043
     86          1           0      -12.660995   -1.078595   -0.879703
     87          1           0      -13.318675    0.384504   -1.423915
     88          1           0      -12.286451    0.314451   -3.700140
     89          1           0      -11.748212   -1.444812   -3.137952
     90          1           0      -13.701753   -1.178344   -3.225067
     91          1           0       -9.909841   -4.760465   -0.488796
     92          1           0       -9.293027   -4.563336   -2.150587
     93          1           0       -8.351396   -5.364590   -1.038378
     94          1           0       -3.854454   -3.694446   -0.466445
     95          1           0       -1.859622   -6.247019    2.459992
     96          1           0       -2.212719   -4.857335    3.464738
     97          1           0       -3.543273   -6.263994    3.194025
     98          1           0        2.594422   -2.210900   -1.440036
     99          1           0        2.467263   -0.681002   -2.309954
    100          1           0        4.181491   -1.309535    0.297639
    101          1           0        5.162649    1.856530   -2.198990
    102          1           0        5.729510    0.309305   -3.006375
    103          1           0        3.949009    0.684203   -3.131712
    104          1           0        6.534408    1.153106   -0.155202
    105          1           0        6.098638   -0.488409    0.694931
    106          1           0        7.261981   -1.681872   -1.364278
    107          1           0        7.707655   -0.066464   -2.190166
    108          1           0        8.692091    0.878307    0.028137
    109          1           0        8.426134   -0.936644    0.554052
    110          1           0       10.321273   -0.630854   -1.939607
    111          1           0        9.414185   -2.669199   -1.468231
    112          1           0       11.164297   -2.605931   -1.201209
    113          1           0       10.013881   -2.805796    0.189886
    114          1           0       11.151739    0.631240    0.351730
    115          1           0       11.273231   -1.064438    1.030055
    116          1           0       12.783976   -1.557767   -0.784479
    117          1           0       12.642962    0.035278   -1.449992
    118          1           0       13.725240    0.852853    0.473486
    119          1           0       13.965884   -0.830005    1.273184
    120          1           0       15.349564    0.554087   -1.410466
    121          1           0       14.794683   -1.953877   -1.395641
    122          1           0       16.807098   -1.863709   -1.024724
    123          1           0       15.432598   -2.294038    0.155361
    124          1           0       15.935647    1.628006    0.670706
    125          1           0       16.315813   -0.078139    1.385849
    126          1           0       18.124847   -0.200441   -0.362492
    127          1           0       17.816162    1.112224   -1.231678
    128          1           0       18.171728    2.668589    0.680211
    129          1           0       18.541931    1.237856    1.726261
    130          1           0       20.501485    0.769327   -0.119851
    131          1           0       19.504975    3.464258   -1.077757
    132          1           0       21.044506    2.766205   -1.464706
    133          1           0       19.483008    1.702217   -1.791692
    134          1           0       20.779602    2.223301    2.240439
    135          1           0       21.989983    2.545930    0.726808
    136          1           0       20.470000    3.583177    1.509981
    137          1           0       -7.133188    1.753953    0.393959
    138          1           0       -7.661017   -0.183345   -0.067865
 ---------------------------------------------------------------------

 SCF Done:  E(RB3LYP) =  -2733.01148599     A.U. after   17 cycles

 Excitation energies and oscillator strengths:

 Excited State   1:      Singlet-A      1.9864 eV  624.17 nm  f=0.1925  <S**2>=0.000
     235 -> 238       -0.30262
     236 -> 237        0.63880
 This state for optimization and/or second-order correction.
 Total Energy, E(TD-HF/TD-DFT) =  -2732.93848795
 Copying the excited state density for this state as the 1-particle RhoCI density.

 The electronic state is 1-A.
 Alpha  occ. eigenvalues --  -19.19725 -19.19157 -19.12728 -19.11877 -19.11758
 Alpha  occ. eigenvalues --  -14.36944 -14.36723 -14.32782 -14.30521 -10.31743
 Alpha  occ. eigenvalues --  -10.30996 -10.27942 -10.26503 -10.26126 -10.23629
 Alpha  occ. eigenvalues --  -10.23308 -10.23173 -10.23148 -10.22867 -10.22678
 Alpha  occ. eigenvalues --  -10.22286 -10.21756 -10.21659 -10.21491 -10.21249
 Alpha  occ. eigenvalues --  -10.21178 -10.21138 -10.21086 -10.20667 -10.20664
 Alpha  occ. eigenvalues --  -10.20659 -10.20590 -10.20401 -10.20339 -10.20217
 Alpha  occ. eigenvalues --  -10.20165 -10.20025 -10.20008 -10.19987 -10.19711
 Alpha  occ. eigenvalues --  -10.19450 -10.19429 -10.19399 -10.19305 -10.19260
 Alpha  occ. eigenvalues --  -10.19014 -10.18911 -10.18772 -10.18727 -10.18690
 Alpha  occ. eigenvalues --  -10.18660 -10.18553 -10.18547 -10.18509 -10.18479
 Alpha  occ. eigenvalues --  -10.18471 -10.18315 -10.18235 -10.18171 -10.17996
 Alpha  occ. eigenvalues --  -10.17624 -10.17603 -10.17229 -10.17075  -1.13103
 Alpha  occ. eigenvalues --   -1.09452  -1.04651  -1.01896  -0.98461  -0.98321
 Alpha  occ. eigenvalues --   -0.97020  -0.93888  -0.93388  -0.83418  -0.83360
 Alpha  occ. eigenvalues --   -0.82304  -0.81928  -0.81551  -0.81038  -0.80445
 Alpha  occ. eigenvalues --   -0.80225  -0.79814  -0.79556  -0.78721  -0.78337
 Alpha  occ. eigenvalues --   -0.77563  -0.76665  -0.75863  -0.75464  -0.74785
 Alpha  occ. eigenvalues --   -0.74295  -0.73621  -0.72742  -0.71998  -0.70626
 Alpha  occ. eigenvalues --   -0.69819  -0.68945  -0.68567  -0.68157  -0.67609
 Alpha  occ. eigenvalues --   -0.67439  -0.67213  -0.66339  -0.65774  -0.65205
 Alpha  occ. eigenvalues --   -0.63840  -0.62766  -0.62109  -0.61450  -0.60956
 Alpha  occ. eigenvalues --   -0.60724  -0.58700  -0.58020  -0.57701  -0.57222
 Alpha  occ. eigenvalues --   -0.57000  -0.56650  -0.55830  -0.55295  -0.54827
 Alpha  occ. eigenvalues --   -0.54499  -0.53917  -0.53448  -0.53358  -0.53024
 Alpha  occ. eigenvalues --   -0.52482  -0.52126  -0.51390  -0.51156  -0.50112
 Alpha  occ. eigenvalues --   -0.49772  -0.49489  -0.49034  -0.48871  -0.48640
 Alpha  occ. eigenvalues --   -0.48394  -0.47756  -0.47604  -0.47448  -0.47223
 Alpha  occ. eigenvalues --   -0.46887  -0.46769  -0.46693  -0.46273  -0.45947
 Alpha  occ. eigenvalues --   -0.45740  -0.45444  -0.45111  -0.44986  -0.44707
 Alpha  occ. eigenvalues --   -0.44508  -0.44432  -0.44305  -0.44142  -0.43587
 Alpha  occ. eigenvalues --   -0.43477  -0.43277  -0.43150  -0.43013  -0.42773
 Alpha  occ. eigenvalues --   -0.42279  -0.42196  -0.42071  -0.41835  -0.41676
 Alpha  occ. eigenvalues --   -0.41333  -0.41241  -0.41087  -0.41009  -0.40780
 Alpha  occ. eigenvalues --   -0.40043  -0.39811  -0.39701  -0.39554  -0.39526
 Alpha  occ. eigenvalues --   -0.39199  -0.39033  -0.38836  -0.38720  -0.38699
 Alpha  occ. eigenvalues --   -0.38630  -0.38278  -0.38171  -0.37867  -0.37728
 Alpha  occ. eigenvalues --   -0.37493  -0.37369  -0.37225  -0.37121  -0.36859
 Alpha  occ. eigenvalues --   -0.36770  -0.36580  -0.36483  -0.36411  -0.36131
 Alpha  occ. eigenvalues --   -0.35800  -0.35545  -0.35509  -0.35208  -0.34942
 Alpha  occ. eigenvalues --   -0.34905  -0.34502  -0.34377  -0.33660  -0.33540
 Alpha  occ. eigenvalues --   -0.33491  -0.33387  -0.32934  -0.32798  -0.31970
 Alpha  occ. eigenvalues --   -0.31853  -0.31531  -0.31386  -0.31131  -0.30984
 Alpha  occ. eigenvalues --   -0.30831  -0.30523  -0.30256  -0.30100  -0.29896
 Alpha  occ. eigenvalues --   -0.29601  -0.28732  -0.28112  -0.27952  -0.27224
 Alpha  occ. eigenvalues --   -0.26864  -0.26747  -0.26541  -0.26336  -0.25916
 Alpha  occ. eigenvalues --   -0.24862  -0.24677  -0.23497  -0.23127  -0.19463
 Alpha  occ. eigenvalues --   -0.18378
 Alpha virt. eigenvalues --   -0.10074  -0.07351  -0.04134  -0.01180  -0.01106
 Alpha virt. eigenvalues --   -0.00198   0.01531   0.01606   0.02133   0.02479
 Alpha virt. eigenvalues --    0.03672   0.03953   0.04229   0.04678   0.04708

 Mulliken charges:
               1
     1  C   -0.003964
     2  C   -0.105032
     3  C   -0.085955
     4  C   -0.163782
     5  N   -0.186423
     6  C   -0.033813
     7  C   -0.036470
     8  C    0.026853
     9  C   -0.005895
    10  C    0.142569
    11  C    0.050616
    12  C    0.101313
    13  C    0.100252
    14  O   -0.231822
    15  O   -0.230659
    16  N   -0.093172
    17  C    0.112608
    18  C   -0.097517
    19  C    0.036274
    20  C    0.089090
    21  C    0.004778
    22  C   -0.012124
    23  C   -0.087979
    24  N   -0.229945
    25  C    0.056809
    26  C   -0.130522
    27  C   -0.158156
    28  C    0.064079
    29  C    0.172901
    30  C    0.156902
    31  C   -0.030450
    32  N   -0.052783
    33  C    0.069508
    34  C   -0.196411
    35  C   -0.015543
    36  C    0.106668
    37  C    0.218243
    38  C    0.050512
    39  O   -0.142688
    40  C   -0.114148
    41  C    0.252091
    42  O   -0.277114
    43  O   -0.284742
    44  C    0.152354
    45  C    0.186178
    46  C   -0.022112
    47  C   -0.140118
    48  C    0.043246
    49  C   -0.028182
    50  C   -0.063139
    51  C    0.067597
    52  C   -0.103265
    53  C    0.052992
    54  C    0.009061
    55  C    0.149184
    56  C    0.060612
    57  C   -0.180075
    58  C    0.027537
    59  C    0.064193
    60  C    0.021878
    61  C   -0.004409
    62  C   -0.141736
    63  C    0.065554
    64  C    0.003663
    65  H    0.024101
    66  H   -0.031045
    67  H    0.046703
    68  H    0.031597
    69  H   -0.078289
    70  H   -0.036716
    71  H    0.002100
    72  H    0.028856
    73  H    0.004143
    74  H    0.009112
    75  H   -0.011228
    76  H    0.031289
    77  H    0.039327
    78  H    0.033058
    79  H    0.029292
    80  H    0.005782
    81  H    0.011834
    82  H    0.026946
    83  H   -0.024947
    84  H    0.016047
    85  H    0.004593
    86  H    0.015561
    87  H   -0.099914
    88  H    0.039836
    89  H    0.011594
    90  H    0.050644
    91  H    0.028793
    92  H    0.015904
    93  H   -0.027694
    94  H    0.085770
    95  H    0.040486
    96  H    0.043253
    97  H    0.076158
    98  H    0.029564
    99  H    0.048052
   100  H   -0.033189
   101  H    0.035194
   102  H    0.020019
   103  H    0.035010
   104  H    0.020278
   105  H    0.018769
   106  H    0.031196
   107  H    0.001781
   108  H    0.024660
   109  H   -0.008369
   110  H   -0.002902
   111  H   -0.012275
   112  H    0.009732
   113  H    0.005759
   114  H   -0.031800
   115  H   -0.014990
   116  H   -0.034296
   117  H   -0.022495
   118  H   -0.024158
   119  H    0.018797
   120  H    0.018761
   121  H    0.014372
   122  H    0.050376
   123  H   -0.002753
   124  H   -0.004446
   125  H   -0.000190
   126  H   -0.032337
   127  H   -0.019214
   128  H   -0.001675
   129  H   -0.011204
   130  H   -0.002480
   131  H   -0.006105
   132  H   -0.004872
   133  H    0.029131
   134  H   -0.001971
   135  H    0.037291
   136  H    0.007826
   137  H    0.166150
   138  H    0.180082
 Sum of Mulliken charges =  -0.00000

 Dipole moment (field-independent basis, Debye):
    X=              3.6134    Y=              1.6602    Z=              0.8559  Tot=              4.0676
 Quadrupole moment (field-independent basis, Debye-Ang):
   XX=           -364.3180   YY=           -377.5649   ZZ=           -401.3643
   XY=            -21.3235   XZ=              7.4572   YZ=              0.6015

 Normal termination of Gaussian 16 at Wed Aug 28 07:48:04 2019.
