 Gaussian 16, Revision A.03,
 Gaussian 16:  ES64L-G16RevA.03 25-Dec-2016

 --------------------------
 # td=(NStates=1) B3LYP/SVP
 --------------------------

 --
 TD
 --
 Symbolic Z-matrix:
 Charge =  0 Multiplicity = 1

                         Standard orientation:
 ---------------------------------------------------------------------
 Center     Atomic      Atomic             Coordinates (Angstroms)
 Number     Number       Type             X           Y           Z
 ---------------------------------------------------------------------
      1          6           0       -5.171252   -1.920923    0.409721
      2          6           0       -4.870733    2.808131    1.430928
      3          6           0       -9.393802    3.267250   -0.225200
      4          6           0       -9.912034   -1.489932   -0.845140
      5          7           0       -5.209508    0.434311    0.759099
      6          6           0       -4.493276   -0.757558    0.654511
      7          6           0       -3.080264   -0.512751    1.111865
      8          6           0       -3.118450    0.777213    1.731457
      9          6           0       -4.501686    1.415055    1.217275
     10          6           0       -2.970812    0.864532    3.325719
     11          6           0       -2.083324   -0.625360   -0.031213
     12          6           0       -0.617882   -0.508725    0.376120
     13          6           0        0.338969   -0.760906   -0.788116
     14          8           0        0.016626   -1.082584   -1.914889
     15          8           0        1.650862   -0.557715   -0.425077
     16          7           0       -7.126375    2.764422    0.550622
     17          6           0       -6.041802    3.291617    1.127316
     18          6           0       -6.342683    4.748890    1.000981
     19          6           0       -7.576850    4.969051    0.496899
     20          6           0       -8.214261    3.660775    0.213865
     21          6           0       -5.326350    5.792256    1.581664
     22          6           0       -8.303999    6.239846    0.180353
     23          6           0       -9.273202    6.564481   -0.649605
     24          7           0       -9.308942    0.801239   -0.295975
     25          6           0       -9.908442    1.977258   -0.409473
     26          6           0      -11.440575    1.752104   -0.869649
     27          6           0      -11.413362    0.421900   -0.980493
     28          6           0      -10.224835   -0.121698   -0.723063
     29          6           0      -12.507024    2.723299   -1.140560
     30          6           0      -12.678279   -0.305578   -1.449132
     31          6           0      -12.732851   -0.721366   -2.889775
     32          7           0       -7.521425   -1.279533   -0.301003
     33          6           0       -8.611672   -2.088850   -0.523024
     34          6           0       -8.181079   -3.473660   -0.552128
     35          6           0       -6.766654   -3.466786   -0.202606
     36          6           0       -6.509614   -2.079647   -0.028993
     37          6           0       -9.028993   -4.671432   -0.995836
     38          6           0       -5.666226   -4.370117    0.090943
     39          8           0       -5.630216   -5.476981    0.148001
     40          6           0       -4.490390   -3.268039    0.389900
     41          6           0       -3.814535   -3.772047    1.826069
     42          8           0       -4.188421   -3.359005    2.859958
     43          8           0       -2.868648   -4.734666    1.592827
     44          6           0       -2.140886   -5.194464    2.692988
     45          6           0        2.695005   -0.753269   -1.455824
     46          6           0        4.036337   -0.614061   -0.700890
     47          6           0        5.069508    0.091208   -1.209968
     48          6           0        5.080924    0.984258   -2.463345
     49          6           0        6.351497    0.138729   -0.437760
     50          6           0        7.587027   -0.499982   -1.027650
     51          6           0        8.829844   -0.315788   -0.076713
     52          6           0       10.119996   -0.803677   -0.827288
     53          6           0       10.058020   -2.388148   -1.022446
     54          6           0       11.414540   -0.368207   -0.019141
     55          6           0       12.797774   -0.556065   -0.552864
     56          6           0       13.859952   -0.069726    0.271604
     57          6           0       15.249763   -0.192506   -0.293971
     58          6           0       15.580772   -1.714751   -0.580445
     59          6           0       16.375926    0.578944    0.596281
     60          6           0       17.769405    0.812021   -0.124956
     61          6           0       18.669786    1.552814    0.721431
     62          6           0       20.110045    1.610619    0.273477
     63          6           0       20.232134    2.269940   -1.092829
     64          6           0       21.052057    2.341486    1.161909
     65          1           0       -3.997375    3.485494    1.774857
     66          1           0      -10.031248    4.210539   -0.585607
     67          1           0      -10.557635   -2.249798   -1.099552
     68          1           0       -2.728039   -1.289534    1.759886
     69          1           0       -2.388253    1.470231    1.258716
     70          1           0       -2.060543    0.365797    3.681389
     71          1           0       -2.874135    1.761113    3.792440
     72          1           0       -3.853942    0.306626    3.785589
     73          1           0       -2.064622   -1.618767   -0.760555
     74          1           0       -2.374074    0.223502   -0.665011
     75          1           0       -0.354320    0.537170    0.601798
     76          1           0       -0.448104   -1.071459    1.210651
     77          1           0       -4.349465    5.673468    0.909265
     78          1           0       -5.740642    6.740101    1.447998
     79          1           0       -5.109863    5.513663    2.639999
     80          1           0       -7.830656    7.009599    0.969861
     81          1           0       -9.798043    5.981933   -1.437382
     82          1           0       -9.921058    7.591172   -0.601610
     83          1           0      -12.729106    3.302755   -0.263940
     84          1           0      -12.207259    3.355859   -1.834437
     85          1           0      -13.350437    2.061673   -1.625690
     86          1           0      -12.856838   -1.366323   -0.834947
     87          1           0      -13.762222    0.440699   -1.172707
     88          1           0      -12.701373    0.146800   -3.693053
     89          1           0      -11.845037   -1.272893   -3.099278
     90          1           0      -13.544674   -1.530354   -3.145479
     91          1           0      -10.118592   -4.512635   -0.583219
     92          1           0       -8.942887   -4.593948   -2.036817
     93          1           0       -8.390712   -5.580157   -0.525484
     94          1           0       -3.608089   -3.668912   -0.378517
     95          1           0       -1.395444   -5.875025    2.275533
     96          1           0       -1.681963   -4.626553    3.227733
     97          1           0       -2.885148   -5.589020    3.313556
     98          1           0        2.655746   -1.721978   -1.767170
     99          1           0        2.342207   -0.202936   -2.355559
    100          1           0        3.830702   -0.954958    0.182518
    101          1           0        5.144576    2.188827   -2.435467
    102          1           0        5.661869    0.482718   -2.991483
    103          1           0        4.032994    1.028570   -2.798106
    104          1           0        6.615926    1.112840   -0.240530
    105          1           0        6.318736   -0.334610    0.535196
    106          1           0        7.397867   -1.666564   -1.372679
    107          1           0        7.994206   -0.097017   -1.918014
    108          1           0        8.997877    0.721979    0.024021
    109          1           0        8.693450   -0.743826    0.970216
    110          1           0       10.135852   -0.189937   -1.765276
    111          1           0        9.084670   -2.683756   -1.460272
    112          1           0       10.861424   -2.614443   -1.717782
    113          1           0       10.266714   -2.754048   -0.000486
    114          1           0       11.241296    0.742583    0.120375
    115          1           0       11.349223   -0.935324    0.957876
    116          1           0       12.982643   -1.714089   -0.573199
    117          1           0       12.918779   -0.358128   -1.617041
    118          1           0       13.606558    1.017607    0.333386
    119          1           0       13.882964   -0.235566    1.277286
    120          1           0       15.220041    0.286378   -1.236985
    121          1           0       15.057533   -2.306734   -1.256059
    122          1           0       16.790410   -1.658956   -0.778635
    123          1           0       15.732555   -2.302319    0.392412
    124          1           0       15.847140    1.535822    0.854808
    125          1           0       16.572067    0.185520    1.561512
    126          1           0       17.816322   -0.286559   -0.402197
    127          1           0       17.468095    1.273709   -0.887072
    128          1           0       18.166664    2.678844    0.818892
    129          1           0       18.457659    1.098936    1.696569
    130          1           0       20.419182    0.537174    0.197193
    131          1           0       19.860087    3.269352   -0.968863
    132          1           0       21.237746    2.190677   -1.330443
    133          1           0       19.768687    1.804682   -2.065992
    134          1           0       21.104953    1.890257    2.310465
    135          1           0       22.046331    2.474691    0.642565
    136          1           0       20.778760    3.313085    1.106473
    137          1           0       -7.204708    1.897034    0.317486
    138          1           0       -7.559084   -0.263774    0.099242
 ---------------------------------------------------------------------

 SCF Done:  E(RB3LYP) =  -2732.94446428     A.U. after   16 cycles

 Excitation energies and oscillator strengths:

 Excited State   1:      Singlet-A      2.2350 eV  554.74 nm  f=0.1658  <S**2>=0.000
     235 -> 238        0.29396
     236 -> 237        0.63442
 This state for optimization and/or second-order correction.
 Total Energy, E(TD-HF/TD-DFT) =  -2732.86232978
 Copying the excited state density for this state as the 1-particle RhoCI density.

 The electronic state is 1-A.
 Alpha  occ. eigenvalues --  -19.17469 -19.17008 -19.12951 -19.12695 -19.12557
 Alpha  occ. eigenvalues --  -14.36995 -14.35297 -14.31848 -14.30336 -10.31610
 Alpha  occ. eigenvalues --  -10.31542 -10.27067 -10.23901 -10.23646 -10.23634
 Alpha  occ. eigenvalues --  -10.23384 -10.22853 -10.22736 -10.22288 -10.22229
 Alpha  occ. eigenvalues --  -10.22226 -10.22065 -10.21865 -10.21442 -10.21406
 Alpha  occ. eigenvalues --  -10.21344 -10.21211 -10.21118 -10.21065 -10.20626
 Alpha  occ. eigenvalues --  -10.20521 -10.20503 -10.20446 -10.20240 -10.20050
 Alpha  occ. eigenvalues --  -10.19891 -10.19886 -10.19862 -10.19750 -10.19626
 Alpha  occ. eigenvalues --  -10.19256 -10.19125 -10.19112 -10.19071 -10.18866
 Alpha  occ. eigenvalues --  -10.18809 -10.18800 -10.18706 -10.18608 -10.18580
 Alpha  occ. eigenvalues --  -10.18524 -10.18510 -10.18504 -10.18272 -10.18156
 Alpha  occ. eigenvalues --  -10.18071 -10.18037 -10.18007 -10.17989 -10.17619
 Alpha  occ. eigenvalues --  -10.17480 -10.16955 -10.16453 -10.16230  -1.09755
 Alpha  occ. eigenvalues --   -1.09023  -1.07800  -1.02487  -0.99711  -0.98780
 Alpha  occ. eigenvalues --   -0.98188  -0.94902  -0.94546  -0.83927  -0.82868
 Alpha  occ. eigenvalues --   -0.82659  -0.82461  -0.81976  -0.81858  -0.81565
 Alpha  occ. eigenvalues --   -0.80007  -0.79681  -0.79290  -0.78449  -0.77776
 Alpha  occ. eigenvalues --   -0.77103  -0.76173  -0.75546  -0.75364  -0.74773
 Alpha  occ. eigenvalues --   -0.74162  -0.73712  -0.73147  -0.72203  -0.70973
 Alpha  occ. eigenvalues --   -0.70454  -0.70330  -0.68555  -0.68293  -0.67679
 Alpha  occ. eigenvalues --   -0.67176  -0.66975  -0.66732  -0.65813  -0.65469
 Alpha  occ. eigenvalues --   -0.64326  -0.63137  -0.62365  -0.61760  -0.61358
 Alpha  occ. eigenvalues --   -0.59632  -0.59450  -0.58785  -0.58366  -0.57878
 Alpha  occ. eigenvalues --   -0.57461  -0.56964  -0.56884  -0.56517  -0.56120
 Alpha  occ. eigenvalues --   -0.55525  -0.55025  -0.54650  -0.54067  -0.53619
 Alpha  occ. eigenvalues --   -0.53138  -0.52255  -0.51411  -0.51039  -0.49959
 Alpha  occ. eigenvalues --   -0.49773  -0.49651  -0.49210  -0.48893  -0.48854
 Alpha  occ. eigenvalues --   -0.48626  -0.47962  -0.47616  -0.47418  -0.47210
 Alpha  occ. eigenvalues --   -0.47185  -0.46740  -0.46345  -0.46202  -0.46019
 Alpha  occ. eigenvalues --   -0.45650  -0.45560  -0.45521  -0.44727  -0.44688
 Alpha  occ. eigenvalues --   -0.44420  -0.44281  -0.44099  -0.43951  -0.43855
 Alpha  occ. eigenvalues --   -0.43847  -0.43749  -0.43375  -0.43166  -0.43056
 Alpha  occ. eigenvalues --   -0.42930  -0.42799  -0.42287  -0.42177  -0.41997
 Alpha  occ. eigenvalues --   -0.41605  -0.41527  -0.41418  -0.40952  -0.40912
 Alpha  occ. eigenvalues --   -0.40649  -0.40383  -0.40306  -0.39933  -0.39847
 Alpha  occ. eigenvalues --   -0.39574  -0.39421  -0.39257  -0.39223  -0.38895
 Alpha  occ. eigenvalues --   -0.38676  -0.38546  -0.38436  -0.38102  -0.37816
 Alpha  occ. eigenvalues --   -0.37637  -0.37357  -0.37058  -0.36863  -0.36623
 Alpha  occ. eigenvalues --   -0.36562  -0.36307  -0.36199  -0.35952  -0.35896
 Alpha  occ. eigenvalues --   -0.35823  -0.35417  -0.35085  -0.34916  -0.34819
 Alpha  occ. eigenvalues --   -0.34753  -0.34352  -0.33952  -0.33254  -0.33115
 Alpha  occ. eigenvalues --   -0.33001  -0.32756  -0.32614  -0.32554  -0.32360
 Alpha  occ. eigenvalues --   -0.32308  -0.32081  -0.31918  -0.31265  -0.31221
 Alpha  occ. eigenvalues --   -0.31047  -0.30666  -0.30517  -0.30483  -0.30384
 Alpha  occ. eigenvalues --   -0.30173  -0.28880  -0.28786  -0.28419  -0.27907
 Alpha  occ. eigenvalues --   -0.27230  -0.26791  -0.26465  -0.25754  -0.25657
 Alpha  occ. eigenvalues --   -0.24953  -0.24792  -0.24262  -0.23357  -0.20392
 Alpha  occ. eigenvalues --   -0.18780
 Alpha virt. eigenvalues --   -0.09389  -0.07508  -0.03750  -0.01484  -0.00566
 Alpha virt. eigenvalues --    0.00400   0.00514   0.01529   0.02396   0.03361
 Alpha virt. eigenvalues --    0.03805   0.04379   0.04585   0.04920   0.04929

 Mulliken charges:
               1
     1  C    0.065157
     2  C   -0.117409
     3  C   -0.109064
     4  C   -0.039215
     5  N   -0.160800
     6  C   -0.059171
     7  C    0.055805
     8  C   -0.035960
     9  C   -0.072007
    10  C    0.092889
    11  C   -0.046870
    12  C    0.107179
    13  C    0.175191
    14  O   -0.237101
    15  O   -0.363692
    16  N   -0.026656
    17  C    0.195610
    18  C   -0.195835
    19  C    0.033940
    20  C    0.071471
    21  C    0.101122
    22  C    0.010386
    23  C   -0.111553
    24  N   -0.192946
    25  C    0.037572
    26  C   -0.203767
    27  C   -0.015743
    28  C    0.127645
    29  C    0.203245
    30  C   -0.079663
    31  C    0.016570
    32  N   -0.003778
    33  C    0.008053
    34  C   -0.169029
    35  C   -0.087453
    36  C    0.083944
    37  C    0.059742
    38  C    0.063943
    39  O   -0.047358
    40  C   -0.221765
    41  C    0.183064
    42  O   -0.178711
    43  O   -0.316005
    44  C    0.330606
    45  C    0.270832
    46  C   -0.011656
    47  C   -0.108320
    48  C    0.140735
    49  C    0.174866
    50  C   -0.040173
    51  C    0.021012
    52  C   -0.123329
    53  C    0.058585
    54  C    0.002535
    55  C    0.064768
    56  C    0.088942
    57  C   -0.028998
    58  C   -0.005318
    59  C   -0.051587
    60  C    0.140995
    61  C    0.038215
    62  C   -0.060432
    63  C    0.016132
    64  C    0.079933
    65  H    0.012083
    66  H   -0.001899
    67  H   -0.070652
    68  H   -0.018710
    69  H   -0.015479
    70  H    0.001953
    71  H   -0.015975
    72  H    0.036362
    73  H    0.060874
    74  H   -0.005923
    75  H    0.022618
    76  H   -0.001536
    77  H    0.046365
    78  H   -0.000528
    79  H    0.047151
    80  H    0.028814
    81  H    0.042595
    82  H    0.050286
    83  H    0.017016
    84  H   -0.028353
    85  H    0.026615
    86  H    0.019155
    87  H    0.030319
    88  H    0.021862
    89  H   -0.009351
    90  H    0.023523
    91  H    0.051816
    92  H    0.033587
    93  H    0.072258
    94  H    0.078442
    95  H    0.024770
    96  H   -0.070650
    97  H   -0.000280
    98  H   -0.010175
    99  H    0.027140
   100  H   -0.063709
   101  H    0.048875
   102  H   -0.030746
   103  H   -0.004881
   104  H   -0.036454
   105  H   -0.020478
   106  H    0.016541
   107  H   -0.023047
   108  H   -0.022907
   109  H    0.004956
   110  H   -0.008028
   111  H    0.014252
   112  H    0.010790
   113  H    0.012885
   114  H   -0.007815
   115  H    0.000408
   116  H   -0.014589
   117  H   -0.020001
   118  H   -0.037882
   119  H   -0.046159
   120  H   -0.025606
   121  H    0.021852
   122  H    0.001235
   123  H    0.002700
   124  H   -0.017231
   125  H   -0.018297
   126  H   -0.000253
   127  H   -0.078120
   128  H   -0.005321
   129  H   -0.018601
   130  H   -0.009132
   131  H    0.003310
   132  H   -0.011540
   133  H    0.020675
   134  H    0.035553
   135  H   -0.004218
   136  H   -0.041447
   137  H    0.039510
   138  H    0.207512
 Sum of Mulliken charges =  -0.00000

 Dipole moment (field-independent basis, Debye):
    X=              3.1601    Y=              4.7071    Z=              0.3646  Tot=              5.6812
 Quadrupole moment (field-independent basis, Debye-Ang):
   XX=           -368.6788   YY=           -381.6175   ZZ=           -393.7040
   XY=            -23.1453   XZ=              7.8585   YZ=             -0.8944

 Normal termination of Gaussian 16 at Thu Aug 22 05:55:20 2019.
