 Gaussian 16, Revision A.03,
 Gaussian 16:  ES64L-G16RevA.03 25-Dec-2016

 --------------------------
 # td=(NStates=1) B3LYP/SVP
 --------------------------

 --
 TD
 --
 Symbolic Z-matrix:
 Charge =  0 Multiplicity = 1

                         Standard orientation:
 ---------------------------------------------------------------------
 Center     Atomic      Atomic             Coordinates (Angstroms)
 Number     Number       Type             X           Y           Z
 ---------------------------------------------------------------------
      1          6           0       -5.096855   -1.945881    0.541680
      2          6           0       -4.604723    2.840174    1.505991
      3          6           0       -9.211501    3.385783   -0.167753
      4          6           0       -9.817868   -1.350984   -1.108992
      5          7           0       -5.158894    0.463821    0.932095
      6          6           0       -4.542862   -0.773988    0.845515
      7          6           0       -3.115853   -0.594927    1.295115
      8          6           0       -2.958856    0.785755    1.958060
      9          6           0       -4.364245    1.397199    1.408633
     10          6           0       -3.097006    0.642931    3.496007
     11          6           0       -2.082824   -0.720532    0.053070
     12          6           0       -0.611737   -0.846853    0.630678
     13          6           0        0.319135   -1.193668   -0.516874
     14          8           0        0.057464   -1.643642   -1.661832
     15          8           0        1.584041   -0.957100   -0.182489
     16          7           0       -6.820215    2.820976    0.566597
     17          6           0       -5.843993    3.416339    1.056094
     18          6           0       -6.032992    4.789973    1.034805
     19          6           0       -7.388294    5.035477    0.607528
     20          6           0       -7.864413    3.708268    0.244147
     21          6           0       -5.129719    5.888287    1.526334
     22          6           0       -8.023271    6.265842    0.441691
     23          6           0       -8.807654    6.598930   -0.634008
     24          7           0       -9.186535    0.996003   -0.530283
     25          6           0       -9.842404    2.161303   -0.462785
     26          6           0      -11.176179    2.032817   -1.015147
     27          6           0      -11.378216    0.700916   -1.198867
     28          6           0      -10.101831   -0.006084   -0.879775
     29          6           0      -12.237633    3.106381   -1.014781
     30          6           0      -12.562202    0.018623   -1.818478
     31          6           0      -12.396114   -0.172424   -3.454040
     32          7           0       -7.502466   -1.233031   -0.212993
     33          6           0       -8.565628   -1.978538   -0.694829
     34          6           0       -8.222931   -3.319445   -0.776860
     35          6           0       -6.838127   -3.363477   -0.236046
     36          6           0       -6.510184   -1.981110    0.079640
     37          6           0       -8.979029   -4.448479   -1.292530
     38          6           0       -5.874300   -4.251448    0.012807
     39          8           0       -5.708601   -5.383815   -0.168194
     40          6           0       -4.659910   -3.294422    0.578283
     41          6           0       -4.061668   -3.883383    1.805538
     42          8           0       -4.253180   -3.509450    2.869530
     43          8           0       -3.402682   -5.028431    1.628872
     44          6           0       -2.947738   -5.666394    2.840276
     45          6           0        2.635018   -1.303416   -1.174288
     46          6           0        3.931425   -0.869703   -0.508170
     47          6           0        4.885663   -0.145460   -1.073201
     48          6           0        4.837175    0.484683   -2.420834
     49          6           0        6.256653    0.110224   -0.365539
     50          6           0        7.486759   -0.483798   -1.103714
     51          6           0        8.728168   -0.343456   -0.160657
     52          6           0       10.137329   -0.646069   -0.942364
     53          6           0       10.030131   -2.232627   -1.047953
     54          6           0       11.218797   -0.304114   -0.070381
     55          6           0       12.623805   -0.538979   -0.638035
     56          6           0       13.727812    0.045075    0.197895
     57          6           0       15.151263   -0.215416   -0.324878
     58          6           0       15.569663   -1.587532   -0.470292
     59          6           0       16.251416    0.610686    0.533277
     60          6           0       17.665415    0.755095   -0.140950
     61          6           0       18.704707    1.533028    0.658266
     62          6           0       20.191497    1.773004    0.180821
     63          6           0       20.185216    2.356665   -1.357037
     64          6           0       20.844665    2.566979    1.178567
     65          1           0       -3.791828    3.516733    1.875823
     66          1           0       -9.941161    4.274928   -0.065307
     67          1           0      -10.418716   -1.999362   -1.575514
     68          1           0       -2.794976   -1.507794    2.102721
     69          1           0       -2.151939    1.337853    1.677864
     70          1           0       -2.225528    0.348877    3.789487
     71          1           0       -3.070375    1.656116    3.989220
     72          1           0       -3.764173   -0.245595    3.896485
     73          1           0       -2.258285   -1.774385   -0.273151
     74          1           0       -2.227269   -0.093122   -0.769623
     75          1           0       -0.257489    0.041855    1.238152
     76          1           0       -0.364462   -1.617545    1.487434
     77          1           0       -4.114814    5.840012    0.864295
     78          1           0       -5.759298    6.934432    1.389464
     79          1           0       -4.741512    5.656638    2.676817
     80          1           0       -7.663925    6.910640    1.207459
     81          1           0       -8.939506    5.782616   -1.511055
     82          1           0       -9.207736    7.609853   -0.758351
     83          1           0      -12.184897    3.510775    0.029012
     84          1           0      -12.036126    4.031981   -1.590969
     85          1           0      -13.196403    2.660717   -1.334107
     86          1           0      -12.599356   -0.989054   -1.485614
     87          1           0      -13.380257    0.537794   -1.395284
     88          1           0      -12.376610    0.837964   -3.739375
     89          1           0      -11.589382   -0.948204   -3.700404
     90          1           0      -13.440035   -0.628571   -3.825830
     91          1           0       -9.855478   -4.537196   -0.654758
     92          1           0       -9.374790   -4.318295   -2.461620
     93          1           0       -8.413972   -5.249923   -1.277763
     94          1           0       -3.746478   -3.383858   -0.276135
     95          1           0       -2.350419   -6.490494    2.427753
     96          1           0       -2.437693   -4.817370    3.144887
     97          1           0       -3.826841   -5.863100    3.627604
     98          1           0        2.507524   -2.398323   -1.412522
     99          1           0        2.213389   -0.771033   -2.204359
    100          1           0        4.046659   -1.254522    0.314685
    101          1           0        5.280807    1.629886   -2.446323
    102          1           0        5.383816   -0.143487   -3.224277
    103          1           0        3.680645    0.580372   -2.509552
    104          1           0        6.620926    1.143000   -0.410618
    105          1           0        6.169578   -0.267071    0.624578
    106          1           0        7.138629   -1.546433   -1.420825
    107          1           0        7.750064   -0.005804   -1.946666
    108          1           0        8.671528    0.761726   -0.038682
    109          1           0        8.710798   -0.905511    0.849470
    110          1           0       10.125490   -0.178202   -1.866111
    111          1           0        9.187754   -2.477163   -1.424688
    112          1           0       10.866890   -2.635316   -1.651924
    113          1           0        9.751124   -2.814474   -0.048560
    114          1           0       11.262616    0.719917    0.086651
    115          1           0       10.922788   -0.678395    0.948240
    116          1           0       12.494018   -1.737513   -0.784474
    117          1           0       12.720066   -0.253238   -1.639899
    118          1           0       13.422482    1.040225    0.525348
    119          1           0       13.764289   -0.527952    1.194081
    120          1           0       15.026609    0.087014   -1.380394
    121          1           0       15.212417   -2.292351   -1.334722
    122          1           0       16.564885   -1.427047   -0.719012
    123          1           0       15.571181   -2.252889    0.401836
    124          1           0       16.035005    1.548292    0.822330
    125          1           0       16.336252    0.143525    1.558862
    126          1           0       18.177749   -0.251723   -0.668326
    127          1           0       17.380706    1.298435   -1.171718
    128          1           0       18.448581    2.403830    0.627575
    129          1           0       18.831129    1.178412    1.604682
    130          1           0       20.539225    0.709834   -0.184129
    131          1           0       19.552529    3.331464   -1.279617
    132          1           0       21.383906    2.830324   -1.780266
    133          1           0       20.167322    1.604364   -2.258232
    134          1           0       20.909159    2.199446    2.238876
    135          1           0       21.750136    2.884825    0.800054
    136          1           0       20.343760    3.592014    1.348997
    137          1           0       -6.803511    1.829097    0.504878
    138          1           0       -7.754480   -0.165337   -0.393827
 ---------------------------------------------------------------------

 SCF Done:  E(RB3LYP) =  -2732.89430617     A.U. after   17 cycles

 Excitation energies and oscillator strengths:

 Excited State   1:      Singlet-A      2.0945 eV  591.96 nm  f=0.1650  <S**2>=0.000
     235 -> 237       -0.34524
     235 -> 238        0.17369
     236 -> 237        0.56161
     236 -> 238        0.16147
 This state for optimization and/or second-order correction.
 Total Energy, E(TD-HF/TD-DFT) =  -2732.81733533
 Copying the excited state density for this state as the 1-particle RhoCI density.

 The electronic state is 1-A.
 Alpha  occ. eigenvalues --  -19.17091 -19.14996 -19.11388 -19.10734 -19.10503
 Alpha  occ. eigenvalues --  -14.37267 -14.37177 -14.32074 -14.30880 -10.31110
 Alpha  occ. eigenvalues --  -10.29024 -10.26027 -10.25518 -10.25119 -10.23684
 Alpha  occ. eigenvalues --  -10.23573 -10.23427 -10.23393 -10.23173 -10.22630
 Alpha  occ. eigenvalues --  -10.22177 -10.22024 -10.22000 -10.21783 -10.21722
 Alpha  occ. eigenvalues --  -10.21672 -10.21412 -10.20998 -10.20958 -10.20892
 Alpha  occ. eigenvalues --  -10.20789 -10.20726 -10.20708 -10.20401 -10.20340
 Alpha  occ. eigenvalues --  -10.20250 -10.20235 -10.20216 -10.20178 -10.19926
 Alpha  occ. eigenvalues --  -10.19878 -10.19729 -10.19702 -10.19549 -10.19485
 Alpha  occ. eigenvalues --  -10.19335 -10.19071 -10.19012 -10.18702 -10.18611
 Alpha  occ. eigenvalues --  -10.18606 -10.18606 -10.18482 -10.18478 -10.18124
 Alpha  occ. eigenvalues --  -10.17902 -10.17888 -10.17866 -10.17646 -10.17606
 Alpha  occ. eigenvalues --  -10.16937 -10.16612 -10.16504 -10.15671  -1.10571
 Alpha  occ. eigenvalues --   -1.08254  -1.04563  -1.01776  -1.00560  -0.99750
 Alpha  occ. eigenvalues --   -0.97401  -0.93992  -0.93783  -0.85003  -0.83468
 Alpha  occ. eigenvalues --   -0.82842  -0.82179  -0.81508  -0.81180  -0.80341
 Alpha  occ. eigenvalues --   -0.80067  -0.79834  -0.79462  -0.78939  -0.77593
 Alpha  occ. eigenvalues --   -0.76697  -0.76197  -0.75182  -0.74963  -0.74673
 Alpha  occ. eigenvalues --   -0.73348  -0.73205  -0.72754  -0.72031  -0.70431
 Alpha  occ. eigenvalues --   -0.69496  -0.68801  -0.68457  -0.68020  -0.67953
 Alpha  occ. eigenvalues --   -0.67826  -0.66859  -0.66549  -0.66065  -0.65358
 Alpha  occ. eigenvalues --   -0.64710  -0.64360  -0.63014  -0.62591  -0.62020
 Alpha  occ. eigenvalues --   -0.61279  -0.59071  -0.58669  -0.57707  -0.57405
 Alpha  occ. eigenvalues --   -0.56988  -0.56796  -0.56028  -0.55393  -0.55308
 Alpha  occ. eigenvalues --   -0.55018  -0.54676  -0.53978  -0.53573  -0.53515
 Alpha  occ. eigenvalues --   -0.52895  -0.52181  -0.51835  -0.50863  -0.50645
 Alpha  occ. eigenvalues --   -0.49771  -0.49184  -0.48780  -0.48651  -0.48315
 Alpha  occ. eigenvalues --   -0.48251  -0.48048  -0.47539  -0.47011  -0.46724
 Alpha  occ. eigenvalues --   -0.46547  -0.46316  -0.46172  -0.45937  -0.45681
 Alpha  occ. eigenvalues --   -0.45358  -0.45312  -0.44941  -0.44893  -0.44807
 Alpha  occ. eigenvalues --   -0.44468  -0.44339  -0.44043  -0.43762  -0.43565
 Alpha  occ. eigenvalues --   -0.43529  -0.43344  -0.43154  -0.43068  -0.42925
 Alpha  occ. eigenvalues --   -0.42665  -0.42568  -0.42283  -0.41831  -0.41749
 Alpha  occ. eigenvalues --   -0.41385  -0.41213  -0.41039  -0.40532  -0.40299
 Alpha  occ. eigenvalues --   -0.40235  -0.40083  -0.39917  -0.39777  -0.39643
 Alpha  occ. eigenvalues --   -0.39453  -0.39296  -0.39170  -0.38757  -0.38660
 Alpha  occ. eigenvalues --   -0.38555  -0.38378  -0.38306  -0.38074  -0.37967
 Alpha  occ. eigenvalues --   -0.37919  -0.37572  -0.37286  -0.37135  -0.36958
 Alpha  occ. eigenvalues --   -0.36683  -0.36534  -0.36190  -0.36058  -0.35815
 Alpha  occ. eigenvalues --   -0.35635  -0.35402  -0.35326  -0.34760  -0.34450
 Alpha  occ. eigenvalues --   -0.34323  -0.34205  -0.34151  -0.33978  -0.33700
 Alpha  occ. eigenvalues --   -0.33484  -0.33316  -0.32964  -0.32368  -0.32283
 Alpha  occ. eigenvalues --   -0.32082  -0.31544  -0.30982  -0.30881  -0.30748
 Alpha  occ. eigenvalues --   -0.30576  -0.30393  -0.29970  -0.29468  -0.29245
 Alpha  occ. eigenvalues --   -0.28784  -0.28172  -0.27839  -0.27316  -0.27266
 Alpha  occ. eigenvalues --   -0.27029  -0.26985  -0.25943  -0.25680  -0.25352
 Alpha  occ. eigenvalues --   -0.25200  -0.23941  -0.23671  -0.22941  -0.20058
 Alpha  occ. eigenvalues --   -0.19330
 Alpha virt. eigenvalues --   -0.11214  -0.07420  -0.04045  -0.02828  -0.00214
 Alpha virt. eigenvalues --   -0.00023   0.00318   0.02457   0.03008   0.03441
 Alpha virt. eigenvalues --    0.03690   0.03812   0.04419   0.04512   0.05026

 Mulliken charges:
               1
     1  C    0.071423
     2  C   -0.078094
     3  C   -0.099133
     4  C   -0.007872
     5  N   -0.159883
     6  C   -0.026738
     7  C   -0.184278
     8  C    0.010725
     9  C   -0.018595
    10  C    0.128911
    11  C    0.106734
    12  C   -0.026619
    13  C    0.193217
    14  O   -0.290564
    15  O   -0.312216
    16  N    0.089634
    17  C    0.027922
    18  C   -0.133630
    19  C    0.021651
    20  C    0.082272
    21  C   -0.030893
    22  C   -0.045095
    23  C   -0.057639
    24  N   -0.263861
    25  C    0.052008
    26  C   -0.141631
    27  C   -0.117014
    28  C    0.132333
    29  C    0.089125
    30  C    0.093561
    31  C   -0.020113
    32  N    0.013928
    33  C   -0.021598
    34  C   -0.103021
    35  C   -0.008746
    36  C    0.035016
    37  C    0.143831
    38  C   -0.026265
    39  O   -0.106472
    40  C   -0.133752
    41  C    0.136743
    42  O   -0.182252
    43  O   -0.307771
    44  C    0.189883
    45  C    0.174683
    46  C    0.074356
    47  C   -0.113589
    48  C   -0.019332
    49  C    0.109933
    50  C    0.013575
    51  C   -0.045401
    52  C   -0.067077
    53  C    0.108480
    54  C    0.121064
    55  C    0.008151
    56  C    0.066310
    57  C   -0.035805
    58  C    0.076530
    59  C    0.079985
    60  C   -0.064710
    61  C    0.180317
    62  C   -0.120249
    63  C   -0.116657
    64  C    0.094643
    65  H   -0.008742
    66  H    0.015787
    67  H   -0.079318
    68  H    0.041412
    69  H   -0.039670
    70  H   -0.059464
    71  H    0.000194
    72  H    0.060920
    73  H    0.020042
    74  H    0.008056
    75  H    0.027933
    76  H    0.049974
    77  H    0.053227
    78  H    0.050576
    79  H    0.059159
    80  H   -0.002642
    81  H    0.072905
    82  H    0.035021
    83  H    0.030030
    84  H    0.012239
    85  H    0.019893
    86  H   -0.020488
    87  H   -0.003487
    88  H    0.021527
    89  H    0.048003
    90  H    0.025825
    91  H    0.028339
    92  H    0.040002
    93  H   -0.013971
    94  H    0.081781
    95  H    0.043384
    96  H    0.000369
    97  H    0.054313
    98  H    0.042706
    99  H    0.061478
   100  H   -0.129078
   101  H    0.036861
   102  H    0.058410
   103  H    0.036720
   104  H   -0.006691
   105  H   -0.015260
   106  H    0.017547
   107  H   -0.029505
   108  H   -0.009979
   109  H    0.025043
   110  H   -0.035365
   111  H   -0.082238
   112  H    0.019401
   113  H    0.001056
   114  H   -0.058105
   115  H   -0.011675
   116  H    0.005144
   117  H   -0.032449
   118  H   -0.011701
   119  H   -0.016447
   120  H   -0.019708
   121  H    0.013183
   122  H   -0.041923
   123  H   -0.007354
   124  H   -0.044544
   125  H   -0.008325
   126  H    0.020273
   127  H    0.006805
   128  H   -0.097105
   129  H   -0.023211
   130  H    0.009119
   131  H    0.034571
   132  H    0.000097
   133  H    0.057319
   134  H    0.023783
   135  H   -0.013402
   136  H   -0.001576
   137  H    0.115700
   138  H    0.196914
 Sum of Mulliken charges =  -0.00000

 Dipole moment (field-independent basis, Debye):
    X=              0.7647    Y=              6.0699    Z=              0.5171  Tot=              6.1397
 Quadrupole moment (field-independent basis, Debye-Ang):
   XX=           -335.6623   YY=           -384.1352   ZZ=           -393.8895
   XY=            -21.8293   XZ=             15.5363   YZ=              0.5026

 Normal termination of Gaussian 16 at Thu Aug 29 14:52:09 2019.
