 Gaussian 16, Revision A.03,
 Gaussian 16:  ES64L-G16RevA.03 25-Dec-2016

 --------------------------
 # td=(NStates=1) B3LYP/SVP
 --------------------------

 --
 TD
 --
 Symbolic Z-matrix:
 Charge =  0 Multiplicity = 1

                         Standard orientation:
 ---------------------------------------------------------------------
 Center     Atomic      Atomic             Coordinates (Angstroms)
 Number     Number       Type             X           Y           Z
 ---------------------------------------------------------------------
      1          6           0       -5.227703   -1.944539    0.414058
      2          6           0       -4.543672    2.695997    1.363546
      3          6           0       -9.163044    3.440345   -0.188807
      4          6           0       -9.974909   -1.407056   -0.830105
      5          7           0       -5.079155    0.322511    0.733571
      6          6           0       -4.579079   -0.829114    0.706449
      7          6           0       -3.023998   -0.787361    1.250951
      8          6           0       -2.909200    0.575360    1.747703
      9          6           0       -4.243644    1.276708    1.285498
     10          6           0       -2.879706    0.823456    3.270627
     11          6           0       -2.038585   -1.025402    0.065948
     12          6           0       -0.612887   -0.914177    0.493170
     13          6           0        0.384904   -1.314771   -0.517451
     14          8           0        0.072181   -1.924707   -1.572489
     15          8           0        1.628122   -0.765597   -0.279753
     16          7           0       -6.871940    2.786478    0.441394
     17          6           0       -5.708438    3.349386    0.995760
     18          6           0       -5.984398    4.774893    1.053265
     19          6           0       -7.311116    5.035387    0.522417
     20          6           0       -7.831859    3.727731    0.233794
     21          6           0       -5.011836    5.813941    1.682992
     22          6           0       -7.880940    6.319248    0.432166
     23          6           0       -8.870671    6.655613   -0.600605
     24          7           0       -9.151601    0.958688   -0.401849
     25          6           0       -9.878340    2.243757   -0.436673
     26          6           0      -11.235833    2.077331   -0.909346
     27          6           0      -11.463171    0.712007   -1.012940
     28          6           0      -10.128983    0.069927   -0.854337
     29          6           0      -12.116181    3.278466   -1.111715
     30          6           0      -12.776872    0.062272   -1.404324
     31          6           0      -12.874114   -0.147657   -2.921261
     32          7           0       -7.629182   -1.150897   -0.245950
     33          6           0       -8.689826   -1.922905   -0.570781
     34          6           0       -8.363932   -3.356677   -0.649428
     35          6           0       -6.957550   -3.480442   -0.315440
     36          6           0       -6.550421   -2.076499   -0.024423
     37          6           0       -9.079499   -4.444793   -1.038021
     38          6           0       -5.828945   -4.305642   -0.105798
     39          8           0       -5.845064   -5.561751   -0.032055
     40          6           0       -4.577715   -3.424643    0.428567
     41          6           0       -4.062081   -3.903554    1.630145
     42          8           0       -4.205266   -3.503555    2.771062
     43          8           0       -3.118951   -4.898163    1.488175
     44          6           0       -2.589269   -5.631386    2.591957
     45          6           0        2.597891   -1.079770   -1.198334
     46          6           0        3.880357   -0.778574   -0.638436
     47          6           0        4.896057    0.011396   -1.230562
     48          6           0        4.829275    0.610961   -2.520520
     49          6           0        6.165880    0.298683   -0.349588
     50          6           0        7.576468   -0.147017   -1.044387
     51          6           0        8.732866   -0.059560   -0.165213
     52          6           0       10.042549   -0.576988   -0.781061
     53          6           0        9.981375   -2.022042   -1.195709
     54          6           0       11.398673   -0.215485    0.004775
     55          6           0       12.618604   -0.505896   -0.607118
     56          6           0       13.827663   -0.024935    0.158038
     57          6           0       15.218150   -0.207262   -0.301884
     58          6           0       15.562234   -1.844902   -0.273513
     59          6           0       16.241421    0.599822    0.480145
     60          6           0       17.613265    0.692784   -0.071694
     61          6           0       18.498977    1.724311    0.663593
     62          6           0       19.979704    1.627701    0.197041
     63          6           0       20.235179    1.981604   -1.313088
     64          6           0       20.795774    2.598919    1.197122
     65          1           0       -3.740525    3.212238    1.870580
     66          1           0       -9.871319    4.207344   -0.078628
     67          1           0      -10.892041   -1.965024   -1.202395
     68          1           0       -2.889366   -1.615015    1.898219
     69          1           0       -2.106012    1.034943    1.166696
     70          1           0       -1.881503    0.327767    3.656032
     71          1           0       -3.058932    1.709229    3.694627
     72          1           0       -3.487903    0.270720    3.700427
     73          1           0       -2.055866   -1.938795   -0.545350
     74          1           0       -2.323355   -0.143285   -0.679851
     75          1           0       -0.295418    0.015997    0.815411
     76          1           0       -0.306834   -1.426243    1.476779
     77          1           0       -3.803987    5.368882    1.455111
     78          1           0       -5.124015    6.953092    1.427757
     79          1           0       -5.339902    5.507808    2.752468
     80          1           0       -7.336601    7.113612    0.855979
     81          1           0       -9.325444    5.866854   -1.190317
     82          1           0       -9.072232    7.796321   -0.904787
     83          1           0      -12.344439    3.922954   -0.166285
     84          1           0      -11.713392    4.072591   -1.909830
     85          1           0      -13.143563    2.994495   -1.500913
     86          1           0      -12.737677   -1.094330   -1.060350
     87          1           0      -13.613415    0.708663   -0.925511
     88          1           0      -12.681988    0.743539   -3.442017
     89          1           0      -12.110048   -0.864177   -3.385022
     90          1           0      -14.041150   -0.728349   -3.086849
     91          1           0      -10.204541   -4.492868   -0.550185
     92          1           0       -9.266815   -4.541636   -2.068906
     93          1           0       -8.453355   -5.474037   -0.827772
     94          1           0       -3.825081   -3.745504   -0.164951
     95          1           0       -2.158753   -6.267762    2.025354
     96          1           0       -1.932633   -4.902229    2.978084
     97          1           0       -3.459508   -5.926873    3.372096
     98          1           0        2.439948   -2.214491   -1.529718
     99          1           0        2.320598   -0.537452   -2.045215
    100          1           0        3.973789   -1.330723    0.387360
    101          1           0        5.432614    1.661767   -2.578918
    102          1           0        5.360653   -0.010197   -3.248558
    103          1           0        3.780494    0.607429   -2.909190
    104          1           0        6.403327    1.372740   -0.213740
    105          1           0        6.114425   -0.168298    0.639889
    106          1           0        7.441352   -1.241635   -1.796492
    107          1           0        7.918908    0.496414   -1.946705
    108          1           0        8.872720    1.003940   -0.025639
    109          1           0        8.893693   -0.508182    0.889474
    110          1           0       10.355167    0.017225   -1.807011
    111          1           0        9.033789   -2.430204   -1.617702
    112          1           0       10.900161   -2.320376   -1.669637
    113          1           0        9.845778   -2.602116   -0.290200
    114          1           0       11.102268    0.936090    0.273351
    115          1           0       11.131138   -0.617258    1.055056
    116          1           0       12.771931   -1.573466   -0.849521
    117          1           0       12.579264   -0.111321   -1.523507
    118          1           0       13.582698    0.951153    0.495905
    119          1           0       13.696297   -0.397441    1.197104
    120          1           0       15.269802   -0.007661   -1.367640
    121          1           0       14.880794   -2.312052   -0.765598
    122          1           0       16.598045   -2.178356   -0.780302
    123          1           0       15.716893   -2.269638    0.712031
    124          1           0       15.647933    1.556306    0.548142
    125          1           0       16.310520    0.205768    1.611805
    126          1           0       18.099980   -0.246953    0.211880
    127          1           0       17.506272    0.841331   -1.268986
    128          1           0       18.253725    2.749572    0.617107
    129          1           0       18.562224    1.384900    1.701712
    130          1           0       20.395270    0.519618    0.431739
    131          1           0       19.791137    2.946408   -1.497802
    132          1           0       21.436929    2.027128   -1.263142
    133          1           0       19.963821    1.316805   -2.194610
    134          1           0       20.621639    2.501516    2.190024
    135          1           0       21.922751    2.534700    0.684365
    136          1           0       20.539305    3.719260    1.077364
    137          1           0       -7.032697    1.729515    0.277395
    138          1           0       -7.615867   -0.083695   -0.080242
 ---------------------------------------------------------------------

 SCF Done:  E(RB3LYP) =  -2732.93962122     A.U. after   18 cycles

 Excitation energies and oscillator strengths:

 Excited State   1:      Singlet-A      1.9170 eV  646.77 nm  f=0.1599  <S**2>=0.000
     235 -> 238        0.28305
     236 -> 237        0.63192
 This state for optimization and/or second-order correction.
 Total Energy, E(TD-HF/TD-DFT) =  -2732.86917391
 Copying the excited state density for this state as the 1-particle RhoCI density.

 The electronic state is 1-A.
 Alpha  occ. eigenvalues --  -19.18115 -19.15175 -19.12877 -19.12340 -19.10890
 Alpha  occ. eigenvalues --  -14.37949 -14.37743 -14.32125 -14.31116 -10.32055
 Alpha  occ. eigenvalues --  -10.30277 -10.28657 -10.24873 -10.24727 -10.24579
 Alpha  occ. eigenvalues --  -10.24265 -10.24051 -10.23737 -10.23561 -10.22896
 Alpha  occ. eigenvalues --  -10.22720 -10.22617 -10.22178 -10.22023 -10.21759
 Alpha  occ. eigenvalues --  -10.21633 -10.21597 -10.21489 -10.21447 -10.21362
 Alpha  occ. eigenvalues --  -10.21335 -10.21282 -10.21152 -10.20778 -10.20724
 Alpha  occ. eigenvalues --  -10.20629 -10.20626 -10.20597 -10.20579 -10.20478
 Alpha  occ. eigenvalues --  -10.20425 -10.20345 -10.20203 -10.20176 -10.20165
 Alpha  occ. eigenvalues --  -10.20086 -10.19889 -10.19719 -10.19675 -10.19608
 Alpha  occ. eigenvalues --  -10.19523 -10.19402 -10.19202 -10.19189 -10.19130
 Alpha  occ. eigenvalues --  -10.19069 -10.18840 -10.18637 -10.17661 -10.17249
 Alpha  occ. eigenvalues --  -10.17226 -10.17157 -10.17123 -10.16934  -1.09721
 Alpha  occ. eigenvalues --   -1.07874  -1.00686  -0.99807  -0.98388  -0.97658
 Alpha  occ. eigenvalues --   -0.97388  -0.95831  -0.90864  -0.84959  -0.83208
 Alpha  occ. eigenvalues --   -0.82802  -0.82084  -0.81838  -0.81446  -0.81039
 Alpha  occ. eigenvalues --   -0.80665  -0.79725  -0.79273  -0.79102  -0.78519
 Alpha  occ. eigenvalues --   -0.77622  -0.77281  -0.75900  -0.74824  -0.73805
 Alpha  occ. eigenvalues --   -0.73759  -0.73733  -0.73177  -0.72198  -0.71360
 Alpha  occ. eigenvalues --   -0.70113  -0.69797  -0.68313  -0.68292  -0.67810
 Alpha  occ. eigenvalues --   -0.67497  -0.67068  -0.66489  -0.66259  -0.65638
 Alpha  occ. eigenvalues --   -0.64534  -0.63314  -0.63017  -0.62041  -0.61508
 Alpha  occ. eigenvalues --   -0.60790  -0.59061  -0.58615  -0.58361  -0.57533
 Alpha  occ. eigenvalues --   -0.57214  -0.56481  -0.56153  -0.55483  -0.54894
 Alpha  occ. eigenvalues --   -0.54462  -0.54133  -0.53856  -0.53696  -0.53597
 Alpha  occ. eigenvalues --   -0.52774  -0.52438  -0.51762  -0.51270  -0.50928
 Alpha  occ. eigenvalues --   -0.50379  -0.50079  -0.49665  -0.48705  -0.48049
 Alpha  occ. eigenvalues --   -0.47927  -0.47772  -0.47574  -0.47345  -0.47097
 Alpha  occ. eigenvalues --   -0.46725  -0.46669  -0.46520  -0.46148  -0.45684
 Alpha  occ. eigenvalues --   -0.45365  -0.44951  -0.44888  -0.44820  -0.44781
 Alpha  occ. eigenvalues --   -0.44622  -0.44481  -0.44280  -0.43939  -0.43842
 Alpha  occ. eigenvalues --   -0.43722  -0.43520  -0.43192  -0.42824  -0.42717
 Alpha  occ. eigenvalues --   -0.42546  -0.42332  -0.41952  -0.41828  -0.41610
 Alpha  occ. eigenvalues --   -0.41553  -0.41302  -0.41031  -0.40674  -0.40596
 Alpha  occ. eigenvalues --   -0.40100  -0.39953  -0.39754  -0.39703  -0.39470
 Alpha  occ. eigenvalues --   -0.39187  -0.39163  -0.39004  -0.38986  -0.38419
 Alpha  occ. eigenvalues --   -0.38223  -0.37996  -0.37850  -0.37774  -0.37708
 Alpha  occ. eigenvalues --   -0.37608  -0.37340  -0.37261  -0.37128  -0.37019
 Alpha  occ. eigenvalues --   -0.36633  -0.36507  -0.36273  -0.36240  -0.35971
 Alpha  occ. eigenvalues --   -0.35934  -0.35698  -0.35582  -0.35112  -0.34900
 Alpha  occ. eigenvalues --   -0.34558  -0.34436  -0.34381  -0.34308  -0.33832
 Alpha  occ. eigenvalues --   -0.33586  -0.33062  -0.32859  -0.32744  -0.32128
 Alpha  occ. eigenvalues --   -0.31967  -0.31880  -0.31696  -0.31473  -0.31161
 Alpha  occ. eigenvalues --   -0.30821  -0.30216  -0.30133  -0.29710  -0.29469
 Alpha  occ. eigenvalues --   -0.28605  -0.28562  -0.28410  -0.28341  -0.27844
 Alpha  occ. eigenvalues --   -0.27801  -0.26964  -0.26386  -0.26142  -0.25894
 Alpha  occ. eigenvalues --   -0.25224  -0.23435  -0.22957  -0.22450  -0.20206
 Alpha  occ. eigenvalues --   -0.19017
 Alpha virt. eigenvalues --   -0.10950  -0.08840  -0.05875  -0.03692  -0.01387
 Alpha virt. eigenvalues --   -0.01354  -0.01119  -0.00405   0.01973   0.03133
 Alpha virt. eigenvalues --    0.03264   0.03946   0.03987   0.04561   0.04729

 Mulliken charges:
               1
     1  C    0.112185
     2  C   -0.053512
     3  C   -0.043255
     4  C   -0.109692
     5  N   -0.109967
     6  C   -0.168971
     7  C   -0.039627
     8  C    0.035991
     9  C   -0.097842
    10  C    0.219595
    11  C    0.004948
    12  C    0.091179
    13  C    0.180127
    14  O   -0.273048
    15  O   -0.304041
    16  N   -0.104429
    17  C    0.176560
    18  C   -0.140104
    19  C    0.066176
    20  C    0.105344
    21  C   -0.043242
    22  C   -0.037033
    23  C   -0.087340
    24  N   -0.357613
    25  C    0.035588
    26  C   -0.058131
    27  C   -0.115383
    28  C    0.050840
    29  C   -0.003297
    30  C    0.018326
    31  C   -0.028281
    32  N   -0.096396
    33  C    0.161756
    34  C   -0.056741
    35  C    0.059318
    36  C    0.068466
    37  C   -0.024735
    38  C    0.013657
    39  O   -0.217584
    40  C    0.103272
    41  C    0.152002
    42  O   -0.240161
    43  O   -0.358502
    44  C    0.260564
    45  C    0.259975
    46  C   -0.104907
    47  C   -0.117514
    48  C    0.068908
    49  C    0.110085
    50  C   -0.111700
    51  C    0.092944
    52  C   -0.184204
    53  C    0.084858
    54  C   -0.069892
    55  C    0.215883
    56  C    0.032292
    57  C   -0.005781
    58  C    0.036551
    59  C   -0.002282
    60  C    0.061923
    61  C    0.060316
    62  C   -0.155849
    63  C   -0.002361
    64  C    0.013944
    65  H   -0.028631
    66  H   -0.026303
    67  H    0.010213
    68  H   -0.006648
    69  H   -0.002313
    70  H    0.002107
    71  H   -0.018730
    72  H   -0.064454
    73  H    0.039460
    74  H    0.018496
    75  H   -0.011085
    76  H    0.028616
    77  H    0.061747
    78  H    0.067164
    79  H    0.067130
    80  H   -0.026269
    81  H    0.040093
    82  H    0.056970
    83  H    0.046361
    84  H    0.043393
    85  H    0.015993
    86  H    0.022388
    87  H    0.040641
    88  H    0.007141
    89  H    0.024639
    90  H    0.032132
    91  H    0.043013
    92  H    0.027045
    93  H    0.073167
    94  H   -0.009250
    95  H   -0.012599
    96  H    0.005022
    97  H    0.062276
    98  H    0.036329
    99  H   -0.033682
   100  H    0.012386
   101  H    0.036971
   102  H    0.028446
   103  H    0.020328
   104  H    0.008509
   105  H    0.006773
   106  H    0.021847
   107  H    0.013176
   108  H   -0.014523
   109  H    0.008470
   110  H   -0.014497
   111  H    0.002872
   112  H    0.011527
   113  H   -0.031565
   114  H   -0.001220
   115  H   -0.013500
   116  H   -0.004491
   117  H   -0.059735
   118  H   -0.047807
   119  H   -0.032372
   120  H   -0.018725
   121  H   -0.043239
   122  H    0.006105
   123  H    0.001255
   124  H   -0.008187
   125  H    0.001888
   126  H   -0.006677
   127  H    0.016126
   128  H   -0.016398
   129  H   -0.011566
   130  H    0.012265
   131  H    0.007962
   132  H    0.019436
   133  H    0.036551
   134  H   -0.008120
   135  H    0.026119
   136  H    0.003774
   137  H    0.176500
   138  H    0.191602
 Sum of Mulliken charges =  -0.00000

 Dipole moment (field-independent basis, Debye):
    X=              1.1164    Y=              5.0973    Z=              0.0753  Tot=              5.2187
 Quadrupole moment (field-independent basis, Debye-Ang):
   XX=           -358.6994   YY=           -388.3096   ZZ=           -396.0788
   XY=            -20.4110   XZ=             14.1931   YZ=              1.9013

 Normal termination of Gaussian 16 at Sat Aug 17 01:57:43 2019.
