 Gaussian 16, Revision A.03,
 Gaussian 16:  ES64L-G16RevA.03 25-Dec-2016

 --------------------------
 # td=(NStates=1) B3LYP/SVP
 --------------------------

 --
 TD
 --
 Symbolic Z-matrix:
 Charge =  0 Multiplicity = 1

                         Standard orientation:
 ---------------------------------------------------------------------
 Center     Atomic      Atomic             Coordinates (Angstroms)
 Number     Number       Type             X           Y           Z
 ---------------------------------------------------------------------
      1          6           0       -5.096429   -1.840922    0.549539
      2          6           0       -4.895183    2.880676    1.328473
      3          6           0       -9.498160    3.250971   -0.274880
      4          6           0       -9.844872   -1.491351   -0.815921
      5          7           0       -5.190766    0.496669    0.822762
      6          6           0       -4.502109   -0.670883    0.959474
      7          6           0       -3.013521   -0.345162    1.460908
      8          6           0       -3.161093    1.146947    1.785820
      9          6           0       -4.449992    1.530919    1.206352
     10          6           0       -3.103066    1.114464    3.380235
     11          6           0       -2.007064   -0.772148    0.320265
     12          6           0       -0.486473   -0.779238    0.628494
     13          6           0        0.408881   -0.910493   -0.502017
     14          8           0        0.081913   -1.073052   -1.611648
     15          8           0        1.772362   -0.950124   -0.004537
     16          7           0       -7.129108    2.754340    0.473675
     17          6           0       -5.985121    3.496026    0.928116
     18          6           0       -6.416328    4.914557    0.982040
     19          6           0       -7.686274    4.916927    0.406130
     20          6           0       -8.213109    3.644928    0.151954
     21          6           0       -5.349936    5.911709    1.392120
     22          6           0       -8.369162    6.236296    0.290674
     23          6           0       -9.204587    6.538568   -0.692446
     24          7           0       -9.283333    0.774878   -0.572164
     25          6           0       -9.910060    2.016339   -0.599980
     26          6           0      -11.323259    1.665485   -0.917264
     27          6           0      -11.436030    0.337167   -1.251252
     28          6           0      -10.140171   -0.210262   -0.899672
     29          6           0      -12.378728    2.916119   -1.222799
     30          6           0      -12.659192   -0.440167   -1.693230
     31          6           0      -12.702197   -0.868275   -3.195065
     32          7           0       -7.516219   -1.257606   -0.183429
     33          6           0       -8.512272   -2.095896   -0.510672
     34          6           0       -8.157650   -3.392265   -0.549658
     35          6           0       -6.829296   -3.340028   -0.139667
     36          6           0       -6.395728   -2.033956    0.026557
     37          6           0       -8.903169   -4.607184   -0.944630
     38          6           0       -5.676615   -4.319251    0.054464
     39          8           0       -5.603131   -5.534355    0.038686
     40          6           0       -4.516428   -3.340982    0.430986
     41          6           0       -3.865550   -3.738878    1.797494
     42          8           0       -3.991895   -3.364860    2.917796
     43          8           0       -2.989108   -4.751898    1.547106
     44          6           0       -2.342991   -5.445380    2.590714
     45          6           0        2.769084   -1.211673   -1.014473
     46          6           0        4.051538   -0.728253   -0.413149
     47          6           0        5.069792   -0.064847   -0.980565
     48          6           0        4.844423    0.559141   -2.350323
     49          6           0        6.312195    0.150325   -0.346061
     50          6           0        7.621817   -0.310020   -1.121897
     51          6           0        8.793446   -0.222738   -0.209702
     52          6           0       10.107795   -0.644059   -0.925270
     53          6           0       10.187943   -2.095242   -1.180635
     54          6           0       11.274011   -0.237494   -0.106344
     55          6           0       12.706200   -0.620194   -0.652836
     56          6           0       13.821070   -0.045861    0.132303
     57          6           0       15.292132   -0.208321   -0.555254
     58          6           0       15.732309   -1.651665   -0.832318
     59          6           0       16.340089    0.567910    0.404810
     60          6           0       17.665492    0.688160   -0.162829
     61          6           0       18.588170    1.597601    0.587616
     62          6           0       20.114714    1.667130    0.280900
     63          6           0       20.221607    2.313366   -1.070371
     64          6           0       20.903127    2.404115    1.279878
     65          1           0       -3.963774    3.466165    1.789009
     66          1           0      -10.314063    4.169761   -0.548566
     67          1           0      -10.579470   -2.356226   -1.211703
     68          1           0       -2.869510   -1.051821    2.213486
     69          1           0       -2.262308    1.529727    1.391286
     70          1           0       -2.136598    0.943764    3.888231
     71          1           0       -3.294581    2.187636    3.651647
     72          1           0       -4.203305    0.626072    3.862997
     73          1           0       -2.195160   -1.791552   -0.039429
     74          1           0       -2.316010    0.020299   -0.563174
     75          1           0       -0.348262    0.206329    1.145346
     76          1           0       -0.380687   -1.491961    1.563267
     77          1           0       -4.636859    6.073959    0.633147
     78          1           0       -5.795848    6.931784    1.546740
     79          1           0       -4.847781    5.842785    2.417783
     80          1           0       -8.028379    7.029657    0.946717
     81          1           0       -9.651121    5.793498   -1.329437
     82          1           0       -9.637247    7.636187   -0.793900
     83          1           0      -12.422885    3.497657   -0.246567
     84          1           0      -12.197751    3.652643   -2.065254
     85          1           0      -13.314651    2.359383   -1.608357
     86          1           0      -12.541100   -1.354697   -0.942041
     87          1           0      -13.454438    0.283813   -1.450601
     88          1           0      -12.766164    0.148064   -3.926522
     89          1           0      -11.825812   -1.523135   -3.547815
     90          1           0      -13.807581   -1.291943   -3.623619
     91          1           0       -9.758758   -5.007740   -0.104719
     92          1           0       -9.251308   -4.344313   -2.090054
     93          1           0       -8.261283   -5.587669   -0.934338
     94          1           0       -3.521993   -3.424099   -0.376511
     95          1           0       -1.684685   -6.302213    2.357818
     96          1           0       -1.753711   -4.701675    3.303051
     97          1           0       -3.267143   -5.971334    3.183944
     98          1           0        2.725195   -2.157080   -1.436905
     99          1           0        2.313931   -0.500528   -1.866018
    100          1           0        4.215263   -0.979544    0.553705
    101          1           0        5.115298    1.703703   -2.348886
    102          1           0        5.441609    0.041282   -3.213275
    103          1           0        3.793683    0.400255   -2.936548
    104          1           0        6.390993    1.276952   -0.228098
    105          1           0        6.269816   -0.313830    0.697394
    106          1           0        7.514743   -1.405118   -1.327745
    107          1           0        7.450917    0.263673   -2.152688
    108          1           0        8.853805    0.832408    0.347507
    109          1           0        8.717777   -1.063466    0.689429
    110          1           0       10.174363   -0.069443   -1.820341
    111          1           0        9.268611   -2.461460   -1.576488
    112          1           0       11.079446   -2.511370   -1.745609
    113          1           0       10.031373   -2.760913   -0.118186
    114          1           0       11.405592    0.672971    0.092432
    115          1           0       11.116957   -0.545360    0.935206
    116          1           0       12.835306   -1.624510   -0.578445
    117          1           0       12.974713   -0.358935   -1.600166
    118          1           0       13.477424    1.078807    0.446013
    119          1           0       13.932222   -0.526747    1.269685
    120          1           0       15.391543    0.321575   -1.546027
    121          1           0       15.013321   -2.272893   -1.396016
    122          1           0       16.717573   -1.738319   -1.153726
    123          1           0       15.602723   -2.104868    0.186400
    124          1           0       15.804432    1.645390    0.541851
    125          1           0       16.321633    0.096516    1.407825
    126          1           0       18.327748   -0.199958   -0.213089
    127          1           0       17.707759    1.102763   -1.153137
    128          1           0       18.159954    2.719400    0.569348
    129          1           0       18.159387    1.292421    1.681500
    130          1           0       20.366731    0.519129   -0.062709
    131          1           0       19.524857    3.202183   -1.345280
    132          1           0       21.364272    2.662296   -1.281777
    133          1           0       19.602828    1.627432   -1.817146
    134          1           0       20.811027    1.959901    2.341027
    135          1           0       22.050982    2.308000    1.125161
    136          1           0       20.736720    3.570990    1.123006
    137          1           0       -7.026311    1.626401    0.392137
    138          1           0       -7.535232   -0.209098   -0.209141
 ---------------------------------------------------------------------

 SCF Done:  E(RB3LYP) =  -2732.96230206     A.U. after   18 cycles

 Excitation energies and oscillator strengths:

 Excited State   1:      Singlet-A      2.1499 eV  576.69 nm  f=0.1765  <S**2>=0.000
     235 -> 237       -0.23846
     235 -> 238       -0.28345
     236 -> 237        0.58641
     236 -> 238       -0.13122
 This state for optimization and/or second-order correction.
 Total Energy, E(TD-HF/TD-DFT) =  -2732.88329315
 Copying the excited state density for this state as the 1-particle RhoCI density.

 The electronic state is 1-A.
 Alpha  occ. eigenvalues --  -19.16620 -19.15956 -19.14455 -19.12981 -19.12878
 Alpha  occ. eigenvalues --  -14.37031 -14.36743 -14.33414 -14.29637 -10.31954
 Alpha  occ. eigenvalues --  -10.31913 -10.28694 -10.25772 -10.25063 -10.24102
 Alpha  occ. eigenvalues --  -10.23847 -10.23809 -10.23677 -10.23339 -10.22872
 Alpha  occ. eigenvalues --  -10.22857 -10.22276 -10.21993 -10.21856 -10.21708
 Alpha  occ. eigenvalues --  -10.21568 -10.21484 -10.21469 -10.21367 -10.21259
 Alpha  occ. eigenvalues --  -10.21041 -10.20951 -10.20926 -10.20854 -10.20814
 Alpha  occ. eigenvalues --  -10.20808 -10.20756 -10.20689 -10.20640 -10.20540
 Alpha  occ. eigenvalues --  -10.20376 -10.20369 -10.20306 -10.20223 -10.20099
 Alpha  occ. eigenvalues --  -10.20048 -10.20032 -10.19819 -10.19795 -10.19781
 Alpha  occ. eigenvalues --  -10.19472 -10.19317 -10.19227 -10.19109 -10.19106
 Alpha  occ. eigenvalues --  -10.18994 -10.18759 -10.18674 -10.18331 -10.17640
 Alpha  occ. eigenvalues --  -10.17510 -10.17390 -10.16139 -10.16038  -1.09728
 Alpha  occ. eigenvalues --   -1.09248  -1.02827  -1.01040  -1.00835  -0.99417
 Alpha  occ. eigenvalues --   -0.96031  -0.95034  -0.93291  -0.84306  -0.83411
 Alpha  occ. eigenvalues --   -0.82348  -0.82076  -0.81969  -0.81397  -0.81102
 Alpha  occ. eigenvalues --   -0.80655  -0.79626  -0.79509  -0.78280  -0.78013
 Alpha  occ. eigenvalues --   -0.77343  -0.76575  -0.75385  -0.75183  -0.74084
 Alpha  occ. eigenvalues --   -0.73358  -0.73229  -0.71835  -0.71499  -0.70964
 Alpha  occ. eigenvalues --   -0.69491  -0.68699  -0.68167  -0.67646  -0.67199
 Alpha  occ. eigenvalues --   -0.67070  -0.66864  -0.66334  -0.65781  -0.64774
 Alpha  occ. eigenvalues --   -0.64480  -0.62488  -0.61675  -0.61153  -0.60914
 Alpha  occ. eigenvalues --   -0.60683  -0.59290  -0.58746  -0.57977  -0.56999
 Alpha  occ. eigenvalues --   -0.56806  -0.56056  -0.55716  -0.55403  -0.55154
 Alpha  occ. eigenvalues --   -0.54930  -0.54774  -0.53638  -0.53534  -0.53326
 Alpha  occ. eigenvalues --   -0.52489  -0.52171  -0.51685  -0.50776  -0.50324
 Alpha  occ. eigenvalues --   -0.49423  -0.49340  -0.48777  -0.48764  -0.48282
 Alpha  occ. eigenvalues --   -0.47941  -0.47874  -0.47395  -0.47177  -0.47123
 Alpha  occ. eigenvalues --   -0.46882  -0.46675  -0.46317  -0.45868  -0.45454
 Alpha  occ. eigenvalues --   -0.45247  -0.45153  -0.45093  -0.44880  -0.44833
 Alpha  occ. eigenvalues --   -0.44606  -0.44099  -0.44074  -0.44008  -0.43358
 Alpha  occ. eigenvalues --   -0.43206  -0.42975  -0.42855  -0.42647  -0.42455
 Alpha  occ. eigenvalues --   -0.42277  -0.42090  -0.41931  -0.41872  -0.41442
 Alpha  occ. eigenvalues --   -0.41363  -0.41106  -0.40965  -0.40854  -0.40775
 Alpha  occ. eigenvalues --   -0.40340  -0.40181  -0.39848  -0.39509  -0.39460
 Alpha  occ. eigenvalues --   -0.39068  -0.38648  -0.38359  -0.38296  -0.38099
 Alpha  occ. eigenvalues --   -0.37903  -0.37864  -0.37665  -0.37418  -0.37403
 Alpha  occ. eigenvalues --   -0.37203  -0.37003  -0.36751  -0.36716  -0.36523
 Alpha  occ. eigenvalues --   -0.36280  -0.36203  -0.35769  -0.35564  -0.35453
 Alpha  occ. eigenvalues --   -0.35429  -0.35364  -0.34970  -0.34497  -0.34285
 Alpha  occ. eigenvalues --   -0.34202  -0.33955  -0.33853  -0.33708  -0.33575
 Alpha  occ. eigenvalues --   -0.33448  -0.33218  -0.33157  -0.32833  -0.32482
 Alpha  occ. eigenvalues --   -0.31804  -0.31555  -0.31230  -0.31177  -0.31151
 Alpha  occ. eigenvalues --   -0.30761  -0.30477  -0.30150  -0.29771  -0.29486
 Alpha  occ. eigenvalues --   -0.29471  -0.28877  -0.28760  -0.28708  -0.28680
 Alpha  occ. eigenvalues --   -0.28016  -0.27920  -0.27398  -0.26147  -0.25534
 Alpha  occ. eigenvalues --   -0.24963  -0.24403  -0.24032  -0.23005  -0.20164
 Alpha  occ. eigenvalues --   -0.19871
 Alpha virt. eigenvalues --   -0.10922  -0.07543  -0.04810  -0.02295  -0.01143
 Alpha virt. eigenvalues --   -0.00728   0.00296   0.00362   0.01783   0.03132
 Alpha virt. eigenvalues --    0.03446   0.04012   0.04145   0.04241   0.04493

 Mulliken charges:
               1
     1  C    0.067946
     2  C   -0.081513
     3  C   -0.165718
     4  C   -0.156460
     5  N   -0.165985
     6  C   -0.131208
     7  C    0.034058
     8  C    0.035972
     9  C   -0.033190
    10  C   -0.003569
    11  C   -0.045229
    12  C    0.015765
    13  C    0.224175
    14  O   -0.163816
    15  O   -0.398645
    16  N   -0.244699
    17  C    0.154416
    18  C   -0.087695
    19  C    0.003165
    20  C    0.182147
    21  C    0.081963
    22  C   -0.012276
    23  C   -0.056208
    24  N   -0.253683
    25  C    0.104937
    26  C   -0.145758
    27  C   -0.077983
    28  C    0.144622
    29  C   -0.011484
    30  C    0.067454
    31  C   -0.090483
    32  N   -0.023377
    33  C    0.004703
    34  C   -0.093601
    35  C   -0.082080
    36  C    0.074653
    37  C   -0.038147
    38  C    0.159439
    39  O   -0.160063
    40  C   -0.178875
    41  C    0.211366
    42  O   -0.189067
    43  O   -0.306141
    44  C    0.118582
    45  C    0.277961
    46  C   -0.052401
    47  C   -0.090697
    48  C   -0.046128
    49  C    0.066255
    50  C   -0.004101
    51  C   -0.070890
    52  C    0.026863
    53  C    0.009297
    54  C    0.148118
    55  C    0.166221
    56  C   -0.117450
    57  C   -0.093985
    58  C    0.059167
    59  C   -0.009569
    60  C    0.102878
    61  C   -0.103595
    62  C   -0.056828
    63  C   -0.059748
    64  C    0.010888
    65  H    0.015600
    66  H    0.044600
    67  H    0.021303
    68  H   -0.010071
    69  H   -0.020393
    70  H    0.037091
    71  H   -0.010441
    72  H    0.063900
    73  H    0.011968
    74  H    0.028203
    75  H    0.023472
    76  H    0.057432
    77  H    0.031018
    78  H   -0.001241
    79  H    0.041591
    80  H   -0.002324
    81  H    0.024471
    82  H    0.040572
    83  H    0.047866
    84  H    0.040776
    85  H    0.019760
    86  H    0.040773
    87  H    0.012160
    88  H    0.024931
    89  H    0.047521
    90  H    0.037546
    91  H    0.057812
    92  H    0.059853
    93  H    0.057577
    94  H    0.115522
    95  H    0.045169
    96  H    0.040786
    97  H    0.038973
    98  H    0.012773
    99  H    0.030940
   100  H   -0.057483
   101  H    0.036938
   102  H    0.030618
   103  H    0.027539
   104  H    0.008602
   105  H   -0.002014
   106  H    0.006680
   107  H    0.032753
   108  H    0.017835
   109  H    0.018988
   110  H   -0.024281
   111  H   -0.016267
   112  H    0.040813
   113  H   -0.001482
   114  H   -0.108743
   115  H   -0.036463
   116  H   -0.028980
   117  H   -0.033481
   118  H    0.008219
   119  H    0.002166
   120  H   -0.001380
   121  H    0.011437
   122  H    0.007253
   123  H   -0.006773
   124  H    0.015815
   125  H    0.004215
   126  H   -0.005180
   127  H   -0.025208
   128  H   -0.005281
   129  H   -0.008076
   130  H    0.018380
   131  H    0.008395
   132  H    0.037818
   133  H    0.013077
   134  H    0.027936
   135  H    0.014446
   136  H    0.036007
   137  H    0.204516
   138  H    0.152492
 Sum of Mulliken charges =  -0.00000

 Dipole moment (field-independent basis, Debye):
    X=              2.1196    Y=              4.6182    Z=             -0.1446  Tot=              5.0834
 Quadrupole moment (field-independent basis, Debye-Ang):
   XX=           -375.9758   YY=           -380.9755   ZZ=           -398.3027
   XY=            -30.6312   XZ=              5.4991   YZ=              3.7110

 Normal termination of Gaussian 16 at Sun Aug 11 00:20:57 2019.
