 Gaussian 16, Revision A.03,
 Gaussian 16:  ES64L-G16RevA.03 25-Dec-2016

 --------------------------
 # td=(NStates=1) B3LYP/SVP
 --------------------------

 --
 TD
 --
 Symbolic Z-matrix:
 Charge =  0 Multiplicity = 1

                         Standard orientation:
 ---------------------------------------------------------------------
 Center     Atomic      Atomic             Coordinates (Angstroms)
 Number     Number       Type             X           Y           Z
 ---------------------------------------------------------------------
      1          6           0       -5.148915   -1.914134    0.400670
      2          6           0       -4.700715    2.735481    1.245652
      3          6           0       -9.359846    3.450596   -0.182173
      4          6           0       -9.804444   -1.354850   -0.936942
      5          7           0       -5.220411    0.443136    0.722973
      6          6           0       -4.523192   -0.706439    0.710578
      7          6           0       -3.099563   -0.621238    1.209317
      8          6           0       -2.920331    0.854724    1.636218
      9          6           0       -4.305163    1.450485    1.192100
     10          6           0       -2.746254    1.013759    3.118843
     11          6           0       -2.097904   -0.893838   -0.000959
     12          6           0       -0.510104   -0.915491    0.562806
     13          6           0        0.375647   -1.126834   -0.644617
     14          8           0        0.140461   -1.716078   -1.681292
     15          8           0        1.686324   -0.913519   -0.228848
     16          7           0       -7.027768    2.854029    0.256874
     17          6           0       -5.889253    3.358354    0.851489
     18          6           0       -6.178933    4.778479    1.020548
     19          6           0       -7.425898    5.078686    0.563859
     20          6           0       -8.021343    3.804459    0.119040
     21          6           0       -5.104445    5.771460    1.399255
     22          6           0       -8.126893    6.329945    0.458821
     23          6           0       -9.005939    6.782250   -0.442316
     24          7           0       -9.214897    0.969030   -0.461699
     25          6           0       -9.858446    2.119990   -0.444036
     26          6           0      -11.326317    1.971012   -0.845270
     27          6           0      -11.367295    0.600736   -1.001388
     28          6           0      -10.145912   -0.115608   -0.909602
     29          6           0      -12.352138    3.022622   -0.925788
     30          6           0      -12.600896   -0.144422   -1.557821
     31          6           0      -12.459656   -0.481853   -3.076205
     32          7           0       -7.577866   -1.229170   -0.268290
     33          6           0       -8.603592   -2.059062   -0.599852
     34          6           0       -8.233514   -3.470971   -0.545154
     35          6           0       -6.983561   -3.395870   -0.078146
     36          6           0       -6.487219   -2.011611    0.059670
     37          6           0       -9.039795   -4.619384   -0.896194
     38          6           0       -5.846355   -4.315706    0.156619
     39          8           0       -5.792532   -5.540299    0.290655
     40          6           0       -4.603913   -3.294546    0.423521
     41          6           0       -3.925139   -3.828585    1.800428
     42          8           0       -4.073334   -3.399118    2.846292
     43          8           0       -3.017622   -4.770024    1.404340
     44          6           0       -2.267239   -5.492135    2.519978
     45          6           0        2.740003   -1.252725   -1.113631
     46          6           0        4.091955   -0.877101   -0.534933
     47          6           0        4.947229   -0.037997   -1.186198
     48          6           0        4.673989    0.633034   -2.601696
     49          6           0        6.289130    0.291022   -0.581111
     50          6           0        7.512143   -0.585993   -1.081325
     51          6           0        8.843806   -0.182415   -0.327882
     52          6           0       10.070080   -0.830047   -0.829228
     53          6           0        9.962164   -2.380476   -0.857171
     54          6           0       11.240559   -0.408891    0.022981
     55          6           0       12.662142   -0.623873   -0.556122
     56          6           0       13.730881    0.233764    0.284932
     57          6           0       15.221154   -0.078178   -0.264227
     58          6           0       15.479902   -1.650687   -0.228411
     59          6           0       16.277856    0.683105    0.506956
     60          6           0       17.600803    0.700615   -0.087251
     61          6           0       18.494156    1.721223    0.682762
     62          6           0       19.939243    1.839248    0.196038
     63          6           0       20.039561    2.105327   -1.371440
     64          6           0       20.726289    2.759244    1.174838
     65          1           0       -3.800897    3.444217    1.574363
     66          1           0      -10.077557    4.219551   -0.240850
     67          1           0      -10.588901   -2.013857   -1.067051
     68          1           0       -2.959789   -1.299746    1.976619
     69          1           0       -2.077774    1.474372    1.111716
     70          1           0       -1.721389    0.752487    3.457114
     71          1           0       -2.875827    2.187668    3.419448
     72          1           0       -3.530613    0.414408    3.679964
     73          1           0       -2.296993   -1.801522   -0.546072
     74          1           0       -2.200292   -0.057377   -0.702640
     75          1           0       -0.087645    0.037257    1.059369
     76          1           0       -0.525517   -1.759883    1.372661
     77          1           0       -4.081225    5.493834    1.067002
     78          1           0       -5.573802    6.675731    1.141960
     79          1           0       -5.057252    5.663179    2.552972
     80          1           0       -7.758068    6.802895    1.490592
     81          1           0       -9.022663    6.013145   -1.250214
     82          1           0       -9.430558    7.826453   -0.421665
     83          1           0      -12.477714    3.578485   -0.005356
     84          1           0      -11.983692    3.845034   -1.412742
     85          1           0      -13.429235    2.609684   -1.180720
     86          1           0      -12.848616   -1.062348   -0.936391
     87          1           0      -13.567934    0.509651   -1.262322
     88          1           0      -12.315990    0.246296   -3.880180
     89          1           0      -11.603812   -1.159569   -3.216421
     90          1           0      -13.367635   -1.004267   -3.250140
     91          1           0       -9.915794   -4.734066   -0.147846
     92          1           0       -9.405760   -4.691058   -2.003065
     93          1           0       -8.230979   -5.398021   -0.757260
     94          1           0       -3.858774   -3.504572   -0.214273
     95          1           0       -1.650886   -6.388699    2.172212
     96          1           0       -1.611174   -4.743837    2.865251
     97          1           0       -2.789842   -5.781523    3.301272
     98          1           0        2.502241   -2.364857   -1.251381
     99          1           0        2.454769   -0.809576   -2.095282
    100          1           0        4.462367   -1.547884    0.165642
    101          1           0        5.286808    1.608679   -2.250110
    102          1           0        5.196985    0.261214   -3.656072
    103          1           0        3.766587    0.757207   -2.763993
    104          1           0        6.614249    1.352224   -0.698152
    105          1           0        6.203753    0.235173    0.581100
    106          1           0        7.347107   -1.794894   -0.860714
    107          1           0        7.465223   -0.563927   -2.225397
    108          1           0        8.885320    0.827969   -0.085223
    109          1           0        8.605689   -0.505021    0.688200
    110          1           0       10.334133   -0.384284   -2.023295
    111          1           0        9.211548   -2.711254   -1.685640
    112          1           0       10.976540   -2.920896   -1.164404
    113          1           0        9.668953   -3.035723    0.199915
    114          1           0       10.776939    0.767970    0.214883
    115          1           0       11.134403   -0.680083    1.050083
    116          1           0       13.050274   -1.682872   -0.516842
    117          1           0       12.698288   -0.181023   -1.774328
    118          1           0       13.670688    1.249366    0.010017
    119          1           0       13.737194   -0.169255    1.426216
    120          1           0       15.060380    0.210555   -1.142121
    121          1           0       14.777936   -2.139035   -0.889356
    122          1           0       16.467152   -1.864578   -0.796707
    123          1           0       15.609455   -2.040676    0.688335
    124          1           0       15.762298    1.840148    0.577030
    125          1           0       16.336474    0.362164    1.450615
    126          1           0       18.053346   -0.501099   -0.177228
    127          1           0       17.611083    0.901610   -1.284946
    128          1           0       17.973982    2.666035    0.541260
    129          1           0       18.571316    1.520294    1.744218
    130          1           0       20.328673    0.805963    0.566875
    131          1           0       19.542769    3.043503   -1.591275
    132          1           0       21.271971    2.272901   -1.500867
    133          1           0       19.852513    1.232800   -2.076382
    134          1           0       20.472455    2.475860    2.140228
    135          1           0       21.844945    2.562996    0.870616
    136          1           0       20.596482    3.869055    1.160817
    137          1           0       -7.111361    1.869884    0.259571
    138          1           0       -7.698519   -0.249481   -0.036385
 ---------------------------------------------------------------------

 SCF Done:  E(RB3LYP) =  -2732.99599084     A.U. after   17 cycles

 Excitation energies and oscillator strengths:

 Excited State   1:      Singlet-A      1.9802 eV  626.13 nm  f=0.2788  <S**2>=0.000
     235 -> 238        0.20883
     236 -> 237        0.66755
 This state for optimization and/or second-order correction.
 Total Energy, E(TD-HF/TD-DFT) =  -2732.92322116
 Copying the excited state density for this state as the 1-particle RhoCI density.

 The electronic state is 1-A.
 Alpha  occ. eigenvalues --  -19.17245 -19.16202 -19.13292 -19.13035 -19.12347
 Alpha  occ. eigenvalues --  -14.36817 -14.36645 -14.32613 -14.29469 -10.31645
 Alpha  occ. eigenvalues --  -10.31278 -10.27863 -10.24299 -10.24154 -10.24063
 Alpha  occ. eigenvalues --  -10.24057 -10.23125 -10.23085 -10.22930 -10.22544
 Alpha  occ. eigenvalues --  -10.22420 -10.21622 -10.21561 -10.21497 -10.21391
 Alpha  occ. eigenvalues --  -10.20972 -10.20933 -10.20908 -10.20855 -10.20819
 Alpha  occ. eigenvalues --  -10.20630 -10.20567 -10.20490 -10.20409 -10.20326
 Alpha  occ. eigenvalues --  -10.20298 -10.20272 -10.20270 -10.20207 -10.20190
 Alpha  occ. eigenvalues --  -10.20101 -10.20095 -10.20044 -10.20013 -10.19970
 Alpha  occ. eigenvalues --  -10.19936 -10.19881 -10.19738 -10.19655 -10.19378
 Alpha  occ. eigenvalues --  -10.19181 -10.19026 -10.18845 -10.18688 -10.18675
 Alpha  occ. eigenvalues --  -10.18612 -10.18274 -10.18261 -10.18030 -10.18001
 Alpha  occ. eigenvalues --  -10.17700 -10.17688 -10.17303 -10.17259  -1.10191
 Alpha  occ. eigenvalues --   -1.08204  -1.01623  -1.01223  -1.00145  -0.98209
 Alpha  occ. eigenvalues --   -0.97994  -0.93139  -0.91454  -0.84433  -0.82683
 Alpha  occ. eigenvalues --   -0.82407  -0.81748  -0.81607  -0.81030  -0.80577
 Alpha  occ. eigenvalues --   -0.80239  -0.79762  -0.79199  -0.78138  -0.77333
 Alpha  occ. eigenvalues --   -0.76558  -0.75563  -0.75247  -0.74543  -0.73868
 Alpha  occ. eigenvalues --   -0.73544  -0.72802  -0.71871  -0.70886  -0.70727
 Alpha  occ. eigenvalues --   -0.70054  -0.69627  -0.68817  -0.68034  -0.67644
 Alpha  occ. eigenvalues --   -0.67337  -0.66975  -0.66258  -0.66044  -0.65332
 Alpha  occ. eigenvalues --   -0.63913  -0.63063  -0.62383  -0.62218  -0.61047
 Alpha  occ. eigenvalues --   -0.60929  -0.58920  -0.58575  -0.58159  -0.57283
 Alpha  occ. eigenvalues --   -0.56913  -0.55734  -0.55588  -0.55355  -0.54910
 Alpha  occ. eigenvalues --   -0.54829  -0.54582  -0.54106  -0.53404  -0.53052
 Alpha  occ. eigenvalues --   -0.52850  -0.51605  -0.51005  -0.50376  -0.49985
 Alpha  occ. eigenvalues --   -0.49511  -0.49049  -0.48920  -0.48275  -0.48133
 Alpha  occ. eigenvalues --   -0.47744  -0.47698  -0.47352  -0.46809  -0.46785
 Alpha  occ. eigenvalues --   -0.46567  -0.46487  -0.46406  -0.46185  -0.45755
 Alpha  occ. eigenvalues --   -0.45434  -0.45053  -0.44809  -0.44443  -0.44338
 Alpha  occ. eigenvalues --   -0.44134  -0.43999  -0.43768  -0.43557  -0.43470
 Alpha  occ. eigenvalues --   -0.43401  -0.43281  -0.43041  -0.42771  -0.42551
 Alpha  occ. eigenvalues --   -0.42403  -0.42115  -0.42020  -0.41359  -0.41144
 Alpha  occ. eigenvalues --   -0.40927  -0.40793  -0.40628  -0.40421  -0.40282
 Alpha  occ. eigenvalues --   -0.40252  -0.40074  -0.39870  -0.39721  -0.39489
 Alpha  occ. eigenvalues --   -0.39366  -0.39095  -0.38929  -0.38749  -0.38608
 Alpha  occ. eigenvalues --   -0.38524  -0.38278  -0.37983  -0.37864  -0.37769
 Alpha  occ. eigenvalues --   -0.37534  -0.37215  -0.37074  -0.36966  -0.36762
 Alpha  occ. eigenvalues --   -0.36603  -0.36528  -0.36216  -0.35977  -0.35829
 Alpha  occ. eigenvalues --   -0.35739  -0.35400  -0.35207  -0.35007  -0.34852
 Alpha  occ. eigenvalues --   -0.34661  -0.34487  -0.34396  -0.33845  -0.33428
 Alpha  occ. eigenvalues --   -0.33414  -0.33116  -0.32709  -0.32375  -0.32183
 Alpha  occ. eigenvalues --   -0.31975  -0.31853  -0.31264  -0.31252  -0.31062
 Alpha  occ. eigenvalues --   -0.30883  -0.30792  -0.30688  -0.30264  -0.29685
 Alpha  occ. eigenvalues --   -0.29104  -0.28952  -0.28767  -0.28336  -0.27862
 Alpha  occ. eigenvalues --   -0.27810  -0.27606  -0.26864  -0.26339  -0.24938
 Alpha  occ. eigenvalues --   -0.24686  -0.24521  -0.24432  -0.21899  -0.20554
 Alpha  occ. eigenvalues --   -0.17926
 Alpha virt. eigenvalues --   -0.10248  -0.07163  -0.04111  -0.02363  -0.02197
 Alpha virt. eigenvalues --   -0.01819   0.00186   0.01850   0.02178   0.03277
 Alpha virt. eigenvalues --    0.03353   0.04045   0.04261   0.04648   0.04745

 Mulliken charges:
               1
     1  C    0.047599
     2  C   -0.104877
     3  C   -0.055325
     4  C   -0.038164
     5  N   -0.210540
     6  C   -0.066136
     7  C    0.049004
     8  C   -0.028927
     9  C   -0.013618
    10  C    0.009784
    11  C    0.016666
    12  C   -0.045695
    13  C    0.215152
    14  O   -0.232182
    15  O   -0.342032
    16  N   -0.036094
    17  C    0.124536
    18  C   -0.172221
    19  C    0.005060
    20  C    0.080968
    21  C    0.121797
    22  C   -0.069021
    23  C   -0.025414
    24  N   -0.288932
    25  C    0.054253
    26  C   -0.156799
    27  C   -0.070839
    28  C    0.124564
    29  C    0.180478
    30  C   -0.012254
    31  C    0.049656
    32  N   -0.021574
    33  C    0.012411
    34  C   -0.095271
    35  C   -0.031131
    36  C    0.090724
    37  C    0.021614
    38  C    0.099264
    39  O   -0.192875
    40  C   -0.035960
    41  C    0.166340
    42  O   -0.143060
    43  O   -0.351095
    44  C    0.244298
    45  C    0.214529
    46  C    0.004081
    47  C   -0.126073
    48  C    0.080163
    49  C    0.005255
    50  C   -0.047596
    51  C    0.082841
    52  C   -0.052911
    53  C   -0.074699
    54  C    0.014867
    55  C   -0.027901
    56  C    0.007232
    57  C    0.009703
    58  C    0.041838
    59  C    0.095944
    60  C   -0.062492
    61  C    0.046443
    62  C   -0.104352
    63  C   -0.008297
    64  C    0.029935
    65  H    0.002335
    66  H   -0.063384
    67  H   -0.060047
    68  H   -0.014435
    69  H    0.022091
    70  H    0.021037
    71  H    0.019627
    72  H    0.041982
    73  H    0.029940
    74  H    0.013171
    75  H    0.049359
    76  H    0.068991
    77  H    0.040444
    78  H    0.008973
    79  H    0.027854
    80  H    0.022901
    81  H    0.042233
    82  H    0.052006
    83  H   -0.004996
    84  H   -0.019979
    85  H    0.039487
    86  H    0.006138
    87  H   -0.001165
    88  H    0.017713
    89  H    0.003584
    90  H    0.001637
    91  H    0.054197
    92  H    0.050339
    93  H    0.049874
    94  H    0.001619
    95  H    0.053400
    96  H    0.006416
    97  H    0.001100
    98  H    0.010676
    99  H    0.010275
   100  H   -0.017740
   101  H    0.026518
   102  H    0.063447
   103  H   -0.042781
   104  H    0.010464
   105  H    0.010419
   106  H    0.026145
   107  H    0.012815
   108  H   -0.031950
   109  H   -0.020471
   110  H    0.018053
   111  H    0.032329
   112  H    0.024885
   113  H    0.031746
   114  H   -0.008528
   115  H   -0.018267
   116  H    0.031062
   117  H    0.017260
   118  H   -0.003562
   119  H    0.019365
   120  H   -0.094415
   121  H    0.009145
   122  H    0.001066
   123  H   -0.013891
   124  H   -0.003712
   125  H   -0.045432
   126  H    0.008258
   127  H    0.010721
   128  H   -0.013438
   129  H   -0.013328
   130  H   -0.000998
   131  H    0.023405
   132  H    0.011983
   133  H    0.044976
   134  H   -0.008492
   135  H    0.020924
   136  H    0.007607
   137  H    0.122674
   138  H    0.143697
 Sum of Mulliken charges =  -0.00000

 Dipole moment (field-independent basis, Debye):
    X=              3.3347    Y=              3.9528    Z=              1.4110  Tot=              5.3606
 Quadrupole moment (field-independent basis, Debye-Ang):
   XX=           -361.4627   YY=           -383.4106   ZZ=           -394.2724
   XY=            -28.2026   XZ=              9.5147   YZ=             -3.0567

 Normal termination of Gaussian 16 at Mon Aug 26 12:09:16 2019.
