 Gaussian 16, Revision A.03,
 Gaussian 16:  ES64L-G16RevA.03 25-Dec-2016

 --------------------------
 # td=(NStates=1) B3LYP/SVP
 --------------------------

 --
 TD
 --
 Symbolic Z-matrix:
 Charge =  0 Multiplicity = 1

                         Standard orientation:
 ---------------------------------------------------------------------
 Center     Atomic      Atomic             Coordinates (Angstroms)
 Number     Number       Type             X           Y           Z
 ---------------------------------------------------------------------
      1          6           0       -5.113451   -1.883459    0.577390
      2          6           0       -4.797687    2.761311    1.270376
      3          6           0       -9.546903    3.253282   -0.203238
      4          6           0       -9.867423   -1.649030   -0.998136
      5          7           0       -5.191840    0.503524    0.735214
      6          6           0       -4.515792   -0.662471    0.718854
      7          6           0       -3.017534   -0.502986    1.180648
      8          6           0       -3.047160    1.006455    1.730518
      9          6           0       -4.365684    1.460167    1.200809
     10          6           0       -3.119911    0.959639    3.270447
     11          6           0       -2.132862   -0.681977    0.101647
     12          6           0       -0.547640   -0.583060    0.461227
     13          6           0        0.423467   -0.993138   -0.623732
     14          8           0        0.121686   -1.568648   -1.641901
     15          8           0        1.660459   -0.562265   -0.296011
     16          7           0       -7.039013    2.728126    0.282815
     17          6           0       -6.047644    3.405444    0.837479
     18          6           0       -6.430643    4.842541    0.948103
     19          6           0       -7.766522    4.903507    0.647894
     20          6           0       -8.157371    3.598941    0.090012
     21          6           0       -5.493650    5.787502    1.477440
     22          6           0       -8.555488    6.118920    0.436749
     23          6           0       -9.608763    6.588755   -0.358331
     24          7           0       -9.320839    0.848123   -0.754080
     25          6           0      -10.067881    1.959136   -0.620230
     26          6           0      -11.380288    1.648335   -0.992596
     27          6           0      -11.425645    0.348886   -1.185197
     28          6           0      -10.073366   -0.256389   -0.994399
     29          6           0      -12.507361    2.755210   -1.116364
     30          6           0      -12.705867   -0.408490   -1.660826
     31          6           0      -12.592055   -1.018098   -3.035295
     32          7           0       -7.523652   -1.298053   -0.204997
     33          6           0       -8.578963   -2.128567   -0.722164
     34          6           0       -8.114535   -3.448773   -0.591364
     35          6           0       -6.821627   -3.371880   -0.243206
     36          6           0       -6.448975   -2.070272    0.095192
     37          6           0       -8.864649   -4.750180   -0.900160
     38          6           0       -5.738015   -4.237113    0.049984
     39          8           0       -5.579212   -5.514865    0.005149
     40          6           0       -4.555053   -3.246289    0.584888
     41          6           0       -3.940166   -3.733139    1.821835
     42          8           0       -4.206001   -3.327991    2.905183
     43          8           0       -2.799887   -4.653472    1.631890
     44          6           0       -2.275653   -5.147617    2.822474
     45          6           0        2.711049   -0.756316   -1.266462
     46          6           0        4.018045   -0.536425   -0.581153
     47          6           0        5.019480    0.281338   -1.020025
     48          6           0        4.901409    1.392920   -2.160217
     49          6           0        6.340109    0.305770   -0.201289
     50          6           0        7.557957   -0.487685   -0.749463
     51          6           0        8.951577   -0.380389    0.069525
     52          6           0       10.212250   -0.779075   -0.768125
     53          6           0       10.176728   -2.213305   -1.122826
     54          6           0       11.475753   -0.390909    0.124727
     55          6           0       12.775184   -0.537886   -0.636114
     56          6           0       13.981228   -0.001747    0.252914
     57          6           0       15.364218   -0.258271   -0.422747
     58          6           0       15.605580   -1.740869   -0.373684
     59          6           0       16.342928    0.468951    0.399963
     60          6           0       17.808672    0.533511   -0.260639
     61          6           0       18.727628    1.461715    0.565855
     62          6           0       20.242346    1.610355    0.065493
     63          6           0       20.264208    2.208475   -1.342948
     64          6           0       20.990256    2.435275    0.997207
     65          1           0       -3.993058    3.480238    1.636011
     66          1           0      -10.276145    4.100586    0.056043
     67          1           0      -10.746833   -2.301070   -1.136521
     68          1           0       -2.994248   -1.177344    2.082511
     69          1           0       -2.337092    1.543195    1.247170
     70          1           0       -2.142961    0.617501    3.386478
     71          1           0       -3.005803    2.080536    3.600012
     72          1           0       -3.973074    0.252549    3.651371
     73          1           0       -2.118520   -1.679115   -0.252111
     74          1           0       -2.182970    0.079029   -0.895772
     75          1           0       -0.120888    0.628466    0.598749
     76          1           0       -0.244789   -1.247521    1.398947
     77          1           0       -4.620047    6.239867    0.934819
     78          1           0       -6.004749    6.741717    1.947685
     79          1           0       -5.163573    5.442487    2.532605
     80          1           0       -8.202227    6.834516    1.177946
     81          1           0      -10.141454    6.112116   -1.223925
     82          1           0       -9.958448    7.570867   -0.050683
     83          1           0      -12.608637    3.467733   -0.229086
     84          1           0      -12.347303    3.450974   -2.055134
     85          1           0      -13.533088    2.362148   -1.585574
     86          1           0      -13.113681   -1.218686   -0.963003
     87          1           0      -13.718346    0.317635   -1.613247
     88          1           0      -12.618025   -0.202515   -3.764137
     89          1           0      -11.582098   -1.478565   -3.163861
     90          1           0      -13.394810   -1.501551   -3.475656
     91          1           0      -10.024972   -4.540623   -0.677756
     92          1           0       -8.998965   -4.717410   -2.098379
     93          1           0       -8.437243   -5.749081   -0.414050
     94          1           0       -3.772106   -3.309944   -0.240396
     95          1           0       -1.374805   -5.868667    2.367757
     96          1           0       -1.927094   -4.142908    3.512637
     97          1           0       -2.987797   -5.821793    3.450589
     98          1           0        2.736525   -1.838990   -1.500135
     99          1           0        2.455458   -0.049209   -2.113853
    100          1           0        4.009891   -1.267192    0.455632
    101          1           0        5.083729    2.471941   -1.454509
    102          1           0        5.799301    1.471294   -3.080347
    103          1           0        4.054253    1.380824   -2.385874
    104          1           0        6.709181    1.221531   -0.139815
    105          1           0        6.316715    0.038339    0.877112
    106          1           0        7.182306   -1.564264   -0.684458
    107          1           0        7.781952   -0.339466   -1.774961
    108          1           0        8.913539    0.836370    0.296096
    109          1           0        8.799098   -0.905353    0.913480
    110          1           0       10.162394   -0.077709   -1.495649
    111          1           0        9.238587   -2.345473   -1.752316
    112          1           0       11.029368   -2.657438   -1.792048
    113          1           0       10.150998   -2.951922   -0.233767
    114          1           0       11.267610    0.642249    0.647464
    115          1           0       11.561710   -0.930697    1.078294
    116          1           0       12.730861   -1.704573   -0.908093
    117          1           0       12.688873    0.334551   -1.464695
    118          1           0       13.602691    1.040860    0.270022
    119          1           0       13.964321   -0.404271    1.271893
    120          1           0       15.200163    0.221211   -1.504013
    121          1           0       14.642181   -2.142176   -0.962009
    122          1           0       16.407496   -1.847198   -1.124601
    123          1           0       15.873123   -2.147285    0.664804
    124          1           0       16.008256    1.588403    0.354283
    125          1           0       16.509488    0.176532    1.436429
    126          1           0       18.246110   -0.386029   -0.297613
    127          1           0       17.788192    0.827347   -1.326560
    128          1           0       18.041382    2.690278    0.751463
    129          1           0       18.939457    1.104486    1.612774
    130          1           0       20.574963    0.652369   -0.149137
    131          1           0       20.072975    3.404484   -1.239832
    132          1           0       21.304975    2.130117   -1.598942
    133          1           0       19.514664    1.702797   -2.045653
    134          1           0       21.293071    1.926475    1.972843
    135          1           0       22.057028    2.597531    0.510830
    136          1           0       20.563781    3.499875    1.045086
    137          1           0       -6.954119    1.601192    0.168490
    138          1           0       -7.712720   -0.264528   -0.179647
 ---------------------------------------------------------------------

 SCF Done:  E(RB3LYP) =  -2732.93860021     A.U. after   17 cycles

 Excitation energies and oscillator strengths:

 Excited State   1:      Singlet-A      2.0721 eV  598.35 nm  f=0.1768  <S**2>=0.000
     235 -> 237       -0.20837
     235 -> 238       -0.30752
     236 -> 237        0.58962
 This state for optimization and/or second-order correction.
 Total Energy, E(TD-HF/TD-DFT) =  -2732.86245238
 Copying the excited state density for this state as the 1-particle RhoCI density.

 The electronic state is 1-A.
 Alpha  occ. eigenvalues --  -19.17579 -19.16074 -19.13801 -19.12480 -19.12120
 Alpha  occ. eigenvalues --  -14.38754 -14.37589 -14.32633 -14.30264 -10.31723
 Alpha  occ. eigenvalues --  -10.31500 -10.28312 -10.25856 -10.25454 -10.25264
 Alpha  occ. eigenvalues --  -10.25196 -10.24115 -10.23836 -10.23323 -10.22878
 Alpha  occ. eigenvalues --  -10.22770 -10.22574 -10.22410 -10.22071 -10.22000
 Alpha  occ. eigenvalues --  -10.21905 -10.21904 -10.21890 -10.21768 -10.21751
 Alpha  occ. eigenvalues --  -10.21675 -10.21629 -10.21514 -10.21445 -10.21221
 Alpha  occ. eigenvalues --  -10.21219 -10.21183 -10.21019 -10.20651 -10.20520
 Alpha  occ. eigenvalues --  -10.20390 -10.20388 -10.20338 -10.19967 -10.19925
 Alpha  occ. eigenvalues --  -10.19759 -10.19374 -10.19040 -10.19020 -10.18990
 Alpha  occ. eigenvalues --  -10.18735 -10.18726 -10.18524 -10.18400 -10.18371
 Alpha  occ. eigenvalues --  -10.18342 -10.18293 -10.18202 -10.18120 -10.18076
 Alpha  occ. eigenvalues --  -10.18069 -10.17951 -10.17625 -10.17360  -1.09357
 Alpha  occ. eigenvalues --   -1.08213  -1.00931  -1.00596  -0.99157  -0.98411
 Alpha  occ. eigenvalues --   -0.97912  -0.95316  -0.94661  -0.85794  -0.82775
 Alpha  occ. eigenvalues --   -0.82135  -0.82051  -0.81596  -0.81512  -0.80780
 Alpha  occ. eigenvalues --   -0.80210  -0.80041  -0.79832  -0.78425  -0.77917
 Alpha  occ. eigenvalues --   -0.77054  -0.75696  -0.75395  -0.74859  -0.74176
 Alpha  occ. eigenvalues --   -0.73399  -0.72858  -0.72309  -0.72116  -0.70915
 Alpha  occ. eigenvalues --   -0.70222  -0.68577  -0.67865  -0.67504  -0.66593
 Alpha  occ. eigenvalues --   -0.66441  -0.66373  -0.66142  -0.65608  -0.64958
 Alpha  occ. eigenvalues --   -0.64603  -0.63601  -0.62813  -0.62089  -0.61107
 Alpha  occ. eigenvalues --   -0.60714  -0.59248  -0.59054  -0.58674  -0.57765
 Alpha  occ. eigenvalues --   -0.56888  -0.55671  -0.55484  -0.55297  -0.54892
 Alpha  occ. eigenvalues --   -0.54580  -0.54131  -0.53714  -0.53486  -0.53002
 Alpha  occ. eigenvalues --   -0.52905  -0.52111  -0.51954  -0.51259  -0.50689
 Alpha  occ. eigenvalues --   -0.50492  -0.49640  -0.48493  -0.48051  -0.47966
 Alpha  occ. eigenvalues --   -0.47656  -0.47183  -0.47061  -0.46964  -0.46699
 Alpha  occ. eigenvalues --   -0.46345  -0.46246  -0.46176  -0.46047  -0.45645
 Alpha  occ. eigenvalues --   -0.45605  -0.45373  -0.45121  -0.44863  -0.44827
 Alpha  occ. eigenvalues --   -0.44769  -0.44258  -0.44026  -0.43838  -0.43395
 Alpha  occ. eigenvalues --   -0.43232  -0.42977  -0.42793  -0.42610  -0.42433
 Alpha  occ. eigenvalues --   -0.42260  -0.42099  -0.41784  -0.41632  -0.41493
 Alpha  occ. eigenvalues --   -0.41322  -0.40942  -0.40820  -0.40803  -0.40347
 Alpha  occ. eigenvalues --   -0.40237  -0.40151  -0.39905  -0.39606  -0.39415
 Alpha  occ. eigenvalues --   -0.39290  -0.39267  -0.39028  -0.38774  -0.38669
 Alpha  occ. eigenvalues --   -0.38304  -0.37952  -0.37919  -0.37544  -0.37264
 Alpha  occ. eigenvalues --   -0.37177  -0.36729  -0.36676  -0.36629  -0.36391
 Alpha  occ. eigenvalues --   -0.36151  -0.35935  -0.35914  -0.35762  -0.35679
 Alpha  occ. eigenvalues --   -0.35479  -0.35324  -0.35255  -0.34979  -0.34594
 Alpha  occ. eigenvalues --   -0.34552  -0.33796  -0.33771  -0.33608  -0.33310
 Alpha  occ. eigenvalues --   -0.33207  -0.33108  -0.32789  -0.32494  -0.32456
 Alpha  occ. eigenvalues --   -0.31988  -0.31642  -0.31510  -0.31365  -0.31206
 Alpha  occ. eigenvalues --   -0.30939  -0.30857  -0.30692  -0.30055  -0.29863
 Alpha  occ. eigenvalues --   -0.29220  -0.28583  -0.28353  -0.28066  -0.27848
 Alpha  occ. eigenvalues --   -0.27579  -0.27119  -0.26965  -0.26743  -0.25482
 Alpha  occ. eigenvalues --   -0.25012  -0.24963  -0.24625  -0.23330  -0.20142
 Alpha  occ. eigenvalues --   -0.19930
 Alpha virt. eigenvalues --   -0.11196  -0.08206  -0.05027  -0.03105  -0.01412
 Alpha virt. eigenvalues --   -0.00890  -0.00173   0.00183   0.01493   0.02847
 Alpha virt. eigenvalues --    0.03436   0.03701   0.03743   0.03966   0.04263

 Mulliken charges:
               1
     1  C    0.054582
     2  C   -0.055400
     3  C   -0.079036
     4  C   -0.087973
     5  N   -0.184670
     6  C   -0.096121
     7  C   -0.056608
     8  C    0.033664
     9  C   -0.040567
    10  C    0.092396
    11  C    0.086131
    12  C   -0.110654
    13  C    0.184877
    14  O   -0.228970
    15  O   -0.328801
    16  N   -0.106869
    17  C    0.041808
    18  C   -0.042826
    19  C   -0.014257
    20  C    0.094865
    21  C    0.006308
    22  C   -0.034932
    23  C   -0.043246
    24  N   -0.227947
    25  C    0.032719
    26  C   -0.061868
    27  C   -0.082321
    28  C    0.053912
    29  C    0.007061
    30  C   -0.034489
    31  C    0.052667
    32  N   -0.105660
    33  C    0.117937
    34  C   -0.145030
    35  C    0.060808
    36  C    0.071318
    37  C    0.017100
    38  C    0.075539
    39  O   -0.240003
    40  C   -0.061939
    41  C    0.227412
    42  O   -0.185668
    43  O   -0.349530
    44  C    0.083291
    45  C    0.250120
    46  C   -0.126601
    47  C   -0.142385
    48  C    0.136573
    49  C    0.160553
    50  C   -0.028883
    51  C   -0.012855
    52  C    0.048221
    53  C   -0.006587
    54  C   -0.045960
    55  C   -0.010222
    56  C    0.002793
    57  C   -0.078276
    58  C    0.038978
    59  C    0.025458
    60  C    0.082882
    61  C   -0.072997
    62  C   -0.043089
    63  C   -0.015243
    64  C    0.014539
    65  H   -0.018472
    66  H    0.028686
    67  H    0.019861
    68  H    0.034500
    69  H   -0.048578
    70  H   -0.001749
    71  H    0.021123
    72  H    0.077052
    73  H    0.008343
    74  H    0.047336
    75  H    0.057815
    76  H    0.060981
    77  H    0.054343
    78  H    0.010115
    79  H    0.036282
    80  H    0.002484
    81  H    0.045030
    82  H    0.027960
    83  H    0.046213
    84  H    0.021132
    85  H    0.023715
    86  H    0.012405
    87  H    0.010469
    88  H   -0.013323
    89  H    0.015874
    90  H   -0.010557
    91  H    0.026851
    92  H    0.051556
    93  H    0.093291
    94  H    0.078816
    95  H    0.054066
    96  H    0.038774
    97  H    0.046488
    98  H    0.033433
    99  H    0.037563
   100  H    0.046460
   101  H    0.043158
   102  H    0.072479
   103  H   -0.112452
   104  H   -0.068915
   105  H   -0.007437
   106  H   -0.000759
   107  H   -0.018193
   108  H    0.011322
   109  H   -0.026279
   110  H   -0.041741
   111  H    0.017769
   112  H    0.029211
   113  H    0.022282
   114  H   -0.013741
   115  H   -0.023495
   116  H    0.041978
   117  H    0.013577
   118  H   -0.004232
   119  H   -0.013077
   120  H    0.006435
   121  H    0.014394
   122  H    0.004096
   123  H    0.035409
   124  H    0.000190
   125  H   -0.002007
   126  H   -0.036224
   127  H   -0.008592
   128  H   -0.004071
   129  H    0.002418
   130  H   -0.026687
   131  H    0.010153
   132  H   -0.000153
   133  H    0.029614
   134  H    0.022910
   135  H   -0.002715
   136  H    0.029892
   137  H    0.213282
   138  H    0.147829
 Sum of Mulliken charges =  -0.00000

 Dipole moment (field-independent basis, Debye):
    X=              1.4858    Y=              5.7645    Z=              0.5781  Tot=              5.9810
 Quadrupole moment (field-independent basis, Debye-Ang):
   XX=           -348.7998   YY=           -394.6257   ZZ=           -398.5639
   XY=            -38.2412   XZ=              6.9726   YZ=              2.1311

 Normal termination of Gaussian 16 at Sun Aug 11 21:04:43 2019.
