 Gaussian 16, Revision A.03,
 Gaussian 16:  ES64L-G16RevA.03 25-Dec-2016

 --------------------------
 # td=(NStates=1) B3LYP/SVP
 --------------------------

 --
 TD
 --
 Symbolic Z-matrix:
 Charge =  0 Multiplicity = 1

                         Standard orientation:
 ---------------------------------------------------------------------
 Center     Atomic      Atomic             Coordinates (Angstroms)
 Number     Number       Type             X           Y           Z
 ---------------------------------------------------------------------
      1          6           0       -5.158169   -1.900093    0.370897
      2          6           0       -4.617616    2.742922    1.283405
      3          6           0       -9.269973    3.450656   -0.291748
      4          6           0       -9.796283   -1.199375   -0.954279
      5          7           0       -5.105993    0.404929    0.802279
      6          6           0       -4.444894   -0.763162    0.803835
      7          6           0       -3.044909   -0.644472    1.261462
      8          6           0       -3.014761    0.752000    1.847059
      9          6           0       -4.325964    1.409598    1.258123
     10          6           0       -2.962995    0.857212    3.453099
     11          6           0       -1.963277   -0.988400    0.129035
     12          6           0       -0.552114   -0.952423    0.642862
     13          6           0        0.436700   -1.210413   -0.506344
     14          8           0        0.101971   -1.592895   -1.596176
     15          8           0        1.638295   -0.993651   -0.150281
     16          7           0       -7.049248    2.731691    0.547120
     17          6           0       -5.850448    3.402184    0.979481
     18          6           0       -6.032950    4.772940    1.093151
     19          6           0       -7.368520    4.953128    0.526354
     20          6           0       -8.041189    3.665614    0.144685
     21          6           0       -5.086624    5.807262    1.468390
     22          6           0       -7.911776    6.290850    0.378620
     23          6           0       -8.940512    6.687095   -0.438302
     24          7           0       -9.138870    1.075918   -0.524283
     25          6           0       -9.846167    2.275393   -0.473791
     26          6           0      -11.245306    2.001248   -0.922547
     27          6           0      -11.421876    0.691101   -1.131074
     28          6           0      -10.148406    0.143096   -0.839979
     29          6           0      -12.204634    3.160987   -1.146468
     30          6           0      -12.653842   -0.105584   -1.638827
     31          6           0      -12.547612   -0.482462   -3.144154
     32          7           0       -7.478565   -1.163015   -0.235477
     33          6           0       -8.624654   -1.878451   -0.638331
     34          6           0       -8.257571   -3.330199   -0.620837
     35          6           0       -6.913220   -3.364097   -0.204947
     36          6           0       -6.443084   -2.040456    0.100282
     37          6           0       -9.070822   -4.497888   -1.041483
     38          6           0       -5.858028   -4.306875   -0.008630
     39          8           0       -5.763120   -5.419873   -0.154216
     40          6           0       -4.562585   -3.369415    0.423917
     41          6           0       -4.011570   -3.916554    1.689976
     42          8           0       -4.306626   -3.569171    2.825249
     43          8           0       -3.175847   -4.902726    1.458312
     44          6           0       -2.731855   -5.629501    2.554071
     45          6           0        2.751047   -1.133183   -1.179926
     46          6           0        3.930370   -0.785165   -0.539567
     47          6           0        4.959225   -0.065225   -0.954644
     48          6           0        4.908825    0.737593   -2.268714
     49          6           0        6.249525    0.037828   -0.113653
     50          6           0        7.494575   -0.489497   -0.844310
     51          6           0        8.773627   -0.368949   -0.055363
     52          6           0       10.036994   -0.799979   -0.823290
     53          6           0       10.031698   -2.343213   -1.031444
     54          6           0       11.290613   -0.390964   -0.047472
     55          6           0       12.685414   -0.638111   -0.710015
     56          6           0       13.728031    0.045215    0.088415
     57          6           0       15.218450   -0.123322   -0.474626
     58          6           0       15.565238   -1.555950   -0.562999
     59          6           0       16.152142    0.709939    0.419560
     60          6           0       17.568384    0.897065   -0.277752
     61          6           0       18.601167    1.603627    0.713975
     62          6           0       20.008943    1.719606    0.134860
     63          6           0       20.111416    2.315035   -1.270061
     64          6           0       20.789189    2.627527    1.135172
     65          1           0       -3.921220    3.492933    1.782474
     66          1           0       -9.831728    4.405544   -0.477527
     67          1           0      -10.759740   -1.786069   -1.124588
     68          1           0       -2.719207   -1.328681    2.012685
     69          1           0       -2.106847    1.147590    1.423087
     70          1           0       -2.186286    0.283994    3.922099
     71          1           0       -3.166560    1.952144    3.797865
     72          1           0       -3.655658    0.069062    3.862020
     73          1           0       -2.225666   -2.107956   -0.304553
     74          1           0       -2.089372   -0.339911   -0.703561
     75          1           0       -0.236608   -0.147781    1.219667
     76          1           0       -0.289415   -1.642341    1.468489
     77          1           0       -4.110755    5.927001    0.627006
     78          1           0       -5.361962    6.830225    1.439980
     79          1           0       -4.788318    5.603336    2.592540
     80          1           0       -7.754477    6.852399    1.217321
     81          1           0       -9.434117    5.802388   -1.266509
     82          1           0       -9.441121    7.617545   -0.489258
     83          1           0      -12.487567    3.894738   -0.357513
     84          1           0      -11.776640    3.809669   -2.019388
     85          1           0      -13.281500    2.794049   -1.577492
     86          1           0      -12.838241   -0.915646   -0.982050
     87          1           0      -13.622040    0.537085   -1.543048
     88          1           0      -12.190945    0.519409   -3.638321
     89          1           0      -11.819247   -1.233166   -3.328899
     90          1           0      -13.601630   -0.664934   -3.650712
     91          1           0      -10.018835   -4.586209   -0.517987
     92          1           0       -9.365553   -4.291456   -2.168589
     93          1           0       -8.518768   -5.339574   -1.208789
     94          1           0       -3.970449   -3.436723   -0.427677
     95          1           0       -1.947764   -6.324201    2.304500
     96          1           0       -2.112544   -4.973181    3.251256
     97          1           0       -3.488284   -6.333542    2.877503
     98          1           0        2.664608   -2.162413   -1.513320
     99          1           0        2.497909   -0.636738   -2.040801
    100          1           0        4.470375   -1.389807    0.396537
    101          1           0        5.282701    1.817363   -2.080069
    102          1           0        5.626865    0.310181   -3.004644
    103          1           0        4.035996    0.708147   -2.775358
    104          1           0        6.407826    1.129567    0.051107
    105          1           0        6.102844   -0.339967    0.795701
    106          1           0        7.231850   -1.569996   -1.133469
    107          1           0        7.509770   -0.070813   -1.925368
    108          1           0        9.078508    0.715750    0.077501
    109          1           0        8.712920   -0.609470    0.911311
    110          1           0        9.907543   -0.334061   -1.780088
    111          1           0        9.270067   -2.730019   -1.658104
    112          1           0       11.053069   -2.705244   -1.413646
    113          1           0        9.869693   -2.863856   -0.073997
    114          1           0       11.244253    0.610266    0.340056
    115          1           0       11.455120   -0.976215    0.963815
    116          1           0       12.941729   -1.699941   -0.661470
    117          1           0       12.818528   -0.127066   -1.693475
    118          1           0       13.564071    1.103990    0.138087
    119          1           0       13.791016   -0.339538    1.167936
    120          1           0       14.936463    0.164164   -1.496765
    121          1           0       14.620258   -2.011205   -0.958994
    122          1           0       16.533235   -1.826289   -0.905837
    123          1           0       15.580637   -1.859221    0.458421
    124          1           0       15.754874    1.658613    0.564751
    125          1           0       16.254902    0.420394    1.371776
    126          1           0       18.025575   -0.165241   -0.595616
    127          1           0       17.398077    1.367468   -1.268372
    128          1           0       18.091056    2.658715    0.931388
    129          1           0       18.423317    1.341176    1.733106
    130          1           0       20.324696    0.590456    0.359536
    131          1           0       19.585951    3.220166   -1.255592
    132          1           0       21.186277    2.188669   -1.457985
    133          1           0       19.852937    1.809860   -2.245208
    134          1           0       21.063953    2.146317    2.134334
    135          1           0       21.813927    2.880199    0.608846
    136          1           0       20.220128    3.536781    1.191154
    137          1           0       -7.343207    1.738399    0.431607
    138          1           0       -7.494106   -0.207459   -0.362039
 ---------------------------------------------------------------------

 SCF Done:  E(RB3LYP) =  -2733.11008771     A.U. after   16 cycles

 Excitation energies and oscillator strengths:

 Excited State   1:      Singlet-A      2.0298 eV  610.81 nm  f=0.1663  <S**2>=0.000
     235 -> 237       -0.18789
     235 -> 238        0.29875
     236 -> 237        0.59377
     236 -> 238        0.14695
 This state for optimization and/or second-order correction.
 Total Energy, E(TD-HF/TD-DFT) =  -2733.03549278
 Copying the excited state density for this state as the 1-particle RhoCI density.

 The electronic state is 1-A.
 Alpha  occ. eigenvalues --  -19.17502 -19.17315 -19.13107 -19.10639 -19.10585
 Alpha  occ. eigenvalues --  -14.35924 -14.35901 -14.31350 -14.29971 -10.30552
 Alpha  occ. eigenvalues --  -10.30107 -10.27481 -10.24833 -10.24003 -10.23878
 Alpha  occ. eigenvalues --  -10.23839 -10.22858 -10.22809 -10.22540 -10.22535
 Alpha  occ. eigenvalues --  -10.22188 -10.21846 -10.20975 -10.20969 -10.20792
 Alpha  occ. eigenvalues --  -10.20693 -10.20549 -10.20463 -10.20267 -10.20181
 Alpha  occ. eigenvalues --  -10.20171 -10.20122 -10.19987 -10.19841 -10.19772
 Alpha  occ. eigenvalues --  -10.19658 -10.19592 -10.19559 -10.19532 -10.19520
 Alpha  occ. eigenvalues --  -10.19405 -10.19388 -10.19294 -10.19277 -10.19248
 Alpha  occ. eigenvalues --  -10.19196 -10.19127 -10.19086 -10.19034 -10.19012
 Alpha  occ. eigenvalues --  -10.18984 -10.18939 -10.18643 -10.18515 -10.18459
 Alpha  occ. eigenvalues --  -10.18428 -10.18370 -10.18207 -10.18082 -10.17952
 Alpha  occ. eigenvalues --  -10.17746 -10.17564 -10.16682 -10.16296  -1.10644
 Alpha  occ. eigenvalues --   -1.10357  -1.08448  -0.99751  -0.99131  -0.96740
 Alpha  occ. eigenvalues --   -0.94906  -0.94079  -0.92258  -0.84631  -0.83866
 Alpha  occ. eigenvalues --   -0.82541  -0.81933  -0.81327  -0.80731  -0.80483
 Alpha  occ. eigenvalues --   -0.80218  -0.80063  -0.78865  -0.78369  -0.78193
 Alpha  occ. eigenvalues --   -0.76607  -0.76275  -0.75675  -0.75120  -0.74622
 Alpha  occ. eigenvalues --   -0.73525  -0.73415  -0.72443  -0.72174  -0.70429
 Alpha  occ. eigenvalues --   -0.69875  -0.69287  -0.69192  -0.68703  -0.68131
 Alpha  occ. eigenvalues --   -0.67271  -0.67093  -0.66760  -0.65977  -0.65947
 Alpha  occ. eigenvalues --   -0.64032  -0.62862  -0.62781  -0.61529  -0.61449
 Alpha  occ. eigenvalues --   -0.61065  -0.59472  -0.58427  -0.58026  -0.57658
 Alpha  occ. eigenvalues --   -0.57042  -0.56899  -0.56761  -0.56027  -0.55653
 Alpha  occ. eigenvalues --   -0.55623  -0.54705  -0.54486  -0.53765  -0.52748
 Alpha  occ. eigenvalues --   -0.52325  -0.51861  -0.51600  -0.51239  -0.50659
 Alpha  occ. eigenvalues --   -0.50225  -0.49785  -0.49552  -0.49298  -0.48848
 Alpha  occ. eigenvalues --   -0.48227  -0.47881  -0.47828  -0.47492  -0.47183
 Alpha  occ. eigenvalues --   -0.46757  -0.46517  -0.46410  -0.46200  -0.46135
 Alpha  occ. eigenvalues --   -0.45625  -0.45290  -0.44949  -0.44699  -0.44637
 Alpha  occ. eigenvalues --   -0.44431  -0.44241  -0.44189  -0.44160  -0.43858
 Alpha  occ. eigenvalues --   -0.43676  -0.43476  -0.43313  -0.42963  -0.42633
 Alpha  occ. eigenvalues --   -0.42429  -0.42185  -0.41864  -0.41816  -0.41565
 Alpha  occ. eigenvalues --   -0.40931  -0.40705  -0.40651  -0.40576  -0.40439
 Alpha  occ. eigenvalues --   -0.40355  -0.40304  -0.40138  -0.39785  -0.39711
 Alpha  occ. eigenvalues --   -0.39467  -0.39348  -0.39079  -0.38806  -0.38720
 Alpha  occ. eigenvalues --   -0.38250  -0.38061  -0.37878  -0.37327  -0.37300
 Alpha  occ. eigenvalues --   -0.37133  -0.37059  -0.36807  -0.36559  -0.36385
 Alpha  occ. eigenvalues --   -0.36080  -0.36039  -0.35857  -0.35797  -0.35449
 Alpha  occ. eigenvalues --   -0.35160  -0.35075  -0.34841  -0.34704  -0.34179
 Alpha  occ. eigenvalues --   -0.34108  -0.33921  -0.33781  -0.33748  -0.33474
 Alpha  occ. eigenvalues --   -0.33386  -0.33003  -0.32913  -0.32833  -0.32622
 Alpha  occ. eigenvalues --   -0.32603  -0.32055  -0.31951  -0.31548  -0.31509
 Alpha  occ. eigenvalues --   -0.31289  -0.30474  -0.30370  -0.30138  -0.29983
 Alpha  occ. eigenvalues --   -0.29467  -0.29091  -0.28536  -0.27538  -0.27424
 Alpha  occ. eigenvalues --   -0.27240  -0.26847  -0.26535  -0.26178  -0.25866
 Alpha  occ. eigenvalues --   -0.25501  -0.24640  -0.23246  -0.22749  -0.19801
 Alpha  occ. eigenvalues --   -0.18526
 Alpha virt. eigenvalues --   -0.10019  -0.07817  -0.04039  -0.01372  -0.00772
 Alpha virt. eigenvalues --    0.00807   0.01170   0.02187   0.02732   0.03930
 Alpha virt. eigenvalues --    0.04016   0.04079   0.04714   0.04838   0.05170

 Mulliken charges:
               1
     1  C   -0.003858
     2  C   -0.075200
     3  C   -0.125655
     4  C   -0.090413
     5  N   -0.151962
     6  C   -0.042607
     7  C   -0.007683
     8  C    0.002601
     9  C    0.022656
    10  C    0.053904
    11  C    0.030279
    12  C    0.061800
    13  C    0.131758
    14  O   -0.253052
    15  O   -0.282895
    16  N   -0.153940
    17  C    0.118105
    18  C   -0.083448
    19  C   -0.013700
    20  C    0.143892
    21  C    0.027246
    22  C   -0.012166
    23  C   -0.092915
    24  N   -0.312823
    25  C    0.123349
    26  C   -0.093559
    27  C   -0.068842
    28  C    0.031467
    29  C    0.003800
    30  C    0.069291
    31  C   -0.025368
    32  N   -0.053495
    33  C    0.089413
    34  C   -0.128224
    35  C   -0.024640
    36  C    0.145415
    37  C    0.149677
    38  C    0.004052
    39  O   -0.060534
    40  C   -0.053238
    41  C    0.219540
    42  O   -0.252881
    43  O   -0.258480
    44  C    0.197280
    45  C    0.347683
    46  C   -0.064870
    47  C   -0.220912
    48  C    0.103458
    49  C    0.165164
    50  C   -0.025958
    51  C    0.094678
    52  C    0.001461
    53  C    0.028388
    54  C    0.001439
    55  C    0.074482
    56  C   -0.079567
    57  C   -0.077928
    58  C    0.106776
    59  C    0.152978
    60  C   -0.011906
    61  C    0.002811
    62  C   -0.097332
    63  C    0.056455
    64  C    0.013089
    65  H   -0.006926
    66  H   -0.018745
    67  H   -0.012088
    68  H   -0.023536
    69  H   -0.018830
    70  H   -0.005472
    71  H    0.046762
    72  H    0.014244
    73  H    0.047967
    74  H    0.002052
    75  H   -0.015914
    76  H    0.008051
    77  H    0.053918
    78  H    0.003744
    79  H    0.049602
    80  H   -0.005897
    81  H    0.051087
    82  H    0.020174
    83  H    0.037671
    84  H    0.031130
    85  H    0.020161
    86  H    0.003705
    87  H    0.006958
    88  H    0.027336
    89  H    0.018741
    90  H    0.032434
    91  H    0.035476
    92  H    0.024391
    93  H    0.000526
    94  H    0.024301
    95  H   -0.002559
    96  H    0.030814
    97  H    0.029949
    98  H    0.020997
    99  H   -0.012266
   100  H    0.013700
   101  H    0.029730
   102  H    0.020648
   103  H   -0.025580
   104  H   -0.001803
   105  H   -0.047792
   106  H    0.001298
   107  H    0.003458
   108  H   -0.018810
   109  H   -0.050998
   110  H   -0.019524
   111  H   -0.003901
   112  H    0.014571
   113  H   -0.004822
   114  H   -0.022384
   115  H   -0.004242
   116  H    0.023903
   117  H   -0.002408
   118  H   -0.015251
   119  H   -0.015151
   120  H   -0.026241
   121  H   -0.003936
   122  H    0.004156
   123  H   -0.037012
   124  H   -0.043662
   125  H   -0.052166
   126  H   -0.000524
   127  H    0.004058
   128  H   -0.032246
   129  H   -0.021952
   130  H    0.014995
   131  H    0.010264
   132  H    0.011853
   133  H    0.011408
   134  H    0.028618
   135  H    0.007029
   136  H    0.003057
   137  H    0.155830
   138  H    0.097533
 Sum of Mulliken charges =  -0.00000

 Dipole moment (field-independent basis, Debye):
    X=              3.5959    Y=              3.1021    Z=             -0.0350  Tot=              4.7492
 Quadrupole moment (field-independent basis, Debye-Ang):
   XX=           -344.3383   YY=           -377.9423   ZZ=           -394.3903
   XY=            -12.2311   XZ=             11.7657   YZ=              2.1750

 Normal termination of Gaussian 16 at Sat Aug 24 17:48:14 2019.
