 Gaussian 16, Revision A.03,
 Gaussian 16:  ES64L-G16RevA.03 25-Dec-2016

 --------------------------
 # td=(NStates=1) B3LYP/SVP
 --------------------------

 --
 TD
 --
 Symbolic Z-matrix:
 Charge =  0 Multiplicity = 1

                         Standard orientation:
 ---------------------------------------------------------------------
 Center     Atomic      Atomic             Coordinates (Angstroms)
 Number     Number       Type             X           Y           Z
 ---------------------------------------------------------------------
      1          6           0       -5.204000   -1.881545    0.345045
      2          6           0       -4.825629    2.805642    1.493271
      3          6           0       -9.339251    3.343170   -0.319387
      4          6           0       -9.949103   -1.435535   -0.960873
      5          7           0       -5.186015    0.527530    0.711292
      6          6           0       -4.476696   -0.693631    0.782393
      7          6           0       -3.102861   -0.516554    1.335111
      8          6           0       -3.118084    0.857479    1.758519
      9          6           0       -4.446845    1.426618    1.250023
     10          6           0       -2.863868    1.123898    3.317690
     11          6           0       -1.951756   -0.961375    0.245844
     12          6           0       -0.491832   -0.740055    0.637229
     13          6           0        0.409935   -1.155870   -0.506994
     14          8           0        0.081632   -1.644547   -1.561230
     15          8           0        1.677979   -0.767290   -0.181416
     16          7           0       -7.133021    2.779353    0.555005
     17          6           0       -5.996056    3.384942    1.036865
     18          6           0       -6.258966    4.832312    1.067301
     19          6           0       -7.576010    5.002313    0.547962
     20          6           0       -8.163258    3.668458    0.213903
     21          6           0       -5.239740    5.784720    1.391286
     22          6           0       -8.159587    6.326768    0.327031
     23          6           0       -9.031600    6.742906   -0.695903
     24          7           0       -9.312307    0.870572   -0.516100
     25          6           0       -9.910060    2.047695   -0.514690
     26          6           0      -11.298590    1.831141   -0.932816
     27          6           0      -11.504830    0.521867   -1.235771
     28          6           0      -10.107187   -0.095238   -0.881351
     29          6           0      -12.320141    2.970883   -1.066800
     30          6           0      -12.788944   -0.168623   -1.651856
     31          6           0      -12.791776   -0.480062   -3.080603
     32          7           0       -7.573946   -1.266961   -0.205244
     33          6           0       -8.687333   -1.982801   -0.574375
     34          6           0       -8.326613   -3.409979   -0.557651
     35          6           0       -6.999518   -3.455602   -0.268143
     36          6           0       -6.515714   -2.098695   -0.002245
     37          6           0       -9.172278   -4.584258   -0.915949
     38          6           0       -5.830194   -4.326996    0.087787
     39          8           0       -5.721778   -5.509622    0.136323
     40          6           0       -4.677392   -3.281279    0.453628
     41          6           0       -3.926305   -3.685798    1.705949
     42          8           0       -3.993867   -3.253633    2.827318
     43          8           0       -3.092447   -4.743685    1.481847
     44          6           0       -2.552634   -5.438405    2.566313
     45          6           0        2.744054   -1.215575   -1.190067
     46          6           0        4.056252   -0.834779   -0.616611
     47          6           0        5.079417   -0.130581   -1.166483
     48          6           0        4.965670    0.412656   -2.630858
     49          6           0        6.352780    0.201560   -0.351387
     50          6           0        7.628764   -0.369829   -1.031837
     51          6           0        8.880833   -0.195992   -0.075347
     52          6           0       10.260202   -0.768267   -0.700531
     53          6           0       10.303062   -2.296001   -0.796762
     54          6           0       11.500788   -0.320153    0.172140
     55          6           0       12.737774   -0.667590   -0.554845
     56          6           0       13.904419   -0.090588    0.242012
     57          6           0       15.256359   -0.228761   -0.334587
     58          6           0       15.717751   -1.661994   -0.432053
     59          6           0       16.272074    0.673525    0.441873
     60          6           0       17.762423    0.733178   -0.244937
     61          6           0       18.614398    1.695221    0.614703
     62          6           0       20.121636    1.709164   -0.040123
     63          6           0       20.103887    2.230351   -1.398621
     64          6           0       20.856272    2.687816    1.018525
     65          1           0       -4.183210    3.499812    1.979351
     66          1           0      -10.026937    4.305291   -0.507462
     67          1           0      -10.776201   -2.053263   -1.285165
     68          1           0       -2.951385   -1.317863    2.162410
     69          1           0       -2.519924    1.612056    1.125894
     70          1           0       -1.645090    0.683456    3.646485
     71          1           0       -2.863785    2.179561    3.616146
     72          1           0       -3.687910    0.538420    3.785157
     73          1           0       -1.991040   -2.100413   -0.359396
     74          1           0       -2.110597   -0.225537   -0.497728
     75          1           0       -0.303132    0.186202    1.074446
     76          1           0       -0.416742   -1.475247    1.421324
     77          1           0       -4.306605    5.913315    0.758738
     78          1           0       -5.733398    6.722309    1.467704
     79          1           0       -4.757493    5.646107    2.368329
     80          1           0       -7.772379    7.189646    0.997340
     81          1           0       -9.437012    6.148086   -1.371946
     82          1           0       -9.360946    7.736853   -0.710098
     83          1           0      -12.251240    3.772939   -0.189937
     84          1           0      -12.139989    3.503666   -1.981151
     85          1           0      -13.210766    2.532633   -1.196910
     86          1           0      -12.693759   -1.262066   -1.272867
     87          1           0      -13.885093    0.237591   -1.480738
     88          1           0      -12.900692    0.305577   -3.827961
     89          1           0      -12.046725   -1.055404   -3.606462
     90          1           0      -13.647286   -1.109344   -3.345429
     91          1           0       -9.961573   -4.627131   -0.247625
     92          1           0       -9.642595   -4.666949   -1.869984
     93          1           0       -8.641634   -5.477579   -0.820113
     94          1           0       -3.915965   -3.581128   -0.363884
     95          1           0       -2.103735   -6.362996    1.945281
     96          1           0       -1.871018   -4.815162    3.193310
     97          1           0       -3.208818   -5.640757    3.470371
     98          1           0        2.455873   -2.345677   -1.371201
     99          1           0        2.570276   -0.548415   -2.101677
    100          1           0        4.245982   -1.334882    0.306227
    101          1           0        5.604183    1.352919   -2.776462
    102          1           0        5.512005   -0.188430   -3.375070
    103          1           0        3.906971    0.618467   -2.926945
    104          1           0        6.421273    1.246208   -0.218207
    105          1           0        6.343826   -0.270215    0.738351
    106          1           0        7.317462   -1.435353   -1.239571
    107          1           0        7.782623    0.027035   -2.176327
    108          1           0        9.109544    0.792102   -0.031971
    109          1           0        8.551158   -0.677407    0.893703
    110          1           0       10.216587   -0.398004   -1.756015
    111          1           0        9.556303   -2.718883   -1.202287
    112          1           0       11.271922   -2.571111   -1.011361
    113          1           0       10.339094   -2.638187    0.115867
    114          1           0       11.361527    0.780386    0.178054
    115          1           0       11.492041   -0.663281    1.228806
    116          1           0       12.896020   -1.680604   -0.491058
    117          1           0       12.808244   -0.267879   -1.597966
    118          1           0       13.631313    1.090339    0.484499
    119          1           0       13.913586   -0.461807    1.323104
    120          1           0       15.433957    0.217507   -1.254814
    121          1           0       14.833003   -2.215042   -1.180236
    122          1           0       16.670772   -1.677538   -0.747149
    123          1           0       15.825432   -2.185816    0.542036
    124          1           0       16.111779    1.827074    0.445492
    125          1           0       16.386223    0.240392    1.591289
    126          1           0       18.207108   -0.283414   -0.351822
    127          1           0       17.613432    1.205715   -1.166403
    128          1           0       18.388476    2.798527    0.552789
    129          1           0       18.515126    1.442540    1.562594
    130          1           0       20.556749    0.637241    0.264187
    131          1           0       19.636881    3.290382   -1.428779
    132          1           0       21.066940    2.220309   -1.729241
    133          1           0       19.267446    1.378433   -1.930979
    134          1           0       20.813018    2.412330    2.030207
    135          1           0       21.956192    2.843551    0.871368
    136          1           0       20.389557    3.644130    1.148827
    137          1           0       -7.232225    1.761058    0.653374
    138          1           0       -7.502745   -0.281833   -0.311767
 ---------------------------------------------------------------------

 SCF Done:  E(RB3LYP) =  -2733.06976848     A.U. after   17 cycles

 Excitation energies and oscillator strengths:

 Excited State   1:      Singlet-A      2.0552 eV  603.27 nm  f=0.1926  <S**2>=0.000
     235 -> 238       -0.29526
     236 -> 237        0.64168
 This state for optimization and/or second-order correction.
 Total Energy, E(TD-HF/TD-DFT) =  -2732.99424140
 Copying the excited state density for this state as the 1-particle RhoCI density.

 The electronic state is 1-A.
 Alpha  occ. eigenvalues --  -19.16777 -19.16771 -19.12631 -19.12612 -19.12284
 Alpha  occ. eigenvalues --  -14.37005 -14.36636 -14.32462 -14.29534 -10.31377
 Alpha  occ. eigenvalues --  -10.31250 -10.28310 -10.25851 -10.24848 -10.24061
 Alpha  occ. eigenvalues --  -10.24024 -10.23744 -10.23533 -10.23158 -10.23117
 Alpha  occ. eigenvalues --  -10.21935 -10.21823 -10.21622 -10.21558 -10.21549
 Alpha  occ. eigenvalues --  -10.21534 -10.21075 -10.21046 -10.21040 -10.20882
 Alpha  occ. eigenvalues --  -10.20830 -10.20726 -10.20712 -10.20554 -10.20395
 Alpha  occ. eigenvalues --  -10.20386 -10.20307 -10.20269 -10.20161 -10.20050
 Alpha  occ. eigenvalues --  -10.19949 -10.19784 -10.19402 -10.19308 -10.19294
 Alpha  occ. eigenvalues --  -10.19173 -10.18964 -10.18951 -10.18765 -10.18715
 Alpha  occ. eigenvalues --  -10.18612 -10.18608 -10.18318 -10.18238 -10.18195
 Alpha  occ. eigenvalues --  -10.17944 -10.17905 -10.17897 -10.17612 -10.17475
 Alpha  occ. eigenvalues --  -10.17420 -10.17028 -10.16906 -10.13850  -1.09465
 Alpha  occ. eigenvalues --   -1.07625  -1.04249  -1.00269  -0.99644  -0.98506
 Alpha  occ. eigenvalues --   -0.97122  -0.95741  -0.94740  -0.84869  -0.82706
 Alpha  occ. eigenvalues --   -0.81756  -0.81732  -0.81367  -0.81002  -0.80670
 Alpha  occ. eigenvalues --   -0.80544  -0.79636  -0.79522  -0.78980  -0.77723
 Alpha  occ. eigenvalues --   -0.76626  -0.76102  -0.75632  -0.74915  -0.74737
 Alpha  occ. eigenvalues --   -0.73851  -0.73041  -0.72812  -0.71920  -0.71220
 Alpha  occ. eigenvalues --   -0.70641  -0.68875  -0.68778  -0.68180  -0.68002
 Alpha  occ. eigenvalues --   -0.67391  -0.67119  -0.65927  -0.65672  -0.64996
 Alpha  occ. eigenvalues --   -0.64679  -0.63060  -0.62135  -0.61515  -0.61466
 Alpha  occ. eigenvalues --   -0.61003  -0.59061  -0.58571  -0.58300  -0.57202
 Alpha  occ. eigenvalues --   -0.57038  -0.56541  -0.56302  -0.55952  -0.55673
 Alpha  occ. eigenvalues --   -0.55336  -0.54443  -0.54288  -0.54137  -0.53179
 Alpha  occ. eigenvalues --   -0.53010  -0.52191  -0.51574  -0.50838  -0.50006
 Alpha  occ. eigenvalues --   -0.49708  -0.49349  -0.49175  -0.49055  -0.48236
 Alpha  occ. eigenvalues --   -0.48142  -0.47755  -0.47545  -0.47172  -0.46774
 Alpha  occ. eigenvalues --   -0.46639  -0.46287  -0.46133  -0.45969  -0.45819
 Alpha  occ. eigenvalues --   -0.45739  -0.45527  -0.45306  -0.45258  -0.44835
 Alpha  occ. eigenvalues --   -0.44526  -0.44164  -0.43906  -0.43821  -0.43599
 Alpha  occ. eigenvalues --   -0.43412  -0.43197  -0.43013  -0.42715  -0.42447
 Alpha  occ. eigenvalues --   -0.42352  -0.42110  -0.41880  -0.41658  -0.41438
 Alpha  occ. eigenvalues --   -0.41287  -0.41066  -0.40946  -0.40782  -0.40592
 Alpha  occ. eigenvalues --   -0.40347  -0.40013  -0.39858  -0.39820  -0.39676
 Alpha  occ. eigenvalues --   -0.39464  -0.39247  -0.39174  -0.39136  -0.38901
 Alpha  occ. eigenvalues --   -0.38374  -0.38317  -0.38220  -0.37973  -0.37847
 Alpha  occ. eigenvalues --   -0.37680  -0.37558  -0.37366  -0.37124  -0.37020
 Alpha  occ. eigenvalues --   -0.36587  -0.36364  -0.36266  -0.36200  -0.35712
 Alpha  occ. eigenvalues --   -0.35653  -0.35518  -0.35452  -0.35291  -0.35156
 Alpha  occ. eigenvalues --   -0.34699  -0.34668  -0.34528  -0.34304  -0.33683
 Alpha  occ. eigenvalues --   -0.33581  -0.33423  -0.32826  -0.32699  -0.32667
 Alpha  occ. eigenvalues --   -0.32532  -0.32191  -0.32140  -0.31613  -0.31194
 Alpha  occ. eigenvalues --   -0.30935  -0.30563  -0.30107  -0.30034  -0.29975
 Alpha  occ. eigenvalues --   -0.29404  -0.29078  -0.28451  -0.28372  -0.27641
 Alpha  occ. eigenvalues --   -0.27393  -0.26832  -0.26815  -0.25905  -0.25179
 Alpha  occ. eigenvalues --   -0.25094  -0.24924  -0.23378  -0.22727  -0.20212
 Alpha  occ. eigenvalues --   -0.18364
 Alpha virt. eigenvalues --   -0.09745  -0.07815  -0.04677  -0.01856  -0.01138
 Alpha virt. eigenvalues --   -0.00385   0.00552   0.01042   0.01689   0.03678
 Alpha virt. eigenvalues --    0.03894   0.03958   0.04265   0.04677   0.04865

 Mulliken charges:
               1
     1  C    0.150089
     2  C   -0.067162
     3  C   -0.135189
     4  C   -0.101756
     5  N   -0.158399
     6  C   -0.080974
     7  C    0.009639
     8  C   -0.022974
     9  C   -0.025632
    10  C   -0.008016
    11  C   -0.061587
    12  C    0.104016
    13  C    0.185597
    14  O   -0.229571
    15  O   -0.360451
    16  N   -0.095659
    17  C    0.100147
    18  C   -0.113193
    19  C    0.052994
    20  C    0.124660
    21  C    0.103863
    22  C   -0.117216
    23  C    0.033044
    24  N   -0.137034
    25  C    0.049745
    26  C   -0.193291
    27  C   -0.080319
    28  C    0.064109
    29  C    0.167901
    30  C    0.073910
    31  C   -0.010185
    32  N    0.000745
    33  C    0.073493
    34  C   -0.191784
    35  C    0.004441
    36  C   -0.036594
    37  C    0.194542
    38  C    0.094567
    39  O   -0.126715
    40  C   -0.126807
    41  C    0.179801
    42  O   -0.222216
    43  O   -0.293251
    44  C    0.147113
    45  C    0.242891
    46  C   -0.081428
    47  C   -0.116478
    48  C    0.031984
    49  C    0.084131
    50  C   -0.101264
    51  C    0.107795
    52  C   -0.138524
    53  C    0.269575
    54  C    0.011905
    55  C    0.121461
    56  C   -0.048626
    57  C    0.047071
    58  C    0.046951
    59  C   -0.104771
    60  C    0.027482
    61  C    0.024889
    62  C   -0.153519
    63  C    0.059860
    64  C    0.052500
    65  H   -0.051126
    66  H    0.019909
    67  H   -0.019761
    68  H    0.055206
    69  H    0.015677
    70  H    0.037121
    71  H    0.028565
    72  H    0.052106
    73  H    0.070319
    74  H   -0.008520
    75  H    0.011654
    76  H    0.015848
    77  H    0.041433
    78  H   -0.013890
    79  H    0.014662
    80  H    0.028758
    81  H   -0.016010
    82  H    0.012859
    83  H    0.033034
    84  H    0.003143
    85  H   -0.038200
    86  H    0.003863
    87  H    0.040460
    88  H   -0.010252
    89  H   -0.006476
    90  H   -0.016575
    91  H   -0.007012
    92  H    0.011812
    93  H    0.003453
    94  H    0.072172
    95  H    0.068139
    96  H    0.009863
    97  H    0.026852
    98  H    0.062173
    99  H    0.024164
   100  H   -0.020445
   101  H    0.009954
   102  H    0.031625
   103  H    0.038679
   104  H    0.001813
   105  H    0.014835
   106  H    0.013508
   107  H    0.013791
   108  H   -0.031144
   109  H    0.006727
   110  H   -0.006157
   111  H   -0.057332
   112  H   -0.046360
   113  H   -0.076957
   114  H   -0.013002
   115  H    0.005967
   116  H   -0.013291
   117  H    0.004406
   118  H   -0.009951
   119  H   -0.010840
   120  H   -0.042452
   121  H    0.036392
   122  H   -0.032242
   123  H   -0.001034
   124  H    0.018753
   125  H    0.006784
   126  H    0.017052
   127  H   -0.000637
   128  H   -0.004023
   129  H   -0.044259
   130  H    0.022721
   131  H    0.027621
   132  H    0.000746
   133  H    0.035065
   134  H   -0.026702
   135  H   -0.000246
   136  H   -0.020755
   137  H    0.148894
   138  H    0.124746
 Sum of Mulliken charges =  -0.00000

 Dipole moment (field-independent basis, Debye):
    X=              3.5776    Y=              4.2349    Z=              0.2094  Tot=              5.5477
 Quadrupole moment (field-independent basis, Debye-Ang):
   XX=           -347.6750   YY=           -382.2004   ZZ=           -395.0153
   XY=            -17.4631   XZ=             10.7253   YZ=              2.2086

 Normal termination of Gaussian 16 at Mon Aug 12 10:59:22 2019.
