 Gaussian 16, Revision A.03,
 Gaussian 16:  ES64L-G16RevA.03 25-Dec-2016

 --------------------------
 # td=(NStates=1) B3LYP/SVP
 --------------------------

 --
 TD
 --
 Symbolic Z-matrix:
 Charge =  0 Multiplicity = 1

                         Standard orientation:
 ---------------------------------------------------------------------
 Center     Atomic      Atomic             Coordinates (Angstroms)
 Number     Number       Type             X           Y           Z
 ---------------------------------------------------------------------
      1          6           0       -5.219361   -1.973621    0.428795
      2          6           0       -4.703198    2.771697    1.274557
      3          6           0       -9.280496    3.255989   -0.159451
      4          6           0       -9.904287   -1.445163   -0.957412
      5          7           0       -5.170483    0.480654    0.783926
      6          6           0       -4.504728   -0.731420    0.812170
      7          6           0       -3.003379   -0.603888    1.235165
      8          6           0       -3.026242    0.843352    1.887892
      9          6           0       -4.393447    1.409557    1.285071
     10          6           0       -3.021188    0.871072    3.337653
     11          6           0       -2.006509   -0.692270    0.090335
     12          6           0       -0.545458   -0.699907    0.511327
     13          6           0        0.351852   -0.914865   -0.620758
     14          8           0       -0.003331   -1.393432   -1.699238
     15          8           0        1.657228   -0.527777   -0.335563
     16          7           0       -6.936409    2.750959    0.394593
     17          6           0       -5.866943    3.434320    0.855414
     18          6           0       -6.079676    4.860520    0.793077
     19          6           0       -7.400204    4.967766    0.436845
     20          6           0       -7.937171    3.599175    0.175991
     21          6           0       -5.193110    5.838194    1.365451
     22          6           0       -8.224546    6.215476    0.328103
     23          6           0       -9.273481    6.506795   -0.542482
     24          7           0       -9.267003    0.802385   -0.403194
     25          6           0       -9.906262    2.032038   -0.524268
     26          6           0      -11.309383    1.813629   -0.717378
     27          6           0      -11.490110    0.482255   -0.922684
     28          6           0      -10.204733   -0.164391   -0.805147
     29          6           0      -12.337824    3.066439   -0.903132
     30          6           0      -12.717470   -0.263647   -1.403682
     31          6           0      -12.832860   -0.618541   -2.869009
     32          7           0       -7.574374   -1.279392   -0.169660
     33          6           0       -8.628749   -2.043045   -0.612932
     34          6           0       -8.219215   -3.393685   -0.625688
     35          6           0       -6.905068   -3.427351   -0.171097
     36          6           0       -6.510692   -2.108618    0.040730
     37          6           0       -9.049973   -4.650133   -1.100735
     38          6           0       -5.874279   -4.380373    0.005451
     39          8           0       -5.805998   -5.568553    0.230111
     40          6           0       -4.580415   -3.397278    0.408339
     41          6           0       -3.884124   -3.763055    1.692802
     42          8           0       -4.075732   -3.337107    2.791922
     43          8           0       -3.052432   -4.731462    1.515060
     44          6           0       -2.390742   -5.347465    2.535795
     45          6           0        2.692421   -0.900362   -1.192770
     46          6           0        4.094229   -0.399531   -0.614984
     47          6           0        5.033911    0.278347   -1.271918
     48          6           0        5.011106    0.554260   -2.840338
     49          6           0        6.311500    0.476086   -0.551069
     50          6           0        7.635094   -0.239146   -1.193244
     51          6           0        8.880515   -0.199339   -0.304397
     52          6           0       10.189451   -0.712685   -0.977450
     53          6           0        9.858452   -2.282691   -0.907888
     54          6           0       11.360559   -0.300864   -0.058646
     55          6           0       12.712843   -0.735579   -0.592876
     56          6           0       13.856479   -0.117542    0.250848
     57          6           0       15.250392   -0.327374   -0.224108
     58          6           0       15.622063   -1.710384   -0.548432
     59          6           0       16.263776    0.396854    0.714407
     60          6           0       17.700102    0.621122    0.066355
     61          6           0       18.601169    1.607217    0.803709
     62          6           0       20.003807    1.667526    0.280042
     63          6           0       20.081677    2.171343   -1.189485
     64          6           0       20.963911    2.465294    1.227098
     65          1           0       -3.722047    3.292304    1.609202
     66          1           0       -9.932264    4.178684   -0.326717
     67          1           0      -10.780205   -2.085613   -1.322173
     68          1           0       -2.738595   -1.288538    1.974646
     69          1           0       -2.082689    1.307505    1.341534
     70          1           0       -2.244152    0.450559    3.796517
     71          1           0       -3.136824    1.998915    3.506583
     72          1           0       -3.889959    0.399019    3.852665
     73          1           0       -2.254157   -1.730991   -0.373440
     74          1           0       -2.109262   -0.047578   -0.641514
     75          1           0       -0.152389    0.302150    1.045723
     76          1           0       -0.411987   -1.437561    1.209317
     77          1           0       -4.250668    5.871939    0.831554
     78          1           0       -5.592554    6.907142    1.182897
     79          1           0       -5.027789    5.771083    2.425197
     80          1           0       -7.900090    6.978757    1.146609
     81          1           0       -9.671567    5.765788   -1.317226
     82          1           0       -9.625605    7.503412   -0.802114
     83          1           0      -12.263400    3.844126    0.074639
     84          1           0      -11.960086    3.566549   -1.759460
     85          1           0      -13.379590    2.832958   -1.065016
     86          1           0      -12.950215   -1.276630   -0.831349
     87          1           0      -13.451288    0.397985   -1.001547
     88          1           0      -12.809101    0.184938   -3.473589
     89          1           0      -12.005327   -1.264955   -3.135819
     90          1           0      -13.864898   -0.978753   -3.101870
     91          1           0       -9.932114   -4.655367   -0.383883
     92          1           0       -9.363028   -4.505951   -2.229070
     93          1           0       -8.362520   -5.577517   -0.873762
     94          1           0       -3.689749   -3.503091   -0.250510
     95          1           0       -1.706227   -6.237495    2.139662
     96          1           0       -1.958680   -4.493887    3.200855
     97          1           0       -3.149204   -5.673043    3.485472
     98          1           0        2.622840   -2.038499   -1.339557
     99          1           0        2.437214   -0.433402   -2.132428
    100          1           0        4.301083   -0.746320    0.422648
    101          1           0        5.553960    1.589204   -3.026366
    102          1           0        5.499646   -0.101366   -3.420029
    103          1           0        4.108738    0.708524   -3.199879
    104          1           0        6.715568    1.399906   -0.187595
    105          1           0        6.221800   -0.081763    0.451999
    106          1           0        7.356828   -1.259904   -1.480595
    107          1           0        7.910751    0.135735   -2.031587
    108          1           0        9.101560    0.856044    0.076612
    109          1           0        8.559653   -0.786533    0.730810
    110          1           0       10.373625   -0.327111   -2.004756
    111          1           0        9.136570   -2.383085   -1.916437
    112          1           0       10.881518   -2.894866   -1.186752
    113          1           0        9.221558   -2.443062    0.092843
    114          1           0       11.544726    0.853742   -0.085076
    115          1           0       11.277607   -0.752088    0.940238
    116          1           0       12.652044   -1.852353   -0.549699
    117          1           0       13.013057   -0.342723   -1.592920
    118          1           0       13.762898    0.925282    0.411433
    119          1           0       13.811459   -0.590257    1.178489
    120          1           0       15.288066    0.169869   -1.151357
    121          1           0       15.008785   -2.208681   -1.362727
    122          1           0       16.476131   -1.811285   -0.971949
    123          1           0       15.738119   -2.439279    0.353335
    124          1           0       15.913814    1.394126    0.949464
    125          1           0       16.416183   -0.023974    1.654858
    126          1           0       18.347043   -0.329109   -0.037455
    127          1           0       17.626508    0.806367   -0.787107
    128          1           0       18.319713    2.810031    0.620188
    129          1           0       18.422559    1.341794    1.986446
    130          1           0       20.361180    0.672181    0.161238
    131          1           0       19.656498    3.185656   -1.327262
    132          1           0       21.033784    2.107923   -1.675507
    133          1           0       19.372189    1.786918   -1.912190
    134          1           0       21.132652    1.942791    2.170723
    135          1           0       21.838243    2.625848    0.778855
    136          1           0       20.450094    3.410992    1.353289
    137          1           0       -6.993274    1.739110    0.354038
    138          1           0       -7.524666   -0.201466   -0.140031
 ---------------------------------------------------------------------

 SCF Done:  E(RB3LYP) =  -2733.06551372     A.U. after   18 cycles

 Excitation energies and oscillator strengths:

 Excited State   1:      Singlet-A      2.0737 eV  597.88 nm  f=0.1690  <S**2>=0.000
     235 -> 237       -0.24490
     235 -> 238        0.29402
     236 -> 237        0.56846
     236 -> 238        0.16628
 This state for optimization and/or second-order correction.
 Total Energy, E(TD-HF/TD-DFT) =  -2732.98930585
 Copying the excited state density for this state as the 1-particle RhoCI density.

 The electronic state is 1-A.
 Alpha  occ. eigenvalues --  -19.17757 -19.17286 -19.12878 -19.12690 -19.10955
 Alpha  occ. eigenvalues --  -14.37691 -14.36954 -14.32888 -14.29475 -10.31935
 Alpha  occ. eigenvalues --  -10.30394 -10.28201 -10.26527 -10.25168 -10.24294
 Alpha  occ. eigenvalues --  -10.24222 -10.24041 -10.23546 -10.22770 -10.22714
 Alpha  occ. eigenvalues --  -10.22579 -10.21510 -10.21497 -10.21462 -10.21346
 Alpha  occ. eigenvalues --  -10.21178 -10.21138 -10.20825 -10.20778 -10.20741
 Alpha  occ. eigenvalues --  -10.20705 -10.20691 -10.20689 -10.20667 -10.20405
 Alpha  occ. eigenvalues --  -10.20345 -10.20160 -10.20111 -10.19981 -10.19925
 Alpha  occ. eigenvalues --  -10.19895 -10.19753 -10.19642 -10.19635 -10.19372
 Alpha  occ. eigenvalues --  -10.19297 -10.19278 -10.18941 -10.18606 -10.18604
 Alpha  occ. eigenvalues --  -10.18537 -10.18508 -10.18407 -10.18000 -10.17961
 Alpha  occ. eigenvalues --  -10.17581 -10.17569 -10.17559 -10.17479 -10.17432
 Alpha  occ. eigenvalues --  -10.16575 -10.16544 -10.16401 -10.16281  -1.12549
 Alpha  occ. eigenvalues --   -1.08488  -1.02988  -1.00774  -1.00444  -1.00388
 Alpha  occ. eigenvalues --   -0.98487  -0.94497  -0.92321  -0.84602  -0.82883
 Alpha  occ. eigenvalues --   -0.82655  -0.82335  -0.81795  -0.80838  -0.80715
 Alpha  occ. eigenvalues --   -0.80023  -0.79566  -0.79146  -0.78654  -0.78379
 Alpha  occ. eigenvalues --   -0.76621  -0.76379  -0.75851  -0.74669  -0.74186
 Alpha  occ. eigenvalues --   -0.73599  -0.73350  -0.72309  -0.71810  -0.71452
 Alpha  occ. eigenvalues --   -0.70339  -0.69150  -0.68993  -0.68453  -0.68321
 Alpha  occ. eigenvalues --   -0.67902  -0.67468  -0.66132  -0.65981  -0.64640
 Alpha  occ. eigenvalues --   -0.64026  -0.63132  -0.62754  -0.62319  -0.62190
 Alpha  occ. eigenvalues --   -0.61835  -0.60412  -0.58763  -0.57861  -0.57809
 Alpha  occ. eigenvalues --   -0.57388  -0.56558  -0.56216  -0.55978  -0.55776
 Alpha  occ. eigenvalues --   -0.55314  -0.54907  -0.54837  -0.53939  -0.53504
 Alpha  occ. eigenvalues --   -0.53120  -0.51991  -0.50920  -0.50744  -0.50182
 Alpha  occ. eigenvalues --   -0.49878  -0.49381  -0.49151  -0.49019  -0.48806
 Alpha  occ. eigenvalues --   -0.47971  -0.47920  -0.47522  -0.47273  -0.47230
 Alpha  occ. eigenvalues --   -0.46964  -0.46532  -0.46111  -0.45827  -0.45537
 Alpha  occ. eigenvalues --   -0.45415  -0.45089  -0.44987  -0.44936  -0.44749
 Alpha  occ. eigenvalues --   -0.44494  -0.44390  -0.44197  -0.43798  -0.43478
 Alpha  occ. eigenvalues --   -0.43425  -0.43140  -0.43044  -0.42985  -0.42833
 Alpha  occ. eigenvalues --   -0.42487  -0.42416  -0.42312  -0.41989  -0.41900
 Alpha  occ. eigenvalues --   -0.41623  -0.41504  -0.41229  -0.40892  -0.40488
 Alpha  occ. eigenvalues --   -0.40369  -0.40237  -0.40198  -0.40009  -0.39192
 Alpha  occ. eigenvalues --   -0.39066  -0.38788  -0.38696  -0.38686  -0.38404
 Alpha  occ. eigenvalues --   -0.38188  -0.37834  -0.37781  -0.37702  -0.37564
 Alpha  occ. eigenvalues --   -0.37539  -0.37202  -0.37015  -0.36955  -0.36632
 Alpha  occ. eigenvalues --   -0.36537  -0.36177  -0.36066  -0.35961  -0.35851
 Alpha  occ. eigenvalues --   -0.35561  -0.35503  -0.35177  -0.35097  -0.35079
 Alpha  occ. eigenvalues --   -0.34682  -0.34513  -0.34478  -0.34423  -0.33714
 Alpha  occ. eigenvalues --   -0.33650  -0.33607  -0.33417  -0.33039  -0.32808
 Alpha  occ. eigenvalues --   -0.32565  -0.32226  -0.32113  -0.31643  -0.31134
 Alpha  occ. eigenvalues --   -0.30654  -0.30491  -0.30090  -0.29979  -0.29798
 Alpha  occ. eigenvalues --   -0.29256  -0.28738  -0.28669  -0.28411  -0.28270
 Alpha  occ. eigenvalues --   -0.27813  -0.27256  -0.26562  -0.26424  -0.25928
 Alpha  occ. eigenvalues --   -0.25407  -0.24836  -0.24716  -0.22775  -0.19767
 Alpha  occ. eigenvalues --   -0.18906
 Alpha virt. eigenvalues --   -0.10254  -0.07797  -0.05098  -0.02815  -0.00997
 Alpha virt. eigenvalues --   -0.00157   0.00187   0.01144   0.01907   0.03649
 Alpha virt. eigenvalues --    0.03938   0.04242   0.04742   0.04832   0.05133

 Mulliken charges:
               1
     1  C    0.000741
     2  C   -0.064889
     3  C   -0.068611
     4  C   -0.115730
     5  N   -0.167619
     6  C   -0.046112
     7  C    0.016726
     8  C   -0.110108
     9  C   -0.089604
    10  C    0.164907
    11  C    0.101858
    12  C    0.058508
    13  C    0.184267
    14  O   -0.245287
    15  O   -0.329605
    16  N    0.022805
    17  C    0.101030
    18  C   -0.108203
    19  C    0.006229
    20  C    0.050167
    21  C    0.108856
    22  C   -0.055308
    23  C   -0.060080
    24  N   -0.312827
    25  C    0.054616
    26  C   -0.117008
    27  C   -0.074628
    28  C    0.089568
    29  C    0.051691
    30  C    0.019289
    31  C    0.101319
    32  N   -0.057412
    33  C    0.097423
    34  C   -0.151817
    35  C   -0.009972
    36  C    0.105578
    37  C    0.034831
    38  C    0.108172
    39  O   -0.166237
    40  C   -0.110784
    41  C    0.138089
    42  O   -0.225176
    43  O   -0.210804
    44  C    0.085593
    45  C    0.259769
    46  C   -0.099903
    47  C   -0.087213
    48  C    0.143700
    49  C    0.057782
    50  C    0.094059
    51  C   -0.064256
    52  C   -0.073098
    53  C   -0.072263
    54  C    0.037022
    55  C    0.005176
    56  C    0.086229
    57  C   -0.027823
    58  C    0.106734
    59  C    0.069926
    60  C    0.168087
    61  C   -0.061981
    62  C   -0.076910
    63  C    0.017434
    64  C    0.136774
    65  H    0.000884
    66  H   -0.014475
    67  H    0.001640
    68  H   -0.029943
    69  H    0.011641
    70  H   -0.017331
    71  H    0.002436
    72  H    0.023101
    73  H    0.024655
    74  H   -0.043093
    75  H    0.051535
    76  H    0.003559
    77  H    0.015638
    78  H    0.014022
    79  H    0.035492
    80  H    0.035254
    81  H    0.047505
    82  H    0.034481
    83  H    0.048312
    84  H    0.022957
    85  H    0.014491
    86  H    0.009604
    87  H   -0.014934
    88  H   -0.030572
    89  H    0.006591
    90  H    0.011695
    91  H    0.044768
    92  H    0.057426
    93  H    0.064899
    94  H    0.044269
    95  H    0.075473
    96  H    0.025709
    97  H    0.036272
    98  H    0.025802
    99  H   -0.000620
   100  H    0.008376
   101  H    0.011566
   102  H    0.006126
   103  H   -0.027896
   104  H   -0.003732
   105  H   -0.008748
   106  H   -0.006264
   107  H   -0.061483
   108  H   -0.005030
   109  H    0.012894
   110  H    0.004357
   111  H    0.036202
   112  H    0.039902
   113  H    0.053968
   114  H    0.004326
   115  H   -0.001930
   116  H    0.005581
   117  H   -0.011833
   118  H   -0.027951
   119  H   -0.042932
   120  H   -0.042473
   121  H   -0.000011
   122  H   -0.068211
   123  H   -0.000217
   124  H   -0.019987
   125  H   -0.025193
   126  H   -0.010562
   127  H   -0.144423
   128  H    0.002917
   129  H    0.017730
   130  H   -0.024444
   131  H   -0.015743
   132  H    0.008374
   133  H   -0.009454
   134  H    0.007438
   135  H   -0.032760
   136  H   -0.006638
   137  H    0.134774
   138  H    0.180567
 Sum of Mulliken charges =  -0.00000

 Dipole moment (field-independent basis, Debye):
    X=              2.5790    Y=              4.9844    Z=             -1.0199  Tot=              5.7040
 Quadrupole moment (field-independent basis, Debye-Ang):
   XX=           -347.7868   YY=           -386.1488   ZZ=           -392.9280
   XY=            -32.6810   XZ=              6.8818   YZ=              0.8088

 Normal termination of Gaussian 16 at Sat Aug 17 04:25:05 2019.
