 Gaussian 16, Revision A.03,
 Gaussian 16:  ES64L-G16RevA.03 25-Dec-2016

 --------------------------
 # td=(NStates=1) B3LYP/SVP
 --------------------------

 --
 TD
 --
 Symbolic Z-matrix:
 Charge =  0 Multiplicity = 1

                         Standard orientation:
 ---------------------------------------------------------------------
 Center     Atomic      Atomic             Coordinates (Angstroms)
 Number     Number       Type             X           Y           Z
 ---------------------------------------------------------------------
      1          6           0       -4.996716   -2.012085    0.521084
      2          6           0       -4.737455    2.853769    1.350270
      3          6           0       -9.297422    3.235460   -0.221873
      4          6           0       -9.634219   -1.528079   -1.033459
      5          7           0       -5.201301    0.425114    0.813750
      6          6           0       -4.459958   -0.732541    0.856691
      7          6           0       -2.998575   -0.567081    1.180010
      8          6           0       -3.019581    0.866179    1.885419
      9          6           0       -4.375201    1.452590    1.299918
     10          6           0       -2.892242    0.954959    3.429939
     11          6           0       -2.093010   -0.746222    0.073594
     12          6           0       -0.615916   -0.672518    0.466125
     13          6           0        0.293472   -0.767803   -0.728349
     14          8           0        0.063957   -0.957448   -1.816454
     15          8           0        1.610368   -0.626553   -0.297475
     16          7           0       -6.995035    2.766611    0.392928
     17          6           0       -5.904231    3.319990    0.993459
     18          6           0       -6.244710    4.738278    1.109220
     19          6           0       -7.505254    4.972913    0.575035
     20          6           0       -8.035104    3.703267    0.232547
     21          6           0       -5.281243    5.788909    1.576703
     22          6           0       -8.135653    6.278225    0.405655
     23          6           0       -9.175298    6.782069   -0.334832
     24          7           0       -9.172452    0.829508   -0.605490
     25          6           0       -9.816723    2.052460   -0.596022
     26          6           0      -11.208725    1.818706   -1.059303
     27          6           0      -11.349813    0.473242   -1.282487
     28          6           0       -9.949874   -0.124936   -0.968905
     29          6           0      -12.202147    2.905800   -1.107652
     30          6           0      -12.502037   -0.424168   -1.750285
     31          6           0      -12.402754   -0.711058   -3.209949
     32          7           0       -7.368873   -1.387208   -0.261778
     33          6           0       -8.415534   -2.147424   -0.674171
     34          6           0       -8.040701   -3.445010   -0.702600
     35          6           0       -6.733719   -3.428171   -0.214852
     36          6           0       -6.298512   -2.151876    0.074548
     37          6           0       -8.887152   -4.773316   -0.849928
     38          6           0       -5.603860   -4.371931    0.077810
     39          8           0       -5.605752   -5.599976   -0.027232
     40          6           0       -4.455724   -3.455315    0.554312
     41          6           0       -3.888073   -3.843389    1.864206
     42          8           0       -4.159550   -3.321562    2.998639
     43          8           0       -3.036823   -4.807435    1.749061
     44          6           0       -2.508378   -5.408411    2.891641
     45          6           0        2.595231   -0.808039   -1.304067
     46          6           0        3.918150   -0.592589   -0.641497
     47          6           0        4.967572    0.244860   -0.938065
     48          6           0        4.832017    1.250296   -2.221380
     49          6           0        6.285739    0.242911   -0.195437
     50          6           0        7.441585   -0.200617   -1.170553
     51          6           0        8.649611   -0.237880   -0.242096
     52          6           0        9.880588   -0.623377   -0.937246
     53          6           0        9.892586   -2.142470   -1.390066
     54          6           0       11.190587   -0.423890   -0.031642
     55          6           0       12.561858   -0.614572   -0.692580
     56          6           0       13.722422   -0.323161    0.160907
     57          6           0       15.161726   -0.338769   -0.463177
     58          6           0       15.573930   -1.764338   -0.821550
     59          6           0       16.173889    0.385002    0.472752
     60          6           0       17.526850    0.690611   -0.195556
     61          6           0       18.466195    1.543434    0.773461
     62          6           0       19.925940    1.639310    0.221449
     63          6           0       19.959992    2.490832   -1.072364
     64          6           0       20.851451    2.196562    1.408101
     65          1           0       -4.005898    3.456529    1.752387
     66          1           0      -10.062620    4.092765   -0.251019
     67          1           0      -10.527190   -2.121589   -1.350074
     68          1           0       -2.713309   -1.314896    1.806000
     69          1           0       -2.305036    1.456257    1.472747
     70          1           0       -1.709140    0.977135    3.777073
     71          1           0       -3.394120    2.057073    3.754662
     72          1           0       -3.528723    0.140032    3.837788
     73          1           0       -2.203274   -1.593914   -0.513955
     74          1           0       -2.443168    0.084716   -0.620632
     75          1           0       -0.403575   -0.030669    1.157680
     76          1           0       -0.337627   -1.684606    1.174893
     77          1           0       -4.346942    5.678070    1.032275
     78          1           0       -5.491365    6.913187    1.476426
     79          1           0       -5.124034    5.628064    2.681687
     80          1           0       -7.609174    6.951097    1.077381
     81          1           0       -9.742093    6.193690   -0.992572
     82          1           0       -9.388998    7.789860   -0.307481
     83          1           0      -11.905993    3.517383   -0.441504
     84          1           0      -12.068744    3.316656   -2.177074
     85          1           0      -13.431074    2.537777   -1.014853
     86          1           0      -12.687119   -1.231091   -1.061713
     87          1           0      -13.398395    0.130598   -1.627223
     88          1           0      -12.215128    0.277399   -3.885126
     89          1           0      -11.630519   -1.438618   -3.137888
     90          1           0      -13.408489   -1.206654   -3.534861
     91          1           0       -9.527365   -4.756838   -0.040156
     92          1           0       -9.556301   -4.589314   -1.836216
     93          1           0       -8.376235   -5.581674   -0.831814
     94          1           0       -3.453630   -3.417076   -0.135608
     95          1           0       -1.821195   -6.268413    2.598096
     96          1           0       -1.964511   -4.676252    3.482801
     97          1           0       -3.246545   -5.928020    3.648032
     98          1           0        2.428905   -1.927683   -1.638687
     99          1           0        2.389760   -0.271757   -2.154880
    100          1           0        4.061135   -0.950539    0.314691
    101          1           0        5.045053    2.464332   -1.730383
    102          1           0        5.475820    1.090155   -3.136295
    103          1           0        3.806817    1.435364   -2.603221
    104          1           0        6.572334    1.347499    0.163027
    105          1           0        6.054790   -0.571882    0.554355
    106          1           0        7.313273   -1.230351   -1.569291
    107          1           0        7.657065    0.362458   -2.031527
    108          1           0        8.804286    0.756625    0.467823
    109          1           0        8.243293   -1.105748    0.613700
    110          1           0        9.932286   -0.087602   -1.930706
    111          1           0        9.062306   -2.417533   -1.995624
    112          1           0       10.762661   -2.450600   -1.923144
    113          1           0        9.749960   -2.758371   -0.269079
    114          1           0       11.103007    0.808822    0.464181
    115          1           0       11.249942   -1.005303    1.031963
    116          1           0       12.551187   -1.637117   -0.996692
    117          1           0       12.691980   -0.352562   -1.707689
    118          1           0       13.537208    0.735717    0.396170
    119          1           0       13.735644   -0.703988    1.208736
    120          1           0       15.176869    0.180442   -1.296296
    121          1           0       14.902186   -2.302796   -1.581599
    122          1           0       16.524434   -1.798740   -1.436383
    123          1           0       15.789111   -2.462337    0.063412
    124          1           0       15.625089    1.366325    0.749512
    125          1           0       16.189074   -0.144593    1.606105
    126          1           0       17.949715   -0.335691   -0.432255
    127          1           0       17.448923    1.397105   -1.020954
    128          1           0       17.907021    2.452533    0.907649
    129          1           0       18.324911    0.938539    1.572988
    130          1           0       20.247963    0.611749   -0.107909
    131          1           0       19.419746    3.446591   -0.956365
    132          1           0       21.007378    2.561503   -1.720932
    133          1           0       19.375004    1.801372   -1.914772
    134          1           0       20.580489    1.626751    2.384972
    135          1           0       22.110147    1.995920    1.373715
    136          1           0       20.747133    3.321866    1.674419
    137          1           0       -7.275171    1.892865    0.061447
    138          1           0       -7.300412   -0.370005   -0.069987
 ---------------------------------------------------------------------

 SCF Done:  E(RB3LYP) =  -2733.00882076     A.U. after   18 cycles

 Excitation energies and oscillator strengths:

 Excited State   1:      Singlet-A      2.0238 eV  612.64 nm  f=0.1901  <S**2>=0.000
     235 -> 237       -0.12287
     235 -> 238       -0.27083
     236 -> 237        0.63202
     236 -> 238       -0.10667
 This state for optimization and/or second-order correction.
 Total Energy, E(TD-HF/TD-DFT) =  -2732.93444817
 Copying the excited state density for this state as the 1-particle RhoCI density.

 The electronic state is 1-A.
 Alpha  occ. eigenvalues --  -19.19744 -19.15803 -19.13777 -19.12726 -19.11760
 Alpha  occ. eigenvalues --  -14.36553 -14.36295 -14.33557 -14.29565 -10.32239
 Alpha  occ. eigenvalues --  -10.31345 -10.28576 -10.25923 -10.24328 -10.24151
 Alpha  occ. eigenvalues --  -10.23814 -10.23733 -10.23625 -10.23307 -10.23197
 Alpha  occ. eigenvalues --  -10.22157 -10.21956 -10.21567 -10.21495 -10.21470
 Alpha  occ. eigenvalues --  -10.21333 -10.21168 -10.21090 -10.20984 -10.20878
 Alpha  occ. eigenvalues --  -10.20838 -10.20755 -10.20752 -10.20750 -10.20671
 Alpha  occ. eigenvalues --  -10.20575 -10.20520 -10.20459 -10.20457 -10.20408
 Alpha  occ. eigenvalues --  -10.20387 -10.20379 -10.20324 -10.19861 -10.19493
 Alpha  occ. eigenvalues --  -10.19422 -10.19286 -10.19273 -10.19271 -10.19139
 Alpha  occ. eigenvalues --  -10.19074 -10.19035 -10.18906 -10.18625 -10.18624
 Alpha  occ. eigenvalues --  -10.18562 -10.18516 -10.18350 -10.18281 -10.18218
 Alpha  occ. eigenvalues --  -10.18137 -10.17691 -10.17448 -10.17316  -1.12433
 Alpha  occ. eigenvalues --   -1.12010  -1.02342  -1.02037  -0.99534  -0.98247
 Alpha  occ. eigenvalues --   -0.97916  -0.93967  -0.93210  -0.85518  -0.83175
 Alpha  occ. eigenvalues --   -0.82317  -0.82285  -0.81768  -0.81499  -0.80362
 Alpha  occ. eigenvalues --   -0.80076  -0.79831  -0.79278  -0.79225  -0.77841
 Alpha  occ. eigenvalues --   -0.77276  -0.76603  -0.76099  -0.75186  -0.74637
 Alpha  occ. eigenvalues --   -0.74577  -0.73612  -0.72301  -0.71567  -0.71414
 Alpha  occ. eigenvalues --   -0.70380  -0.69714  -0.68903  -0.68058  -0.66894
 Alpha  occ. eigenvalues --   -0.66590  -0.66292  -0.65830  -0.65442  -0.64845
 Alpha  occ. eigenvalues --   -0.64496  -0.63105  -0.62776  -0.62138  -0.61306
 Alpha  occ. eigenvalues --   -0.60800  -0.58810  -0.58684  -0.58383  -0.58241
 Alpha  occ. eigenvalues --   -0.57482  -0.57444  -0.56694  -0.56524  -0.56069
 Alpha  occ. eigenvalues --   -0.55712  -0.55238  -0.54902  -0.54300  -0.53705
 Alpha  occ. eigenvalues --   -0.53380  -0.52486  -0.51843  -0.51182  -0.50795
 Alpha  occ. eigenvalues --   -0.50431  -0.49900  -0.49537  -0.49213  -0.48696
 Alpha  occ. eigenvalues --   -0.48335  -0.48202  -0.47844  -0.47808  -0.47619
 Alpha  occ. eigenvalues --   -0.47032  -0.46874  -0.46533  -0.45774  -0.45394
 Alpha  occ. eigenvalues --   -0.45372  -0.45304  -0.45234  -0.45174  -0.44735
 Alpha  occ. eigenvalues --   -0.44649  -0.44490  -0.43974  -0.43764  -0.43465
 Alpha  occ. eigenvalues --   -0.43332  -0.43188  -0.43150  -0.42668  -0.42542
 Alpha  occ. eigenvalues --   -0.42332  -0.42025  -0.41964  -0.41683  -0.41507
 Alpha  occ. eigenvalues --   -0.41368  -0.41220  -0.41014  -0.40554  -0.40522
 Alpha  occ. eigenvalues --   -0.40328  -0.40089  -0.39908  -0.39750  -0.39559
 Alpha  occ. eigenvalues --   -0.39321  -0.39222  -0.38918  -0.38745  -0.38458
 Alpha  occ. eigenvalues --   -0.38382  -0.38183  -0.37798  -0.37510  -0.37343
 Alpha  occ. eigenvalues --   -0.37184  -0.37143  -0.37063  -0.36779  -0.36621
 Alpha  occ. eigenvalues --   -0.36422  -0.36382  -0.36168  -0.35934  -0.35813
 Alpha  occ. eigenvalues --   -0.35679  -0.35567  -0.35293  -0.35114  -0.35059
 Alpha  occ. eigenvalues --   -0.34592  -0.34353  -0.33704  -0.33651  -0.33374
 Alpha  occ. eigenvalues --   -0.33103  -0.33021  -0.32863  -0.32820  -0.32562
 Alpha  occ. eigenvalues --   -0.32553  -0.32404  -0.32202  -0.32087  -0.31712
 Alpha  occ. eigenvalues --   -0.31435  -0.31008  -0.30447  -0.30421  -0.29844
 Alpha  occ. eigenvalues --   -0.29736  -0.29418  -0.28796  -0.28573  -0.28181
 Alpha  occ. eigenvalues --   -0.27928  -0.27298  -0.26971  -0.25979  -0.25557
 Alpha  occ. eigenvalues --   -0.25123  -0.24314  -0.23884  -0.22817  -0.20219
 Alpha  occ. eigenvalues --   -0.18890
 Alpha virt. eigenvalues --   -0.10612  -0.07640  -0.04791  -0.02573  -0.00894
 Alpha virt. eigenvalues --   -0.00508  -0.00106   0.00114   0.01488   0.03636
 Alpha virt. eigenvalues --    0.03847   0.03941   0.04352   0.04651   0.04682

 Mulliken charges:
               1
     1  C   -0.008359
     2  C   -0.119404
     3  C   -0.080088
     4  C   -0.085921
     5  N   -0.194812
     6  C   -0.052503
     7  C    0.050027
     8  C    0.038240
     9  C   -0.042890
    10  C   -0.010153
    11  C    0.089523
    12  C    0.041392
    13  C    0.171948
    14  O   -0.132064
    15  O   -0.358672
    16  N   -0.044615
    17  C    0.287947
    18  C   -0.160026
    19  C    0.082806
    20  C   -0.017707
    21  C    0.063682
    22  C   -0.052284
    23  C    0.028211
    24  N   -0.170762
    25  C    0.066393
    26  C   -0.134565
    27  C   -0.138300
    28  C   -0.034856
    29  C    0.111336
    30  C    0.118138
    31  C    0.001400
    32  N   -0.031745
    33  C    0.132944
    34  C   -0.191166
    35  C   -0.027494
    36  C    0.046592
    37  C    0.204503
    38  C    0.127854
    39  O   -0.178392
    40  C   -0.055374
    41  C    0.186634
    42  O   -0.297268
    43  O   -0.222610
    44  C    0.147666
    45  C    0.317302
    46  C   -0.036675
    47  C   -0.146581
    48  C   -0.051259
    49  C    0.083211
    50  C    0.027542
    51  C   -0.065602
    52  C   -0.014949
    53  C   -0.007503
    54  C   -0.079514
    55  C    0.146707
    56  C    0.028847
    57  C    0.048319
    58  C   -0.016021
    59  C   -0.069607
    60  C   -0.005286
    61  C    0.070837
    62  C   -0.038035
    63  C   -0.063949
    64  C   -0.052666
    65  H   -0.057993
    66  H   -0.011591
    67  H   -0.006982
    68  H   -0.066041
    69  H   -0.046991
    70  H    0.046745
    71  H    0.033084
    72  H    0.054627
    73  H   -0.014036
    74  H    0.006301
    75  H   -0.043066
    76  H    0.044033
    77  H    0.030752
    78  H    0.033882
    79  H    0.033474
    80  H   -0.015941
    81  H    0.003783
    82  H    0.005188
    83  H   -0.021043
    84  H    0.035684
    85  H    0.045091
    86  H    0.004577
    87  H   -0.044962
    88  H    0.047945
    89  H   -0.005357
    90  H    0.020897
    91  H    0.011685
    92  H    0.031602
    93  H   -0.022220
    94  H    0.083483
    95  H    0.041410
    96  H    0.027091
    97  H    0.048482
    98  H    0.012839
    99  H   -0.020607
   100  H   -0.036828
   101  H    0.020311
   102  H    0.047209
   103  H    0.021558
   104  H    0.036406
   105  H    0.015504
   106  H    0.006103
   107  H   -0.009930
   108  H    0.025019
   109  H    0.005301
   110  H    0.003356
   111  H   -0.000490
   112  H    0.013741
   113  H    0.021931
   114  H   -0.004683
   115  H    0.026417
   116  H   -0.037687
   117  H   -0.043522
   118  H   -0.025843
   119  H   -0.012732
   120  H   -0.067102
   121  H    0.009929
   122  H    0.002254
   123  H    0.016176
   124  H   -0.006182
   125  H    0.012991
   126  H    0.015988
   127  H    0.005051
   128  H   -0.006023
   129  H   -0.031002
   130  H    0.006533
   131  H    0.025482
   132  H    0.037351
   133  H    0.022983
   134  H    0.018413
   135  H    0.023435
   136  H    0.027204
   137  H    0.103393
   138  H    0.155832
 Sum of Mulliken charges =  -0.00000

 Dipole moment (field-independent basis, Debye):
    X=              2.0090    Y=              3.4583    Z=              0.1335  Tot=              4.0017
 Quadrupole moment (field-independent basis, Debye-Ang):
   XX=           -376.8110   YY=           -382.3710   ZZ=           -397.5619
   XY=            -24.6700   XZ=             -3.1061   YZ=             -0.8673

 Normal termination of Gaussian 16 at Tue Aug 27 07:22:40 2019.
