 Gaussian 16, Revision A.03,
 Gaussian 16:  ES64L-G16RevA.03 25-Dec-2016

 --------------------------
 # td=(NStates=1) B3LYP/SVP
 --------------------------

 --
 TD
 --
 Symbolic Z-matrix:
 Charge =  0 Multiplicity = 1

                         Standard orientation:
 ---------------------------------------------------------------------
 Center     Atomic      Atomic             Coordinates (Angstroms)
 Number     Number       Type             X           Y           Z
 ---------------------------------------------------------------------
      1          6           0       -5.125755   -1.933268    0.530942
      2          6           0       -4.710771    2.826169    1.351780
      3          6           0       -9.364214    3.346687   -0.166832
      4          6           0       -9.891798   -1.453214   -0.844866
      5          7           0       -5.126724    0.451170    0.741434
      6          6           0       -4.441087   -0.681570    0.803306
      7          6           0       -3.017928   -0.561124    1.215455
      8          6           0       -3.010043    0.872350    1.883470
      9          6           0       -4.342126    1.451410    1.294771
     10          6           0       -3.031249    0.918970    3.369597
     11          6           0       -2.065090   -0.774464    0.092903
     12          6           0       -0.591304   -0.800562    0.502853
     13          6           0        0.386952   -1.137612   -0.638991
     14          8           0        0.043883   -1.469709   -1.728387
     15          8           0        1.651362   -1.086184   -0.187002
     16          7           0       -7.098299    2.863902    0.593369
     17          6           0       -5.896389    3.409114    0.935902
     18          6           0       -6.120612    4.842437    0.829918
     19          6           0       -7.507194    4.997755    0.480238
     20          6           0       -8.046229    3.727181    0.299797
     21          6           0       -5.108957    5.805861    1.206951
     22          6           0       -8.019910    6.283387    0.260023
     23          6           0       -9.002036    6.567042   -0.622912
     24          7           0       -9.166885    0.916067   -0.388307
     25          6           0       -9.872985    2.093152   -0.394529
     26          6           0      -11.233249    1.852076   -0.823309
     27          6           0      -11.417542    0.514507   -1.011628
     28          6           0      -10.104338   -0.044612   -0.771242
     29          6           0      -12.245536    2.952665   -1.116152
     30          6           0      -12.641738   -0.258169   -1.628995
     31          6           0      -12.498926   -0.559373   -3.080825
     32          7           0       -7.536269   -1.248055   -0.340809
     33          6           0       -8.594722   -1.997265   -0.639968
     34          6           0       -8.221465   -3.448615   -0.561892
     35          6           0       -6.829319   -3.466208   -0.211511
     36          6           0       -6.386403   -2.091345   -0.028421
     37          6           0       -9.036229   -4.672565   -0.856846
     38          6           0       -5.702869   -4.301696   -0.099718
     39          8           0       -5.604345   -5.439513    0.010572
     40          6           0       -4.527306   -3.316658    0.358563
     41          6           0       -3.819881   -3.716762    1.592737
     42          8           0       -4.071424   -3.355953    2.746212
     43          8           0       -2.963010   -4.812408    1.401651
     44          6           0       -2.478577   -5.447825    2.556071
     45          6           0        2.717837   -1.198199   -1.229046
     46          6           0        4.117389   -0.872087   -0.558434
     47          6           0        4.963729    0.106190   -0.937681
     48          6           0        4.728062    0.989968   -2.156407
     49          6           0        6.219767    0.340812   -0.184369
     50          6           0        7.346559   -0.282065   -0.799325
     51          6           0        8.667799   -0.098128   -0.009343
     52          6           0        9.937654   -0.611114   -0.802289
     53          6           0        9.910727   -2.191478   -1.217915
     54          6           0       11.227961   -0.315461    0.039526
     55          6           0       12.627937   -0.660145   -0.594743
     56          6           0       13.851652   -0.162335    0.236282
     57          6           0       15.192109   -0.282883   -0.354748
     58          6           0       15.623649   -1.671545   -0.711097
     59          6           0       16.177251    0.485326    0.519977
     60          6           0       17.547755    0.684017   -0.105366
     61          6           0       18.588717    1.581843    0.692383
     62          6           0       20.001184    1.728522    0.113789
     63          6           0       20.142709    2.300228   -1.322337
     64          6           0       20.916413    2.545850    1.155011
     65          1           0       -3.838381    3.575225    1.596393
     66          1           0       -9.938357    4.235419   -0.335844
     67          1           0      -10.565025   -2.125240   -0.903461
     68          1           0       -2.812632   -1.196029    2.094607
     69          1           0       -2.184869    1.395280    1.630364
     70          1           0       -2.064622    0.800613    3.737730
     71          1           0       -3.240705    1.921773    3.798518
     72          1           0       -3.810834    0.345405    3.793979
     73          1           0       -2.293777   -1.688301   -0.607582
     74          1           0       -2.401486    0.108318   -0.699964
     75          1           0       -0.263635   -0.000493    1.011465
     76          1           0       -0.377606   -1.553125    1.265676
     77          1           0       -3.758115    5.280048    0.938460
     78          1           0       -5.302761    6.958837    0.662328
     79          1           0       -5.140416    5.755940    2.326278
     80          1           0       -7.758753    7.262811    0.761867
     81          1           0       -9.644111    5.742843   -1.127163
     82          1           0       -9.530187    7.609261   -0.898566
     83          1           0      -12.481583    3.440139   -0.240489
     84          1           0      -11.858002    3.611017   -1.892173
     85          1           0      -13.102432    2.479907   -1.388715
     86          1           0      -12.862913   -1.155158   -0.979291
     87          1           0      -13.548148    0.376632   -1.535308
     88          1           0      -12.150899    0.414396   -3.567303
     89          1           0      -11.787988   -1.415020   -2.986333
     90          1           0      -13.382421   -1.035359   -3.518750
     91          1           0      -10.093164   -4.907196   -0.140672
     92          1           0       -9.415953   -4.455146   -1.762202
     93          1           0       -8.452684   -5.653439   -0.709879
     94          1           0       -3.831698   -3.428126   -0.296261
     95          1           0       -1.674859   -6.211822    2.153534
     96          1           0       -1.876717   -4.759335    3.416256
     97          1           0       -3.470419   -5.832066    2.919250
     98          1           0        2.789292   -2.283797   -1.370319
     99          1           0        2.452892   -0.596648   -2.176952
    100          1           0        4.365956   -1.682854    0.272378
    101          1           0        4.927829    2.164860   -2.044947
    102          1           0        5.461011    0.784533   -2.968509
    103          1           0        3.776518    0.892863   -2.735034
    104          1           0        6.367052    1.420557   -0.255985
    105          1           0        6.189001   -0.194087    0.875743
    106          1           0        7.198031   -1.484477   -0.900648
    107          1           0        7.746776    0.164743   -1.934647
    108          1           0        8.915708    0.961097    0.162140
    109          1           0        8.575591   -0.634775    0.843772
    110          1           0        9.929636   -0.036179   -1.467052
    111          1           0        9.167229   -2.339559   -1.731578
    112          1           0       10.765500   -2.373768   -1.739448
    113          1           0        9.899189   -2.910653   -0.510586
    114          1           0       11.344849    0.716300    0.296524
    115          1           0       11.154113   -0.723112    0.978019
    116          1           0       12.690777   -1.715500   -0.762922
    117          1           0       12.762935   -0.116335   -1.449166
    118          1           0       13.548644    0.789734    0.692638
    119          1           0       14.002844   -0.919553    1.068761
    120          1           0       15.068895    0.172490   -1.340614
    121          1           0       15.016647   -2.072544   -1.736686
    122          1           0       16.541250   -1.841691   -1.109076
    123          1           0       15.167816   -2.445980    0.170679
    124          1           0       15.897231    1.493453    0.678059
    125          1           0       16.277685   -0.103610    1.606931
    126          1           0       17.897492   -0.526676    0.095628
    127          1           0       17.475363    1.131042   -1.018062
    128          1           0       18.124472    2.548314    0.812059
    129          1           0       18.706868    1.273264    1.695928
    130          1           0       20.354207    0.703192   -0.012322
    131          1           0       19.970232    3.367868   -1.404900
    132          1           0       20.968421    2.151319   -1.699128
    133          1           0       19.628173    1.652512   -2.157733
    134          1           0       20.576682    1.995398    2.228062
    135          1           0       21.956740    2.457437    0.749029
    136          1           0       20.477144    3.616519    1.133917
    137          1           0       -7.435447    1.885640    0.752388
    138          1           0       -7.679805   -0.101828   -0.330322
 ---------------------------------------------------------------------

 SCF Done:  E(RB3LYP) =  -2732.88792257     A.U. after   17 cycles

 Excitation energies and oscillator strengths:

 Excited State   1:      Singlet-A      1.9653 eV  630.88 nm  f=0.1921  <S**2>=0.000
     235 -> 238        0.29395
     236 -> 237        0.64248
 This state for optimization and/or second-order correction.
 Total Energy, E(TD-HF/TD-DFT) =  -2732.81570018
 Copying the excited state density for this state as the 1-particle RhoCI density.

 The electronic state is 1-A.
 Alpha  occ. eigenvalues --  -19.17343 -19.16526 -19.12854 -19.12102 -19.11993
 Alpha  occ. eigenvalues --  -14.37041 -14.36475 -14.32579 -14.30787 -10.31030
 Alpha  occ. eigenvalues --  -10.30979 -10.27679 -10.25967 -10.25409 -10.23906
 Alpha  occ. eigenvalues --  -10.23879 -10.23822 -10.23358 -10.23193 -10.23177
 Alpha  occ. eigenvalues --  -10.23077 -10.22762 -10.22004 -10.21342 -10.21180
 Alpha  occ. eigenvalues --  -10.21061 -10.21007 -10.20859 -10.20811 -10.20802
 Alpha  occ. eigenvalues --  -10.20532 -10.20482 -10.20387 -10.20347 -10.20270
 Alpha  occ. eigenvalues --  -10.20233 -10.19891 -10.19889 -10.19820 -10.19774
 Alpha  occ. eigenvalues --  -10.19628 -10.19614 -10.19550 -10.19410 -10.19402
 Alpha  occ. eigenvalues --  -10.19338 -10.19020 -10.18878 -10.18694 -10.18683
 Alpha  occ. eigenvalues --  -10.18605 -10.18581 -10.18446 -10.18392 -10.17646
 Alpha  occ. eigenvalues --  -10.17517 -10.17510 -10.17502 -10.17438 -10.17339
 Alpha  occ. eigenvalues --  -10.16941 -10.16881 -10.16564 -10.14868  -1.08871
 Alpha  occ. eigenvalues --   -1.07770  -1.06990  -1.00725  -0.99777  -0.98895
 Alpha  occ. eigenvalues --   -0.96305  -0.94509  -0.93187  -0.85643  -0.83670
 Alpha  occ. eigenvalues --   -0.82620  -0.82150  -0.81503  -0.81202  -0.80500
 Alpha  occ. eigenvalues --   -0.79578  -0.79471  -0.79431  -0.78787  -0.78060
 Alpha  occ. eigenvalues --   -0.76856  -0.76113  -0.75829  -0.74993  -0.74924
 Alpha  occ. eigenvalues --   -0.73786  -0.73221  -0.72623  -0.72040  -0.70615
 Alpha  occ. eigenvalues --   -0.70290  -0.69676  -0.69415  -0.68684  -0.68153
 Alpha  occ. eigenvalues --   -0.67492  -0.67393  -0.66252  -0.65660  -0.65446
 Alpha  occ. eigenvalues --   -0.64530  -0.62963  -0.62416  -0.61953  -0.61233
 Alpha  occ. eigenvalues --   -0.60697  -0.59411  -0.58384  -0.57936  -0.57530
 Alpha  occ. eigenvalues --   -0.57140  -0.56503  -0.55361  -0.55340  -0.54983
 Alpha  occ. eigenvalues --   -0.54779  -0.54258  -0.53669  -0.53311  -0.52872
 Alpha  occ. eigenvalues --   -0.52692  -0.52067  -0.51856  -0.50711  -0.50675
 Alpha  occ. eigenvalues --   -0.49937  -0.49614  -0.49493  -0.49102  -0.48953
 Alpha  occ. eigenvalues --   -0.48344  -0.47924  -0.47702  -0.47387  -0.46890
 Alpha  occ. eigenvalues --   -0.46567  -0.46359  -0.46243  -0.46062  -0.45813
 Alpha  occ. eigenvalues --   -0.45679  -0.45618  -0.45290  -0.45222  -0.44796
 Alpha  occ. eigenvalues --   -0.44646  -0.44599  -0.44140  -0.43897  -0.43825
 Alpha  occ. eigenvalues --   -0.43711  -0.43541  -0.43319  -0.43122  -0.42544
 Alpha  occ. eigenvalues --   -0.42495  -0.42229  -0.41968  -0.41756  -0.41575
 Alpha  occ. eigenvalues --   -0.41520  -0.41153  -0.40923  -0.40840  -0.40723
 Alpha  occ. eigenvalues --   -0.40699  -0.40228  -0.40051  -0.39969  -0.39835
 Alpha  occ. eigenvalues --   -0.39657  -0.39340  -0.39020  -0.38959  -0.38696
 Alpha  occ. eigenvalues --   -0.38453  -0.38284  -0.38124  -0.38037  -0.37730
 Alpha  occ. eigenvalues --   -0.37432  -0.37334  -0.37229  -0.37007  -0.36911
 Alpha  occ. eigenvalues --   -0.36461  -0.36237  -0.36064  -0.36043  -0.35792
 Alpha  occ. eigenvalues --   -0.35637  -0.35361  -0.35201  -0.34771  -0.34590
 Alpha  occ. eigenvalues --   -0.34480  -0.34139  -0.33927  -0.33880  -0.33759
 Alpha  occ. eigenvalues --   -0.33473  -0.33410  -0.33077  -0.32408  -0.32367
 Alpha  occ. eigenvalues --   -0.32191  -0.32083  -0.31583  -0.31366  -0.30933
 Alpha  occ. eigenvalues --   -0.30694  -0.30496  -0.30385  -0.30078  -0.29434
 Alpha  occ. eigenvalues --   -0.29307  -0.28706  -0.28481  -0.28262  -0.27995
 Alpha  occ. eigenvalues --   -0.27686  -0.27382  -0.27120  -0.26630  -0.25526
 Alpha  occ. eigenvalues --   -0.25198  -0.25141  -0.23324  -0.22798  -0.19792
 Alpha  occ. eigenvalues --   -0.18777
 Alpha virt. eigenvalues --   -0.10564  -0.07888  -0.05153  -0.02266  -0.01074
 Alpha virt. eigenvalues --   -0.00786  -0.00042   0.01587   0.01715   0.02653
 Alpha virt. eigenvalues --    0.03769   0.03896   0.04267   0.04442   0.04810

 Mulliken charges:
               1
     1  C    0.062737
     2  C   -0.098731
     3  C   -0.079099
     4  C    0.012038
     5  N   -0.137648
     6  C   -0.076458
     7  C    0.001502
     8  C    0.007029
     9  C   -0.031385
    10  C    0.133871
    11  C   -0.001804
    12  C    0.120336
    13  C    0.159670
    14  O   -0.212696
    15  O   -0.335909
    16  N    0.007590
    17  C    0.121188
    18  C   -0.099200
    19  C    0.117820
    20  C   -0.018959
    21  C   -0.081437
    22  C   -0.069134
    23  C   -0.148888
    24  N   -0.297307
    25  C    0.149574
    26  C   -0.208125
    27  C   -0.104862
    28  C    0.108833
    29  C    0.254133
    30  C    0.038123
    31  C    0.033182
    32  N   -0.149464
    33  C    0.048826
    34  C   -0.107320
    35  C   -0.028315
    36  C    0.094454
    37  C    0.043561
    38  C    0.052537
    39  O   -0.090133
    40  C    0.046463
    41  C    0.181673
    42  O   -0.246934
    43  O   -0.317728
    44  C    0.107433
    45  C    0.250664
    46  C   -0.148254
    47  C   -0.066855
    48  C    0.009923
    49  C    0.161401
    50  C   -0.139238
    51  C    0.067241
    52  C    0.078828
    53  C    0.204368
    54  C    0.049103
    55  C    0.103422
    56  C   -0.014815
    57  C   -0.009850
    58  C   -0.012246
    59  C    0.028716
    60  C   -0.000568
    61  C    0.081908
    62  C   -0.097914
    63  C    0.113920
    64  C   -0.037860
    65  H    0.007362
    66  H   -0.048932
    67  H   -0.124457
    68  H    0.012442
    69  H   -0.059241
    70  H   -0.011068
    71  H   -0.009167
    72  H    0.013597
    73  H    0.045589
    74  H    0.023204
    75  H   -0.028655
    76  H    0.016005
    77  H    0.043056
    78  H    0.072336
    79  H    0.061174
    80  H    0.018038
    81  H    0.029571
    82  H    0.042762
    83  H   -0.007584
    84  H    0.021856
    85  H   -0.043585
    86  H    0.011133
    87  H   -0.007304
    88  H    0.040903
    89  H    0.003391
    90  H    0.012471
    91  H    0.043161
    92  H    0.011741
    93  H    0.065448
    94  H   -0.045433
    95  H    0.050637
    96  H    0.047138
    97  H    0.048197
    98  H    0.016983
    99  H    0.052853
   100  H    0.025665
   101  H    0.029178
   102  H    0.025557
   103  H    0.015261
   104  H   -0.007922
   105  H    0.023943
   106  H    0.022505
   107  H    0.011797
   108  H   -0.008732
   109  H   -0.037113
   110  H   -0.132537
   111  H   -0.078510
   112  H   -0.023967
   113  H   -0.027498
   114  H   -0.040147
   115  H   -0.040957
   116  H   -0.003314
   117  H   -0.039749
   118  H   -0.006754
   119  H   -0.022691
   120  H   -0.028404
   121  H    0.006885
   122  H   -0.002101
   123  H    0.024154
   124  H   -0.029236
   125  H    0.010308
   126  H    0.019698
   127  H   -0.015227
   128  H   -0.031557
   129  H   -0.035304
   130  H   -0.015012
   131  H    0.000647
   132  H   -0.080991
   133  H    0.001226
   134  H    0.039401
   135  H    0.034647
   136  H    0.029962
   137  H    0.159509
   138  H    0.218828
 Sum of Mulliken charges =  -0.00000

 Dipole moment (field-independent basis, Debye):
    X=              2.4091    Y=              3.8140    Z=             -0.4286  Tot=              4.5315
 Quadrupole moment (field-independent basis, Debye-Ang):
   XX=           -335.3780   YY=           -385.3810   ZZ=           -398.1908
   XY=            -10.0840   XZ=             -0.1080   YZ=              2.3984

 Normal termination of Gaussian 16 at Tue Aug 13 13:32:11 2019.
