 Gaussian 16, Revision A.03,
 Gaussian 16:  ES64L-G16RevA.03 25-Dec-2016

 --------------------------
 # td=(NStates=1) B3LYP/SVP
 --------------------------

 --
 TD
 --
 Symbolic Z-matrix:
 Charge =  0 Multiplicity = 1

                         Standard orientation:
 ---------------------------------------------------------------------
 Center     Atomic      Atomic             Coordinates (Angstroms)
 Number     Number       Type             X           Y           Z
 ---------------------------------------------------------------------
      1          6           0       -5.145933   -1.954354    0.496775
      2          6           0       -4.646759    2.741065    1.411958
      3          6           0       -9.261232    3.363095   -0.242931
      4          6           0       -9.850500   -1.419618   -1.072798
      5          7           0       -5.183479    0.480343    0.813636
      6          6           0       -4.483666   -0.749739    0.865630
      7          6           0       -2.925701   -0.666013    1.207167
      8          6           0       -2.935443    0.869375    1.717933
      9          6           0       -4.308396    1.373148    1.367984
     10          6           0       -2.747831    0.893301    3.334612
     11          6           0       -2.104467   -0.788771   -0.032493
     12          6           0       -0.574804   -0.859914    0.378602
     13          6           0        0.284959   -0.989729   -0.810406
     14          8           0        0.027566   -1.306200   -1.842439
     15          8           0        1.591653   -0.678111   -0.393500
     16          7           0       -6.987986    2.700442    0.548319
     17          6           0       -5.881391    3.331404    1.106533
     18          6           0       -6.175415    4.736357    1.148279
     19          6           0       -7.495640    4.898993    0.770558
     20          6           0       -8.063395    3.667730    0.326511
     21          6           0       -5.279814    5.768543    1.732200
     22          6           0       -8.110811    6.216434    0.632412
     23          6           0       -8.970995    6.631191   -0.373369
     24          7           0       -9.153760    0.909796   -0.475166
     25          6           0       -9.852410    2.092874   -0.506961
     26          6           0      -11.171050    1.868099   -1.124465
     27          6           0      -11.383247    0.572711   -1.264604
     28          6           0      -10.060684   -0.014221   -1.059794
     29          6           0      -12.131698    2.972112   -1.323760
     30          6           0      -12.512489   -0.166415   -1.746861
     31          6           0      -12.548099   -0.324490   -3.255901
     32          7           0       -7.515558   -1.247175   -0.165229
     33          6           0       -8.565210   -2.032764   -0.653001
     34          6           0       -8.190562   -3.457268   -0.592857
     35          6           0       -6.952477   -3.346240   -0.203822
     36          6           0       -6.472578   -2.057703    0.093890
     37          6           0       -9.004597   -4.491894   -0.907272
     38          6           0       -5.848575   -4.368690    0.064550
     39          8           0       -5.758081   -5.518722    0.083197
     40          6           0       -4.618910   -3.361888    0.499928
     41          6           0       -4.100261   -3.775767    1.858233
     42          8           0       -4.377899   -3.409969    2.953252
     43          8           0       -3.141085   -4.790837    1.688314
     44          6           0       -2.686771   -5.379090    2.906210
     45          6           0        2.665779   -0.833150   -1.383177
     46          6           0        3.976690   -0.669097   -0.798130
     47          6           0        5.048832    0.046388   -1.211768
     48          6           0        5.155319    0.854880   -2.524154
     49          6           0        6.358873    0.083561   -0.299305
     50          6           0        7.567628   -0.424490   -1.129047
     51          6           0        8.851136   -0.391064   -0.237915
     52          6           0       10.079977   -0.879676   -0.860724
     53          6           0       10.107856   -2.339781   -1.082683
     54          6           0       11.292205   -0.387504   -0.021215
     55          6           0       12.577670   -0.654815   -0.551577
     56          6           0       13.804184   -0.049068    0.247454
     57          6           0       15.248779   -0.330777   -0.369226
     58          6           0       15.594649   -1.897918   -0.224821
     59          6           0       16.154492    0.549331    0.370046
     60          6           0       17.588689    0.847728   -0.232119
     61          6           0       18.517378    1.563433    0.609641
     62          6           0       19.993256    1.719629    0.204514
     63          6           0       20.002460    2.565090   -1.120955
     64          6           0       20.816157    2.473050    1.256300
     65          1           0       -3.887011    3.454544    1.827253
     66          1           0      -10.112787    4.118103   -0.279153
     67          1           0      -10.676300   -2.014267   -1.308665
     68          1           0       -2.732623   -1.347566    2.025016
     69          1           0       -2.079642    1.426375    1.267970
     70          1           0       -1.808968    0.610401    3.596395
     71          1           0       -2.881034    1.877396    3.687304
     72          1           0       -3.564115    0.243262    3.723256
     73          1           0       -2.337847   -1.830952   -0.268966
     74          1           0       -2.499656   -0.258564   -1.005339
     75          1           0       -0.274250    0.183888    0.856804
     76          1           0       -0.419683   -1.648661    1.028211
     77          1           0       -4.166969    5.582243    1.344382
     78          1           0       -5.623353    6.719175    1.234689
     79          1           0       -5.470159    5.886231    3.093376
     80          1           0       -7.893480    7.011209    1.274510
     81          1           0       -9.115103    5.854114   -1.343605
     82          1           0       -9.593828    7.541269   -0.396688
     83          1           0      -11.984019    3.832386   -0.532449
     84          1           0      -12.037220    3.628393   -2.271625
     85          1           0      -13.272330    2.402236   -1.296426
     86          1           0      -12.648110   -1.024382   -1.145648
     87          1           0      -13.561214    0.555058   -1.628706
     88          1           0      -12.380951    0.708493   -3.840144
     89          1           0      -11.892591   -0.979895   -3.832198
     90          1           0      -13.575664   -0.760551   -3.560238
     91          1           0       -9.660658   -4.643506   -0.176969
     92          1           0       -9.808520   -4.380335   -1.782414
     93          1           0       -8.416860   -5.399967   -0.960494
     94          1           0       -3.786601   -3.703338   -0.368785
     95          1           0       -2.418309   -6.527652    2.414980
     96          1           0       -1.768065   -4.747549    3.231414
     97          1           0       -3.504512   -5.349066    3.821237
     98          1           0        2.363562   -2.056970   -1.596424
     99          1           0        2.577853   -0.116584   -2.146179
    100          1           0        3.927616   -1.432689    0.243208
    101          1           0        5.583987    1.746692   -2.109293
    102          1           0        5.674202    0.086582   -3.307341
    103          1           0        4.093998    1.121467   -2.738488
    104          1           0        6.578173    1.181263   -0.015432
    105          1           0        6.130674   -0.403860    0.731352
    106          1           0        7.208479   -1.417317   -1.436073
    107          1           0        7.836327    0.034170   -2.002239
    108          1           0        9.058759    0.643516    0.160161
    109          1           0        8.691765   -1.050466    0.699209
    110          1           0       10.106982   -0.313389   -1.819966
    111          1           0        9.185159   -2.475712   -1.616155
    112          1           0       11.095440   -2.665867   -1.418624
    113          1           0        9.950014   -2.741329    0.081086
    114          1           0       11.314759    0.860522    0.142033
    115          1           0       11.017029   -0.755859    1.033639
    116          1           0       12.716368   -1.587579   -0.782376
    117          1           0       12.626152   -0.337351   -1.517006
    118          1           0       13.724894    1.097324    0.311143
    119          1           0       13.924300   -0.517524    1.374210
    120          1           0       15.195500   -0.188387   -1.531357
    121          1           0       15.299823   -2.603510   -1.092718
    122          1           0       16.672305   -2.135470   -0.560344
    123          1           0       15.362409   -2.217216    0.830836
    124          1           0       15.618663    1.541219    0.404885
    125          1           0       16.399524    0.001806    1.439763
    126          1           0       18.001970   -0.096609   -0.526397
    127          1           0       17.397515    1.384082   -1.358011
    128          1           0       18.264124    2.691046    0.792455
    129          1           0       18.496373    1.074118    1.727376
    130          1           0       20.498931    0.730944   -0.104397
    131          1           0       19.756605    3.720534   -1.002454
    132          1           0       21.053138    2.713155   -1.506092
    133          1           0       19.635566    2.025075   -2.058901
    134          1           0       20.768764    1.678803    2.121277
    135          1           0       21.732904    2.628977    0.806225
    136          1           0       20.467874    3.478676    1.405902
    137          1           0       -7.151876    1.662730    0.404416
    138          1           0       -7.606845   -0.106364   -0.191569
 ---------------------------------------------------------------------

 SCF Done:  E(RB3LYP) =  -2732.97111759     A.U. after   17 cycles

 Excitation energies and oscillator strengths:

 Excited State   1:      Singlet-A      2.0279 eV  611.40 nm  f=0.1573  <S**2>=0.000
     235 -> 238        0.30966
     236 -> 237        0.62729
 This state for optimization and/or second-order correction.
 Total Energy, E(TD-HF/TD-DFT) =  -2732.89659431
 Copying the excited state density for this state as the 1-particle RhoCI density.

 The electronic state is 1-A.
 Alpha  occ. eigenvalues --  -19.16080 -19.14760 -19.14111 -19.13227 -19.12817
 Alpha  occ. eigenvalues --  -14.37139 -14.36470 -14.33181 -14.30898 -10.31120
 Alpha  occ. eigenvalues --  -10.30193 -10.28714 -10.26085 -10.24680 -10.23794
 Alpha  occ. eigenvalues --  -10.23762 -10.23723 -10.23700 -10.23051 -10.22923
 Alpha  occ. eigenvalues --  -10.22912 -10.22046 -10.21593 -10.21535 -10.21215
 Alpha  occ. eigenvalues --  -10.21214 -10.20922 -10.20898 -10.20878 -10.20807
 Alpha  occ. eigenvalues --  -10.20767 -10.20730 -10.20620 -10.20579 -10.20469
 Alpha  occ. eigenvalues --  -10.20422 -10.20361 -10.20224 -10.20148 -10.20114
 Alpha  occ. eigenvalues --  -10.20102 -10.20057 -10.20003 -10.19929 -10.19744
 Alpha  occ. eigenvalues --  -10.19703 -10.19456 -10.19416 -10.19396 -10.19159
 Alpha  occ. eigenvalues --  -10.18876 -10.18852 -10.18829 -10.18764 -10.18689
 Alpha  occ. eigenvalues --  -10.18539 -10.18469 -10.18323 -10.18305 -10.18109
 Alpha  occ. eigenvalues --  -10.17917 -10.17815 -10.17777 -10.15818  -1.11669
 Alpha  occ. eigenvalues --   -1.08596  -1.07335  -1.00819  -1.00190  -0.98260
 Alpha  occ. eigenvalues --   -0.95706  -0.92939  -0.92633  -0.84178  -0.83437
 Alpha  occ. eigenvalues --   -0.83065  -0.81673  -0.81508  -0.81343  -0.81239
 Alpha  occ. eigenvalues --   -0.80873  -0.79847  -0.79669  -0.78167  -0.77540
 Alpha  occ. eigenvalues --   -0.76735  -0.75825  -0.74809  -0.74580  -0.74424
 Alpha  occ. eigenvalues --   -0.73468  -0.73207  -0.72410  -0.71982  -0.71029
 Alpha  occ. eigenvalues --   -0.69857  -0.68572  -0.67765  -0.67433  -0.66991
 Alpha  occ. eigenvalues --   -0.66444  -0.66139  -0.65713  -0.65317  -0.64483
 Alpha  occ. eigenvalues --   -0.63835  -0.62986  -0.62265  -0.61390  -0.60835
 Alpha  occ. eigenvalues --   -0.60428  -0.59075  -0.58616  -0.57553  -0.57244
 Alpha  occ. eigenvalues --   -0.56386  -0.55364  -0.55037  -0.54653  -0.54310
 Alpha  occ. eigenvalues --   -0.54111  -0.53404  -0.53383  -0.53142  -0.52583
 Alpha  occ. eigenvalues --   -0.52309  -0.51808  -0.51193  -0.50646  -0.50213
 Alpha  occ. eigenvalues --   -0.49793  -0.49553  -0.48709  -0.48521  -0.47792
 Alpha  occ. eigenvalues --   -0.47662  -0.47574  -0.47298  -0.47246  -0.47026
 Alpha  occ. eigenvalues --   -0.46818  -0.46470  -0.46283  -0.46146  -0.45925
 Alpha  occ. eigenvalues --   -0.45490  -0.45286  -0.45221  -0.44944  -0.44785
 Alpha  occ. eigenvalues --   -0.44496  -0.44138  -0.44045  -0.43932  -0.43764
 Alpha  occ. eigenvalues --   -0.43573  -0.43230  -0.42963  -0.42833  -0.42741
 Alpha  occ. eigenvalues --   -0.42479  -0.42428  -0.42048  -0.41663  -0.41550
 Alpha  occ. eigenvalues --   -0.41445  -0.41306  -0.40996  -0.40655  -0.40501
 Alpha  occ. eigenvalues --   -0.40236  -0.39781  -0.39734  -0.39319  -0.39124
 Alpha  occ. eigenvalues --   -0.39078  -0.38996  -0.38584  -0.38567  -0.38399
 Alpha  occ. eigenvalues --   -0.38310  -0.38255  -0.37975  -0.37651  -0.37455
 Alpha  occ. eigenvalues --   -0.37354  -0.37212  -0.37170  -0.36938  -0.36628
 Alpha  occ. eigenvalues --   -0.36274  -0.36181  -0.36047  -0.35881  -0.35683
 Alpha  occ. eigenvalues --   -0.35554  -0.35231  -0.35060  -0.34927  -0.34478
 Alpha  occ. eigenvalues --   -0.34418  -0.34189  -0.34103  -0.34015  -0.33794
 Alpha  occ. eigenvalues --   -0.32978  -0.32674  -0.32287  -0.31839  -0.31768
 Alpha  occ. eigenvalues --   -0.31703  -0.31525  -0.31469  -0.31045  -0.30995
 Alpha  occ. eigenvalues --   -0.30607  -0.30497  -0.29937  -0.29808  -0.29520
 Alpha  occ. eigenvalues --   -0.29376  -0.29284  -0.28675  -0.28512  -0.28250
 Alpha  occ. eigenvalues --   -0.28103  -0.27577  -0.27478  -0.26855  -0.26232
 Alpha  occ. eigenvalues --   -0.24924  -0.24364  -0.23596  -0.23198  -0.19880
 Alpha  occ. eigenvalues --   -0.18707
 Alpha virt. eigenvalues --   -0.10075  -0.07925  -0.03958  -0.02291  -0.00714
 Alpha virt. eigenvalues --   -0.00358   0.00385   0.01208   0.02397   0.02556
 Alpha virt. eigenvalues --    0.02767   0.03679   0.03960   0.04192   0.04514

 Mulliken charges:
               1
     1  C    0.031425
     2  C   -0.102172
     3  C   -0.081795
     4  C   -0.040938
     5  N   -0.207140
     6  C   -0.095146
     7  C   -0.010834
     8  C   -0.087149
     9  C    0.063786
    10  C    0.100219
    11  C    0.055698
    12  C    0.044676
    13  C    0.143860
    14  O   -0.107930
    15  O   -0.397645
    16  N   -0.164909
    17  C    0.153864
    18  C   -0.132352
    19  C    0.091865
    20  C    0.157083
    21  C   -0.013479
    22  C   -0.055617
    23  C   -0.096981
    24  N   -0.304264
    25  C    0.012741
    26  C   -0.061074
    27  C   -0.069752
    28  C    0.071146
    29  C   -0.033111
    30  C    0.045332
    31  C   -0.034443
    32  N   -0.101427
    33  C    0.034754
    34  C   -0.101659
    35  C   -0.072806
    36  C    0.137042
    37  C    0.140403
    38  C    0.105735
    39  O   -0.080458
    40  C   -0.183642
    41  C    0.218401
    42  O   -0.194639
    43  O   -0.339036
    44  C    0.067734
    45  C    0.258511
    46  C   -0.107712
    47  C   -0.203745
    48  C    0.091062
    49  C    0.033484
    50  C    0.046704
    51  C   -0.008428
    52  C   -0.074841
    53  C    0.066458
    54  C   -0.055213
    55  C    0.258056
    56  C   -0.038168
    57  C   -0.109260
    58  C   -0.023057
    59  C    0.026691
    60  C    0.038983
    61  C    0.016505
    62  C   -0.129067
    63  C   -0.045976
    64  C    0.096001
    65  H   -0.015199
    66  H   -0.003695
    67  H   -0.048524
    68  H    0.007974
    69  H    0.011480
    70  H   -0.007123
    71  H   -0.005944
    72  H    0.035180
    73  H   -0.007677
    74  H    0.050699
    75  H    0.052304
    76  H    0.017784
    77  H    0.052441
    78  H    0.033081
    79  H    0.067649
    80  H   -0.010865
    81  H    0.054205
    82  H    0.037526
    83  H    0.037940
    84  H    0.036345
    85  H    0.040488
    86  H    0.007374
    87  H    0.018725
    88  H    0.031686
    89  H    0.011726
    90  H    0.016710
    91  H   -0.017309
    92  H    0.032750
    93  H    0.025010
    94  H    0.097276
    95  H    0.066830
    96  H    0.038717
    97  H    0.075057
    98  H    0.034738
    99  H   -0.016452
   100  H    0.019288
   101  H    0.019031
   102  H    0.081397
   103  H    0.014625
   104  H    0.008828
   105  H    0.024790
   106  H    0.011056
   107  H   -0.021950
   108  H   -0.001830
   109  H   -0.011161
   110  H   -0.026028
   111  H    0.004957
   112  H    0.026433
   113  H    0.006295
   114  H   -0.006559
   115  H   -0.005816
   116  H   -0.092493
   117  H   -0.063255
   118  H    0.011299
   119  H    0.013177
   120  H    0.000754
   121  H    0.015005
   122  H    0.003442
   123  H    0.030333
   124  H    0.008185
   125  H    0.015034
   126  H   -0.025163
   127  H    0.007099
   128  H   -0.002338
   129  H   -0.001482
   130  H    0.003262
   131  H    0.019590
   132  H   -0.011412
   133  H    0.024770
   134  H    0.033121
   135  H   -0.017930
   136  H   -0.000636
   137  H    0.164268
   138  H    0.220750
 Sum of Mulliken charges =  -0.00000

 Dipole moment (field-independent basis, Debye):
    X=              1.5718    Y=              3.1877    Z=             -1.1172  Tot=              3.7256
 Quadrupole moment (field-independent basis, Debye-Ang):
   XX=           -337.2879   YY=           -385.1177   ZZ=           -397.9959
   XY=            -12.5466   XZ=              0.1357   YZ=              3.3240

 Normal termination of Gaussian 16 at Sun Aug 11 07:05:27 2019.
