 Gaussian 16, Revision A.03,
 Gaussian 16:  ES64L-G16RevA.03 25-Dec-2016

 --------------------------
 # td=(NStates=1) B3LYP/SVP
 --------------------------

 --
 TD
 --
 Symbolic Z-matrix:
 Charge =  0 Multiplicity = 1

                         Standard orientation:
 ---------------------------------------------------------------------
 Center     Atomic      Atomic             Coordinates (Angstroms)
 Number     Number       Type             X           Y           Z
 ---------------------------------------------------------------------
      1          6           0       -5.050458   -2.035062    0.467709
      2          6           0       -4.786654    2.748649    1.768125
      3          6           0       -9.242017    3.323361   -0.282481
      4          6           0       -9.791605   -1.402786   -1.035762
      5          7           0       -5.155423    0.435243    0.950732
      6          6           0       -4.468866   -0.798409    0.910047
      7          6           0       -3.057688   -0.609159    1.340469
      8          6           0       -3.234702    0.762293    2.134938
      9          6           0       -4.437901    1.377864    1.603102
     10          6           0       -3.212132    0.479658    3.635637
     11          6           0       -2.035612   -0.488639    0.114798
     12          6           0       -0.638076   -0.529997    0.626604
     13          6           0        0.380484   -0.850506   -0.527185
     14          8           0        0.016390   -0.986560   -1.702667
     15          8           0        1.675357   -0.808133   -0.168047
     16          7           0       -7.094091    2.717767    0.682214
     17          6           0       -5.978697    3.274643    1.251750
     18          6           0       -6.206798    4.702249    1.182944
     19          6           0       -7.458042    4.924895    0.660830
     20          6           0       -8.012950    3.605523    0.394243
     21          6           0       -5.237530    5.755608    1.747273
     22          6           0       -7.982517    6.274582    0.361217
     23          6           0       -8.933402    6.617255   -0.568788
     24          7           0       -9.200393    0.871578   -0.539073
     25          6           0       -9.867509    2.056775   -0.641085
     26          6           0      -11.229031    1.915278   -1.157619
     27          6           0      -11.456201    0.573178   -1.284759
     28          6           0      -10.110600    0.010433   -0.919159
     29          6           0      -12.179261    3.106538   -1.283290
     30          6           0      -12.541079   -0.221438   -1.896961
     31          6           0      -12.474267   -0.353537   -3.417212
     32          7           0       -7.430106   -1.331348   -0.190410
     33          6           0       -8.522923   -2.017018   -0.736290
     34          6           0       -8.088376   -3.396205   -0.840928
     35          6           0       -6.766079   -3.430972   -0.395896
     36          6           0       -6.386265   -2.162160    0.033952
     37          6           0       -8.951910   -4.600167   -1.174748
     38          6           0       -5.690441   -4.304927   -0.234696
     39          8           0       -5.473431   -5.484260   -0.318931
     40          6           0       -4.517285   -3.393874    0.325741
     41          6           0       -4.049431   -3.998905    1.664807
     42          8           0       -4.277700   -3.667485    2.813123
     43          8           0       -3.079972   -4.944019    1.535835
     44          6           0       -2.664241   -5.628491    2.632933
     45          6           0        2.635908   -0.848524   -1.177794
     46          6           0        4.046004   -0.687045   -0.586531
     47          6           0        4.977159    0.192807   -1.046457
     48          6           0        4.930029    1.045294   -2.305087
     49          6           0        6.286786    0.431881   -0.271405
     50          6           0        7.531501   -0.125505   -1.003844
     51          6           0        8.752716   -0.153624   -0.059769
     52          6           0       10.071481   -0.757134   -0.709241
     53          6           0       10.084104   -2.210150   -0.950212
     54          6           0       11.264037   -0.331409    0.169328
     55          6           0       12.711618   -0.579696   -0.480438
     56          6           0       13.745113   -0.122299    0.358025
     57          6           0       15.260553   -0.371610   -0.278278
     58          6           0       15.619133   -1.797794   -0.396785
     59          6           0       16.198895    0.554064    0.436198
     60          6           0       17.525187    0.682710   -0.229809
     61          6           0       18.531012    1.508471    0.478282
     62          6           0       19.942059    1.628121   -0.131604
     63          6           0       19.914368    2.256199   -1.513667
     64          6           0       20.888846    2.334024    0.866592
     65          1           0       -3.902896    3.158233    2.166598
     66          1           0       -9.912912    4.173234   -0.331018
     67          1           0      -10.611356   -2.052335   -1.338920
     68          1           0       -2.766570   -1.617469    1.920412
     69          1           0       -2.348512    1.506689    1.936411
     70          1           0       -2.373419   -0.029524    4.071099
     71          1           0       -3.168798    1.479982    4.060459
     72          1           0       -4.133131   -0.102977    4.148323
     73          1           0       -2.209812   -1.322618   -0.420331
     74          1           0       -2.293427    0.395822   -0.449263
     75          1           0       -0.245688    0.559083    1.138403
     76          1           0       -0.236889   -1.322137    1.339819
     77          1           0       -3.993701    5.418990    1.290752
     78          1           0       -5.553988    6.844966    1.267832
     79          1           0       -5.267145    5.850733    2.964127
     80          1           0       -7.430156    7.116499    0.814755
     81          1           0       -9.565803    5.765044   -1.040847
     82          1           0       -9.358212    7.756159   -1.045721
     83          1           0      -12.076142    3.896977   -0.340584
     84          1           0      -11.754619    3.764528   -2.233342
     85          1           0      -13.281775    2.762472   -1.514999
     86          1           0      -12.421423   -1.301382   -1.349756
     87          1           0      -13.457323    0.227164   -1.561890
     88          1           0      -12.313019    0.666532   -3.913615
     89          1           0      -11.670760   -1.207951   -3.672280
     90          1           0      -13.370937   -0.737559   -3.791989
     91          1           0      -10.011196   -4.607231   -0.517530
     92          1           0       -9.304536   -4.739870   -2.322270
     93          1           0       -8.441245   -5.506597   -1.147196
     94          1           0       -3.669603   -3.594996   -0.547457
     95          1           0       -2.146182   -6.682512    2.327669
     96          1           0       -1.892234   -5.008656    3.021268
     97          1           0       -3.428544   -5.968937    3.499330
     98          1           0        2.472633   -1.905301   -1.651921
     99          1           0        2.427925   -0.238691   -2.033572
    100          1           0        4.280754   -1.348875    0.260641
    101          1           0        5.586280    1.929413   -2.107454
    102          1           0        5.473662    0.634883   -3.011843
    103          1           0        3.927376    1.206226   -2.670920
    104          1           0        6.463303    1.485392    0.116869
    105          1           0        6.216397   -0.079630    0.544848
    106          1           0        7.388194   -1.088084   -1.191759
    107          1           0        7.837485    0.533817   -1.939681
    108          1           0        9.032865    0.818411    0.480861
    109          1           0        8.573712   -0.846389    0.928208
    110          1           0        9.918786   -0.160498   -1.745152
    111          1           0        9.268968   -2.739352   -1.582524
    112          1           0       10.956455   -2.417771   -1.446539
    113          1           0       10.040696   -2.729312   -0.059524
    114          1           0       11.410689    0.808043    0.406256
    115          1           0       11.112692   -0.542894    1.242739
    116          1           0       12.741733   -1.691067   -0.808285
    117          1           0       12.474727   -0.014868   -1.613998
    118          1           0       13.633635    1.095326    0.733903
    119          1           0       13.677029   -0.656966    1.323969
    120          1           0       15.031177   -0.053855   -1.310399
    121          1           0       15.001092   -2.047156   -1.119943
    122          1           0       16.578073   -1.942176   -0.873246
    123          1           0       15.536667   -2.158554    0.706774
    124          1           0       15.856319    1.562698    0.703843
    125          1           0       16.205877    0.091164    1.298967
    126          1           0       17.909485   -0.356029   -0.415989
    127          1           0       17.083984    1.240499   -1.183366
    128          1           0       18.162606    2.572108    0.574083
    129          1           0       18.563033    1.068047    1.570475
    130          1           0       20.420481    0.644924   -0.328322
    131          1           0       19.454845    3.218214   -1.352730
    132          1           0       20.971627    2.456732   -1.784973
    133          1           0       19.367228    1.638702   -2.039853
    134          1           0       20.811112    1.983115    1.766537
    135          1           0       21.922162    2.398875    0.557984
    136          1           0       20.580434    3.430638    0.822374
    137          1           0       -7.153013    1.688481    0.674728
    138          1           0       -7.550974   -0.369493   -0.235644
 ---------------------------------------------------------------------

 SCF Done:  E(RB3LYP) =  -2733.01948823     A.U. after   16 cycles

 Excitation energies and oscillator strengths:

 Excited State   1:      Singlet-A      1.9667 eV  630.43 nm  f=0.1684  <S**2>=0.000
     235 -> 237       -0.12499
     235 -> 238        0.28676
     236 -> 237        0.62330
     236 -> 238        0.10271
 This state for optimization and/or second-order correction.
 Total Energy, E(TD-HF/TD-DFT) =  -2732.94721511
 Copying the excited state density for this state as the 1-particle RhoCI density.

 The electronic state is 1-A.
 Alpha  occ. eigenvalues --  -19.18169 -19.16441 -19.12065 -19.11932 -19.11683
 Alpha  occ. eigenvalues --  -14.38163 -14.36956 -14.32486 -14.30598 -10.31693
 Alpha  occ. eigenvalues --  -10.31474 -10.27346 -10.24943 -10.24633 -10.24471
 Alpha  occ. eigenvalues --  -10.24434 -10.24410 -10.24100 -10.23818 -10.23776
 Alpha  occ. eigenvalues --  -10.22944 -10.22755 -10.22566 -10.22343 -10.22282
 Alpha  occ. eigenvalues --  -10.22187 -10.22145 -10.21905 -10.21715 -10.21368
 Alpha  occ. eigenvalues --  -10.21289 -10.21154 -10.21124 -10.21099 -10.20777
 Alpha  occ. eigenvalues --  -10.20693 -10.20629 -10.20573 -10.20477 -10.20248
 Alpha  occ. eigenvalues --  -10.20158 -10.19997 -10.19747 -10.19660 -10.19596
 Alpha  occ. eigenvalues --  -10.19560 -10.19259 -10.19194 -10.19191 -10.19183
 Alpha  occ. eigenvalues --  -10.19153 -10.18869 -10.18748 -10.18575 -10.18399
 Alpha  occ. eigenvalues --  -10.18273 -10.18235 -10.18027 -10.18013 -10.17278
 Alpha  occ. eigenvalues --  -10.17088 -10.16327 -10.16089 -10.15894  -1.09983
 Alpha  occ. eigenvalues --   -1.09901  -1.03377  -1.00604  -0.99681  -0.99525
 Alpha  occ. eigenvalues --   -0.98970  -0.95310  -0.93912  -0.86253  -0.82980
 Alpha  occ. eigenvalues --   -0.82303  -0.82088  -0.81457  -0.81010  -0.80525
 Alpha  occ. eigenvalues --   -0.80317  -0.80172  -0.80091  -0.78701  -0.77522
 Alpha  occ. eigenvalues --   -0.77087  -0.76197  -0.75467  -0.75297  -0.74379
 Alpha  occ. eigenvalues --   -0.74047  -0.73457  -0.73024  -0.72716  -0.70194
 Alpha  occ. eigenvalues --   -0.69746  -0.69071  -0.68821  -0.68586  -0.68349
 Alpha  occ. eigenvalues --   -0.68101  -0.67335  -0.67016  -0.66661  -0.65612
 Alpha  occ. eigenvalues --   -0.64325  -0.63329  -0.62672  -0.62405  -0.61729
 Alpha  occ. eigenvalues --   -0.60901  -0.59135  -0.58952  -0.58488  -0.56936
 Alpha  occ. eigenvalues --   -0.56361  -0.55894  -0.55574  -0.55332  -0.55237
 Alpha  occ. eigenvalues --   -0.54856  -0.54597  -0.54342  -0.54215  -0.52998
 Alpha  occ. eigenvalues --   -0.52680  -0.52228  -0.51856  -0.50655  -0.50390
 Alpha  occ. eigenvalues --   -0.49855  -0.49659  -0.49265  -0.48772  -0.48425
 Alpha  occ. eigenvalues --   -0.47920  -0.47731  -0.47254  -0.47184  -0.46997
 Alpha  occ. eigenvalues --   -0.46740  -0.46626  -0.46272  -0.46079  -0.45961
 Alpha  occ. eigenvalues --   -0.45860  -0.45672  -0.45478  -0.45041  -0.44921
 Alpha  occ. eigenvalues --   -0.44744  -0.44559  -0.44388  -0.44306  -0.44136
 Alpha  occ. eigenvalues --   -0.43497  -0.43259  -0.43117  -0.43016  -0.42650
 Alpha  occ. eigenvalues --   -0.42210  -0.42084  -0.41923  -0.41857  -0.41720
 Alpha  occ. eigenvalues --   -0.41547  -0.41360  -0.40765  -0.40692  -0.40643
 Alpha  occ. eigenvalues --   -0.40297  -0.40249  -0.39911  -0.39879  -0.39458
 Alpha  occ. eigenvalues --   -0.39442  -0.38981  -0.38859  -0.38662  -0.38576
 Alpha  occ. eigenvalues --   -0.38310  -0.38177  -0.37903  -0.37796  -0.37614
 Alpha  occ. eigenvalues --   -0.37436  -0.37271  -0.37090  -0.37005  -0.36827
 Alpha  occ. eigenvalues --   -0.36786  -0.36607  -0.36377  -0.36200  -0.35960
 Alpha  occ. eigenvalues --   -0.35573  -0.35453  -0.35188  -0.35005  -0.34344
 Alpha  occ. eigenvalues --   -0.34188  -0.34112  -0.34040  -0.33937  -0.33790
 Alpha  occ. eigenvalues --   -0.33516  -0.33444  -0.33049  -0.32940  -0.32621
 Alpha  occ. eigenvalues --   -0.32418  -0.32412  -0.31868  -0.31520  -0.31119
 Alpha  occ. eigenvalues --   -0.30847  -0.30544  -0.30034  -0.29945  -0.29728
 Alpha  occ. eigenvalues --   -0.29096  -0.28972  -0.28393  -0.28270  -0.27585
 Alpha  occ. eigenvalues --   -0.27350  -0.27091  -0.26842  -0.26516  -0.25888
 Alpha  occ. eigenvalues --   -0.24921  -0.24422  -0.24224  -0.23835  -0.20206
 Alpha  occ. eigenvalues --   -0.19139
 Alpha virt. eigenvalues --   -0.10858  -0.08391  -0.04994  -0.02301  -0.00899
 Alpha virt. eigenvalues --   -0.00604   0.00110   0.00309   0.01149   0.02731
 Alpha virt. eigenvalues --    0.03036   0.03756   0.03887   0.04213   0.04291

 Mulliken charges:
               1
     1  C    0.062060
     2  C   -0.043845
     3  C   -0.069047
     4  C   -0.040983
     5  N   -0.209394
     6  C   -0.025945
     7  C   -0.140236
     8  C   -0.047108
     9  C   -0.053274
    10  C    0.063981
    11  C    0.223307
    12  C   -0.056149
    13  C    0.175750
    14  O   -0.267016
    15  O   -0.282439
    16  N    0.008372
    17  C    0.185463
    18  C   -0.120218
    19  C    0.045755
    20  C    0.049511
    21  C   -0.068181
    22  C   -0.020620
    23  C   -0.127710
    24  N   -0.183613
    25  C    0.034578
    26  C   -0.090809
    27  C   -0.095630
    28  C    0.010325
    29  C   -0.034583
    30  C    0.020879
    31  C    0.029757
    32  N   -0.001033
    33  C    0.029598
    34  C   -0.095979
    35  C    0.046354
    36  C    0.069862
    37  C    0.031073
    38  C    0.012128
    39  O   -0.151705
    40  C   -0.133457
    41  C    0.220175
    42  O   -0.233068
    43  O   -0.269436
    44  C    0.128650
    45  C    0.246633
    46  C   -0.073367
    47  C   -0.172372
    48  C    0.179199
    49  C    0.139605
    50  C    0.093583
    51  C   -0.081769
    52  C   -0.067792
    53  C    0.118745
    54  C   -0.034608
    55  C   -0.036444
    56  C   -0.011549
    57  C   -0.125877
    58  C    0.145931
    59  C    0.142262
    60  C    0.007484
    61  C    0.007262
    62  C   -0.126676
    63  C    0.122444
    64  C    0.115067
    65  H   -0.044463
    66  H   -0.022740
    67  H   -0.026465
    68  H    0.041896
    69  H    0.003833
    70  H    0.011239
    71  H   -0.010007
    72  H    0.046474
    73  H   -0.028191
    74  H    0.010350
    75  H    0.059801
    76  H    0.043241
    77  H    0.053974
    78  H    0.054691
    79  H    0.073583
    80  H    0.002053
    81  H    0.038041
    82  H    0.070170
    83  H    0.063321
    84  H    0.044028
    85  H    0.042694
    86  H    0.024631
    87  H   -0.003044
    88  H    0.032481
    89  H    0.029740
    90  H    0.000343
    91  H    0.058257
    92  H    0.033347
    93  H    0.013650
    94  H    0.095554
    95  H    0.034750
    96  H    0.004604
    97  H    0.050176
    98  H    0.013372
    99  H   -0.002018
   100  H   -0.002898
   101  H    0.001859
   102  H   -0.021173
   103  H    0.016399
   104  H    0.014832
   105  H   -0.081914
   106  H   -0.039518
   107  H    0.021317
   108  H   -0.000037
   109  H   -0.009652
   110  H    0.001019
   111  H    0.010958
   112  H   -0.016303
   113  H   -0.019210
   114  H   -0.008346
   115  H   -0.010303
   116  H    0.025901
   117  H    0.016814
   118  H    0.018954
   119  H   -0.004043
   120  H   -0.029719
   121  H   -0.039296
   122  H   -0.004084
   123  H    0.025293
   124  H   -0.021590
   125  H   -0.081862
   126  H   -0.000210
   127  H    0.007296
   128  H   -0.008830
   129  H   -0.001646
   130  H   -0.017399
   131  H   -0.016702
   132  H    0.007347
   133  H   -0.021462
   134  H   -0.037235
   135  H   -0.006759
   136  H   -0.011607
   137  H    0.155734
   138  H    0.100853
 Sum of Mulliken charges =  -0.00000

 Dipole moment (field-independent basis, Debye):
    X=              1.0333    Y=              4.1719    Z=              0.2569  Tot=              4.3056
 Quadrupole moment (field-independent basis, Debye-Ang):
   XX=           -334.6494   YY=           -390.9898   ZZ=           -397.2862
   XY=            -28.3899   XZ=             17.8013   YZ=              3.1999

 Normal termination of Gaussian 16 at Fri Aug  9 21:12:03 2019.
