 Gaussian 16, Revision A.03,
 Gaussian 16:  ES64L-G16RevA.03 25-Dec-2016

 --------------------------
 # td=(NStates=1) B3LYP/SVP
 --------------------------

 --
 TD
 --
 Symbolic Z-matrix:
 Charge =  0 Multiplicity = 1

                         Standard orientation:
 ---------------------------------------------------------------------
 Center     Atomic      Atomic             Coordinates (Angstroms)
 Number     Number       Type             X           Y           Z
 ---------------------------------------------------------------------
      1          6           0       -5.144449   -2.020090    0.460959
      2          6           0       -4.705736    2.734226    1.593736
      3          6           0       -9.277414    3.446938   -0.206769
      4          6           0       -9.844698   -1.348281   -0.971939
      5          7           0       -5.140191    0.341428    0.920648
      6          6           0       -4.571615   -0.876767    0.840739
      7          6           0       -3.059720   -0.634002    1.385031
      8          6           0       -3.108552    0.791786    1.936811
      9          6           0       -4.412737    1.361796    1.521113
     10          6           0       -2.906008    0.843467    3.460649
     11          6           0       -2.120163   -0.837074    0.133054
     12          6           0       -0.532357   -0.753003    0.561485
     13          6           0        0.339602   -0.984769   -0.563092
     14          8           0        0.061360   -1.222355   -1.730903
     15          8           0        1.713871   -0.970928   -0.136997
     16          7           0       -7.041823    2.781383    0.588432
     17          6           0       -5.842186    3.344861    1.214285
     18          6           0       -6.082918    4.746872    1.280879
     19          6           0       -7.373236    4.961518    0.577426
     20          6           0       -7.954304    3.710780    0.201512
     21          6           0       -5.109998    5.711741    1.543581
     22          6           0       -8.084425    6.224201    0.379123
     23          6           0       -8.815470    6.651566   -0.623259
     24          7           0       -9.137129    0.970929   -0.445899
     25          6           0       -9.742169    2.177844   -0.587890
     26          6           0      -11.198317    2.070784   -1.152729
     27          6           0      -11.348466    0.689274   -1.236863
     28          6           0      -10.129994    0.032483   -0.884587
     29          6           0      -12.175615    3.163704   -1.355771
     30          6           0      -12.560404   -0.049710   -1.768551
     31          6           0      -12.570790   -0.293301   -3.271364
     32          7           0       -7.472115   -1.201572   -0.235817
     33          6           0       -8.604067   -1.988149   -0.650277
     34          6           0       -8.201455   -3.372700   -0.808829
     35          6           0       -6.811572   -3.363726   -0.278542
     36          6           0       -6.404411   -2.038427   -0.095742
     37          6           0       -9.068956   -4.453663   -1.337234
     38          6           0       -5.707907   -4.253318   -0.025555
     39          8           0       -5.684959   -5.498125   -0.252593
     40          6           0       -4.533020   -3.296471    0.464647
     41          6           0       -3.998079   -3.852605    1.889500
     42          8           0       -4.391786   -3.581591    2.944960
     43          8           0       -3.102709   -4.852451    1.563703
     44          6           0       -2.932847   -5.699434    2.829036
     45          6           0        2.659293   -1.164650   -1.080493
     46          6           0        3.920733   -0.778113   -0.455946
     47          6           0        5.014563   -0.072777   -0.957335
     48          6           0        4.990318    0.520836   -2.360961
     49          6           0        6.309703    0.088138   -0.264262
     50          6           0        7.459661   -0.567674   -1.036721
     51          6           0        8.650550   -0.367046   -0.145848
     52          6           0       10.086383   -0.848207   -0.846895
     53          6           0       10.049164   -2.364854   -0.894141
     54          6           0       11.203614   -0.303876   -0.069820
     55          6           0       12.682291   -0.620664   -0.622592
     56          6           0       13.767857    0.048731    0.169103
     57          6           0       15.200811   -0.107949   -0.410167
     58          6           0       15.609721   -1.539251   -0.523654
     59          6           0       16.242581    0.669921    0.400870
     60          6           0       17.572402    0.783802   -0.299326
     61          6           0       18.529379    1.760246    0.520538
     62          6           0       20.032691    1.739333    0.276243
     63          6           0       20.294303    1.994693   -1.369356
     64          6           0       20.845217    2.754544    1.093908
     65          1           0       -3.863462    3.269817    2.152804
     66          1           0      -10.029865    4.336256   -0.278981
     67          1           0      -10.517198   -2.074638   -0.981985
     68          1           0       -2.838461   -1.440465    2.052196
     69          1           0       -2.373968    1.330062    1.294312
     70          1           0       -1.992686    0.165053    4.012780
     71          1           0       -2.967869    1.804111    3.942090
     72          1           0       -4.076027    0.454213    3.909694
     73          1           0       -2.307035   -2.000588   -0.397645
     74          1           0       -2.422436   -0.142912   -0.611292
     75          1           0       -0.378229    0.389091    0.801110
     76          1           0       -0.268938   -1.379947    1.464989
     77          1           0       -4.076939    5.604711    1.192157
     78          1           0       -5.441242    6.889180    1.355505
     79          1           0       -4.984732    5.771445    2.593654
     80          1           0       -7.706539    7.212364    1.009502
     81          1           0       -9.140156    6.082406   -1.531576
     82          1           0       -9.211541    7.637835   -0.615927
     83          1           0      -12.248515    3.749853   -0.525094
     84          1           0      -12.173929    3.797167   -2.195959
     85          1           0      -13.249932    2.690427   -1.458009
     86          1           0      -12.574492   -1.227175   -1.313202
     87          1           0      -13.258249    0.588411   -1.466682
     88          1           0      -12.352061    0.656008   -3.811023
     89          1           0      -11.691838   -1.067649   -3.455736
     90          1           0      -13.690373   -0.709325   -3.545579
     91          1           0       -9.961803   -4.582096   -0.371529
     92          1           0       -9.593786   -4.134234   -2.406628
     93          1           0       -8.576281   -5.436242   -1.429612
     94          1           0       -3.602273   -3.448830   -0.276438
     95          1           0       -1.995452   -6.068844    2.273312
     96          1           0       -2.922536   -5.040415    4.144293
     97          1           0       -3.949031   -6.462580    2.818148
     98          1           0        2.669000   -2.213790   -1.155524
     99          1           0        2.359156   -0.509570   -2.049324
    100          1           0        4.011034   -1.159608    0.564053
    101          1           0        5.170934    1.583335   -2.483499
    102          1           0        5.214659    0.048647   -3.291077
    103          1           0        3.711732    0.766642   -2.515387
    104          1           0        6.496893    1.113898   -0.033225
    105          1           0        6.353735   -0.210253    0.822087
    106          1           0        7.259623   -1.663145   -1.116272
    107          1           0        7.638938   -0.252412   -2.128893
    108          1           0        8.710060    0.653378    0.051123
    109          1           0        8.656155   -0.941610    0.745448
    110          1           0        9.917562   -0.309688   -1.924951
    111          1           0        9.052922   -2.645222   -1.288752
    112          1           0       10.786370   -2.885026   -1.675778
    113          1           0       10.187905   -2.898216    0.247584
    114          1           0       11.109542    0.870717    0.118753
    115          1           0       11.327685   -0.788747    0.961720
    116          1           0       12.745153   -1.763629   -0.624264
    117          1           0       12.779055   -0.219922   -1.813042
    118          1           0       13.686994    1.028867    0.359803
    119          1           0       13.729566   -0.249283    1.373614
    120          1           0       15.074405    0.468055   -1.418677
    121          1           0       14.708402   -2.064648   -1.415074
    122          1           0       16.599146   -1.712771   -0.775641
    123          1           0       15.546834   -2.081603    0.506439
    124          1           0       16.016227    1.725769    0.741577
    125          1           0       16.680170    0.035514    1.323605
    126          1           0       17.971230   -0.240689   -0.593428
    127          1           0       17.428721    1.107687   -1.493105
    128          1           0       17.863491    2.769214    0.509069
    129          1           0       18.657269    1.566655    1.621550
    130          1           0       20.247846    0.797277    0.458381
    131          1           0       19.669645    2.895457   -1.990776
    132          1           0       21.414261    2.134484   -1.439948
    133          1           0       20.049207    1.121597   -2.035319
    134          1           0       20.893107    2.396200    2.177500
    135          1           0       21.808380    2.897559    0.811808
    136          1           0       20.268434    3.784773    1.169992
    137          1           0       -7.027053    1.737726    0.210594
    138          1           0       -7.394652   -0.188869   -0.219603
 ---------------------------------------------------------------------

 SCF Done:  E(RB3LYP) =  -2732.86494421     A.U. after   18 cycles

 Excitation energies and oscillator strengths:

 Excited State   1:      Singlet-A      1.9712 eV  628.99 nm  f=0.1702  <S**2>=0.000
     235 -> 238       -0.30807
     236 -> 237        0.63114
 This state for optimization and/or second-order correction.
 Total Energy, E(TD-HF/TD-DFT) =  -2732.79250526
 Copying the excited state density for this state as the 1-particle RhoCI density.

 The electronic state is 1-A.
 Alpha  occ. eigenvalues --  -19.17987 -19.15797 -19.14152 -19.13345 -19.11543
 Alpha  occ. eigenvalues --  -14.37057 -14.37051 -14.32313 -14.30997 -10.31943
 Alpha  occ. eigenvalues --  -10.31924 -10.28451 -10.27518 -10.24412 -10.24273
 Alpha  occ. eigenvalues --  -10.24046 -10.23817 -10.23302 -10.23126 -10.23056
 Alpha  occ. eigenvalues --  -10.22889 -10.22758 -10.22553 -10.22513 -10.22317
 Alpha  occ. eigenvalues --  -10.22307 -10.22059 -10.21973 -10.21324 -10.21253
 Alpha  occ. eigenvalues --  -10.21075 -10.21044 -10.20969 -10.20863 -10.20409
 Alpha  occ. eigenvalues --  -10.20318 -10.20315 -10.20273 -10.20210 -10.20162
 Alpha  occ. eigenvalues --  -10.20014 -10.19986 -10.19965 -10.19772 -10.19604
 Alpha  occ. eigenvalues --  -10.19572 -10.19568 -10.19545 -10.19502 -10.19469
 Alpha  occ. eigenvalues --  -10.19466 -10.19444 -10.19388 -10.19298 -10.19285
 Alpha  occ. eigenvalues --  -10.19251 -10.19044 -10.19013 -10.18889 -10.18589
 Alpha  occ. eigenvalues --  -10.18496 -10.18200 -10.18005 -10.17329  -1.10148
 Alpha  occ. eigenvalues --   -1.08285  -1.01746  -1.00898  -0.99328  -0.97137
 Alpha  occ. eigenvalues --   -0.96344  -0.93657  -0.92181  -0.86558  -0.82547
 Alpha  occ. eigenvalues --   -0.82266  -0.81691  -0.81145  -0.80663  -0.80302
 Alpha  occ. eigenvalues --   -0.80097  -0.79831  -0.79386  -0.79158  -0.77993
 Alpha  occ. eigenvalues --   -0.77218  -0.76019  -0.75504  -0.74917  -0.74377
 Alpha  occ. eigenvalues --   -0.73702  -0.72287  -0.72098  -0.71070  -0.70981
 Alpha  occ. eigenvalues --   -0.69974  -0.69518  -0.68060  -0.67083  -0.67053
 Alpha  occ. eigenvalues --   -0.66567  -0.66478  -0.66362  -0.64957  -0.64230
 Alpha  occ. eigenvalues --   -0.64110  -0.62343  -0.61778  -0.61154  -0.60970
 Alpha  occ. eigenvalues --   -0.60610  -0.59068  -0.58856  -0.57753  -0.57163
 Alpha  occ. eigenvalues --   -0.56933  -0.55309  -0.55230  -0.55165  -0.54680
 Alpha  occ. eigenvalues --   -0.54495  -0.53705  -0.53647  -0.53217  -0.52887
 Alpha  occ. eigenvalues --   -0.52648  -0.52547  -0.51397  -0.50814  -0.50466
 Alpha  occ. eigenvalues --   -0.50312  -0.49636  -0.48959  -0.48223  -0.47909
 Alpha  occ. eigenvalues --   -0.47857  -0.47444  -0.47127  -0.46934  -0.46697
 Alpha  occ. eigenvalues --   -0.46301  -0.46124  -0.46113  -0.45730  -0.45590
 Alpha  occ. eigenvalues --   -0.45223  -0.45028  -0.44848  -0.44820  -0.44718
 Alpha  occ. eigenvalues --   -0.44264  -0.44194  -0.43916  -0.43762  -0.43683
 Alpha  occ. eigenvalues --   -0.43437  -0.42980  -0.42777  -0.42385  -0.42260
 Alpha  occ. eigenvalues --   -0.42138  -0.41940  -0.41883  -0.41624  -0.41063
 Alpha  occ. eigenvalues --   -0.41011  -0.40998  -0.40510  -0.40325  -0.40063
 Alpha  occ. eigenvalues --   -0.39901  -0.39608  -0.39356  -0.39230  -0.39191
 Alpha  occ. eigenvalues --   -0.39076  -0.38884  -0.38860  -0.38480  -0.38406
 Alpha  occ. eigenvalues --   -0.38377  -0.37709  -0.37473  -0.37328  -0.37107
 Alpha  occ. eigenvalues --   -0.36885  -0.36816  -0.36793  -0.36652  -0.36612
 Alpha  occ. eigenvalues --   -0.35982  -0.35835  -0.35820  -0.35678  -0.35660
 Alpha  occ. eigenvalues --   -0.35445  -0.35022  -0.34959  -0.34836  -0.34525
 Alpha  occ. eigenvalues --   -0.34257  -0.34138  -0.34043  -0.33939  -0.33782
 Alpha  occ. eigenvalues --   -0.33260  -0.33228  -0.32535  -0.32380  -0.32183
 Alpha  occ. eigenvalues --   -0.32087  -0.32006  -0.31507  -0.31224  -0.30890
 Alpha  occ. eigenvalues --   -0.30816  -0.30592  -0.30454  -0.29919  -0.29722
 Alpha  occ. eigenvalues --   -0.29182  -0.29037  -0.28424  -0.28227  -0.28065
 Alpha  occ. eigenvalues --   -0.27237  -0.27162  -0.26744  -0.25311  -0.24979
 Alpha  occ. eigenvalues --   -0.24462  -0.23610  -0.23290  -0.23197  -0.20143
 Alpha  occ. eigenvalues --   -0.19716
 Alpha virt. eigenvalues --   -0.11384  -0.08390  -0.05249  -0.02711  -0.01347
 Alpha virt. eigenvalues --   -0.00590   0.00084   0.00442   0.01023   0.01763
 Alpha virt. eigenvalues --    0.02791   0.03337   0.03550   0.03714   0.04125

 Mulliken charges:
               1
     1  C    0.119484
     2  C   -0.100415
     3  C   -0.117090
     4  C   -0.003177
     5  N   -0.198119
     6  C   -0.128661
     7  C   -0.016185
     8  C    0.077149
     9  C   -0.061969
    10  C   -0.036397
    11  C   -0.038457
    12  C    0.022683
    13  C    0.200771
    14  O   -0.226515
    15  O   -0.358909
    16  N   -0.178540
    17  C    0.207990
    18  C   -0.083901
    19  C    0.011220
    20  C    0.121414
    21  C    0.071237
    22  C   -0.068610
    23  C   -0.056567
    24  N   -0.273193
    25  C    0.070833
    26  C   -0.142973
    27  C   -0.089125
    28  C    0.125677
    29  C    0.120219
    30  C    0.078013
    31  C   -0.034195
    32  N   -0.059394
    33  C    0.042712
    34  C   -0.083089
    35  C   -0.019082
    36  C    0.089505
    37  C   -0.025142
    38  C    0.069725
    39  O   -0.226203
    40  C   -0.140440
    41  C    0.210185
    42  O   -0.148684
    43  O   -0.339824
    44  C    0.009444
    45  C    0.325502
    46  C   -0.109233
    47  C   -0.097302
    48  C   -0.000460
    49  C    0.096549
    50  C    0.006134
    51  C    0.039849
    52  C   -0.080896
    53  C   -0.030073
    54  C    0.005626
    55  C   -0.027024
    56  C    0.085147
    57  C   -0.054401
    58  C    0.000043
    59  C   -0.008907
    60  C   -0.052059
    61  C   -0.016323
    62  C    0.004616
    63  C   -0.076068
    64  C    0.042005
    65  H    0.007967
    66  H    0.024903
    67  H   -0.070072
    68  H   -0.014460
    69  H   -0.002568
    70  H    0.058752
    71  H    0.013242
    72  H    0.037423
    73  H    0.052130
    74  H    0.010202
    75  H    0.058485
    76  H    0.061886
    77  H    0.032526
    78  H    0.032483
    79  H   -0.001136
    80  H    0.026220
    81  H    0.030699
    82  H    0.015909
    83  H    0.006707
    84  H    0.013786
    85  H    0.006759
    86  H    0.023205
    87  H   -0.033400
    88  H    0.019973
    89  H    0.031291
    90  H    0.038974
    91  H    0.063265
    92  H    0.067184
    93  H    0.054940
    94  H    0.090411
    95  H    0.079938
    96  H    0.101265
    97  H    0.091740
    98  H   -0.017919
    99  H    0.040314
   100  H   -0.016984
   101  H    0.011806
   102  H    0.037781
   103  H   -0.005398
   104  H   -0.015154
   105  H   -0.016975
   106  H    0.006552
   107  H    0.019400
   108  H   -0.026944
   109  H   -0.011533
   110  H    0.009969
   111  H    0.004004
   112  H    0.034327
   113  H    0.033463
   114  H    0.006705
   115  H    0.001618
   116  H    0.030823
   117  H    0.007991
   118  H   -0.057454
   119  H   -0.017995
   120  H    0.007126
   121  H    0.034065
   122  H   -0.006870
   123  H    0.018528
   124  H    0.005792
   125  H    0.010332
   126  H   -0.000604
   127  H   -0.000260
   128  H    0.015531
   129  H   -0.005533
   130  H   -0.036544
   131  H    0.032728
   132  H    0.012165
   133  H    0.016732
   134  H    0.008021
   135  H   -0.007893
   136  H    0.026649
   137  H    0.196420
   138  H    0.138461
 Sum of Mulliken charges =  -0.00000

 Dipole moment (field-independent basis, Debye):
    X=              0.2607    Y=              5.0744    Z=              1.5931  Tot=              5.3250
 Quadrupole moment (field-independent basis, Debye-Ang):
   XX=           -350.2260   YY=           -385.6300   ZZ=           -396.9589
   XY=            -32.2328   XZ=             22.5982   YZ=             -2.8993

 Normal termination of Gaussian 16 at Fri Aug 23 16:25:30 2019.
