 Gaussian 16, Revision A.03,
 Gaussian 16:  ES64L-G16RevA.03 25-Dec-2016

 --------------------------
 # td=(NStates=1) B3LYP/SVP
 --------------------------

 --
 TD
 --
 Symbolic Z-matrix:
 Charge =  0 Multiplicity = 1

                         Standard orientation:
 ---------------------------------------------------------------------
 Center     Atomic      Atomic             Coordinates (Angstroms)
 Number     Number       Type             X           Y           Z
 ---------------------------------------------------------------------
      1          6           0       -5.090481   -1.914087    0.403725
      2          6           0       -4.682559    2.794565    1.541315
      3          6           0       -9.321715    3.357373   -0.288061
      4          6           0       -9.820557   -1.473630   -0.996729
      5          7           0       -5.137900    0.457953    0.810845
      6          6           0       -4.489393   -0.718746    0.939074
      7          6           0       -3.032416   -0.569952    1.411626
      8          6           0       -3.157345    0.862332    1.999341
      9          6           0       -4.435415    1.382408    1.446338
     10          6           0       -3.076729    0.876387    3.551775
     11          6           0       -1.993258   -0.726133    0.344813
     12          6           0       -0.560553   -0.572758    0.670729
     13          6           0        0.391241   -1.040683   -0.437335
     14          8           0        0.057727   -1.510197   -1.384578
     15          8           0        1.655246   -0.724888   -0.135710
     16          7           0       -6.980598    2.869109    0.383201
     17          6           0       -5.877031    3.516891    1.087777
     18          6           0       -6.292065    4.857818    1.149973
     19          6           0       -7.475985    4.990917    0.390332
     20          6           0       -8.057662    3.682855    0.089337
     21          6           0       -5.345731    5.939518    1.700887
     22          6           0       -8.162005    6.247290    0.349452
     23          6           0       -9.288453    6.584672   -0.365153
     24          7           0       -9.138552    0.852205   -0.561546
     25          6           0       -9.783374    2.095546   -0.590277
     26          6           0      -11.131088    1.876319   -1.214744
     27          6           0      -11.286285    0.523084   -1.361277
     28          6           0      -10.065979   -0.092371   -0.917211
     29          6           0      -12.157082    3.070272   -1.413571
     30          6           0      -12.537387   -0.018129   -1.943527
     31          6           0      -12.579960   -0.496950   -3.499217
     32          7           0       -7.465236   -1.289726   -0.301850
     33          6           0       -8.605232   -2.045986   -0.660490
     34          6           0       -8.133586   -3.461093   -0.643793
     35          6           0       -6.872536   -3.488783   -0.259391
     36          6           0       -6.402531   -2.071419    0.013802
     37          6           0       -9.125812   -4.556959   -1.045552
     38          6           0       -5.722463   -4.349900    0.029912
     39          8           0       -5.641256   -5.515358   -0.022580
     40          6           0       -4.526030   -3.408115    0.492923
     41          6           0       -3.835441   -3.742736    1.805717
     42          8           0       -4.069258   -3.404946    2.879513
     43          8           0       -3.147990   -4.932304    1.579445
     44          6           0       -2.664766   -5.570804    2.780103
     45          6           0        2.726678   -1.174764   -1.027591
     46          6           0        3.882330   -0.770551   -0.443145
     47          6           0        4.940496   -0.053765   -1.016252
     48          6           0        4.917194    0.453161   -2.468058
     49          6           0        6.336692    0.210236   -0.361651
     50          6           0        7.542906   -0.555856   -0.909283
     51          6           0        8.772629   -0.255014   -0.183483
     52          6           0       10.108382   -0.770207   -0.803652
     53          6           0       10.060140   -2.382836   -0.895579
     54          6           0       11.280578   -0.294619    0.021429
     55          6           0       12.649259   -0.649667   -0.516656
     56          6           0       13.843788    0.058573    0.143881
     57          6           0       15.265032   -0.135960   -0.528238
     58          6           0       15.685991   -1.586305   -0.656385
     59          6           0       16.169045    0.671329    0.329926
     60          6           0       17.556825    0.817278   -0.203087
     61          6           0       18.540585    1.755175    0.534116
     62          6           0       19.977444    1.747538    0.021752
     63          6           0       20.222393    2.170390   -1.469113
     64          6           0       20.763070    2.522086    1.130251
     65          1           0       -4.074510    3.204492    2.186432
     66          1           0      -10.045087    4.044121   -0.397515
     67          1           0      -10.584966   -2.250778   -1.300825
     68          1           0       -3.017478   -1.246521    2.283292
     69          1           0       -2.253436    1.519679    1.418713
     70          1           0       -2.139700    0.369519    3.876403
     71          1           0       -3.375079    1.915517    3.962720
     72          1           0       -3.875753    0.100739    3.771364
     73          1           0       -2.054120   -1.632638   -0.049659
     74          1           0       -2.299376   -0.120104   -0.493514
     75          1           0       -0.151780    0.535473    0.870978
     76          1           0       -0.250777   -1.197411    1.698017
     77          1           0       -4.345638    6.034493    1.165338
     78          1           0       -5.631217    6.964380    1.832365
     79          1           0       -5.129346    5.765022    2.775790
     80          1           0       -7.730885    6.941072    0.885434
     81          1           0       -9.692400    5.974625   -1.211937
     82          1           0       -9.806083    7.592854   -0.484500
     83          1           0      -12.454322    3.447217   -0.322119
     84          1           0      -11.604798    4.066188   -1.760047
     85          1           0      -13.039701    2.779609   -2.009652
     86          1           0      -12.768388   -0.976610   -1.398435
     87          1           0      -13.367627    0.628095   -1.719436
     88          1           0      -12.518434    0.354329   -4.048491
     89          1           0      -11.617004   -1.085960   -3.589402
     90          1           0      -13.604074   -1.049719   -3.701893
     91          1           0       -9.932271   -4.928777   -0.283852
     92          1           0       -9.691660   -4.167055   -1.938990
     93          1           0       -8.687128   -5.602153   -1.244288
     94          1           0       -3.745394   -3.475374   -0.356220
     95          1           0       -2.279031   -6.341786    2.263936
     96          1           0       -2.045341   -4.978389    3.512632
     97          1           0       -3.495964   -6.092960    3.524048
     98          1           0        2.636485   -2.308137   -1.267113
     99          1           0        2.311986   -0.629196   -1.959386
    100          1           0        4.242348   -1.248591    0.606824
    101          1           0        5.291985    1.481472   -2.454353
    102          1           0        5.483136   -0.259687   -3.118643
    103          1           0        3.917889    0.334918   -2.732318
    104          1           0        6.455846    1.333110   -0.099465
    105          1           0        6.204224   -0.310195    0.746387
    106          1           0        7.390249   -1.703348   -0.995440
    107          1           0        7.559581   -0.380706   -2.182211
    108          1           0        9.130956    0.874980   -0.343065
    109          1           0        8.657613   -0.349575    0.937263
    110          1           0       10.345438   -0.294477   -1.851252
    111          1           0        9.113817   -2.785264   -1.274437
    112          1           0       10.869431   -2.763358   -1.610931
    113          1           0       10.117773   -2.686393    0.220873
    114          1           0       11.291988    0.795617    0.158365
    115          1           0       11.049975   -0.610497    0.987679
    116          1           0       12.937057   -1.763417   -0.893887
    117          1           0       12.694586   -0.356784   -1.530016
    118          1           0       13.707823    1.122900    0.127778
    119          1           0       14.004945   -0.028048    1.428722
    120          1           0       15.372803    0.356973   -1.567480
    121          1           0       15.151876   -1.966655   -1.553796
    122          1           0       16.641086   -1.851795   -0.983782
    123          1           0       15.490399   -2.273757    0.389201
    124          1           0       15.717591    1.867485    0.751896
    125          1           0       16.346406   -0.104161    1.247798
    126          1           0       17.846959   -0.270932   -0.259218
    127          1           0       17.592339    1.183671   -1.320746
    128          1           0       18.167128    2.750890    0.493684
    129          1           0       18.412918    1.630570    1.566053
    130          1           0       20.102791    0.611918    0.253999
    131          1           0       19.786150    3.182465   -1.579995
    132          1           0       21.227150    2.311238   -1.630509
    133          1           0       19.622701    1.558550   -2.102812
    134          1           0       20.637082    2.133560    2.162210
    135          1           0       22.007199    2.850502    1.069886
    136          1           0       20.123037    3.556884    1.155068
    137          1           0       -6.859491    1.866236    0.170608
    138          1           0       -7.534985   -0.166813   -0.094216
 ---------------------------------------------------------------------

 SCF Done:  E(RB3LYP) =  -2733.01882231     A.U. after   16 cycles

 Excitation energies and oscillator strengths:

 Excited State   1:      Singlet-A      1.9796 eV  626.30 nm  f=0.1745  <S**2>=0.000
     235 -> 238       -0.30880
     236 -> 237        0.63397
 This state for optimization and/or second-order correction.
 Total Energy, E(TD-HF/TD-DFT) =  -2732.94607228
 Copying the excited state density for this state as the 1-particle RhoCI density.

 The electronic state is 1-A.
 Alpha  occ. eigenvalues --  -19.16766 -19.15946 -19.13808 -19.12935 -19.12618
 Alpha  occ. eigenvalues --  -14.37030 -14.36331 -14.32731 -14.30161 -10.31450
 Alpha  occ. eigenvalues --  -10.30244 -10.28457 -10.25446 -10.24417 -10.24164
 Alpha  occ. eigenvalues --  -10.23883 -10.23827 -10.23783 -10.23546 -10.22765
 Alpha  occ. eigenvalues --  -10.22296 -10.22214 -10.21623 -10.21564 -10.21537
 Alpha  occ. eigenvalues --  -10.21428 -10.21309 -10.21249 -10.21223 -10.21192
 Alpha  occ. eigenvalues --  -10.20896 -10.20857 -10.20677 -10.20555 -10.20434
 Alpha  occ. eigenvalues --  -10.20415 -10.20325 -10.20312 -10.20178 -10.20162
 Alpha  occ. eigenvalues --  -10.20150 -10.20006 -10.20005 -10.19870 -10.19839
 Alpha  occ. eigenvalues --  -10.19790 -10.19779 -10.19509 -10.19358 -10.19332
 Alpha  occ. eigenvalues --  -10.19238 -10.19171 -10.18926 -10.18904 -10.18891
 Alpha  occ. eigenvalues --  -10.18833 -10.18775 -10.18763 -10.18628 -10.18340
 Alpha  occ. eigenvalues --  -10.17810 -10.17803 -10.17770 -10.17123  -1.12512
 Alpha  occ. eigenvalues --   -1.10878  -1.05840  -1.03125  -1.01639  -0.96941
 Alpha  occ. eigenvalues --   -0.96111  -0.95551  -0.92260  -0.83723  -0.82766
 Alpha  occ. eigenvalues --   -0.82412  -0.81962  -0.81345  -0.81024  -0.81006
 Alpha  occ. eigenvalues --   -0.80253  -0.79871  -0.78894  -0.78411  -0.78137
 Alpha  occ. eigenvalues --   -0.77185  -0.75923  -0.75428  -0.74884  -0.73498
 Alpha  occ. eigenvalues --   -0.73338  -0.72843  -0.71905  -0.71659  -0.70204
 Alpha  occ. eigenvalues --   -0.69918  -0.68834  -0.68594  -0.68266  -0.67654
 Alpha  occ. eigenvalues --   -0.67215  -0.66910  -0.66141  -0.65946  -0.65133
 Alpha  occ. eigenvalues --   -0.64304  -0.62918  -0.62408  -0.61955  -0.61576
 Alpha  occ. eigenvalues --   -0.61408  -0.58836  -0.58247  -0.57950  -0.56832
 Alpha  occ. eigenvalues --   -0.56700  -0.55582  -0.55540  -0.55346  -0.55089
 Alpha  occ. eigenvalues --   -0.54859  -0.54363  -0.53895  -0.53633  -0.53252
 Alpha  occ. eigenvalues --   -0.52577  -0.52410  -0.51589  -0.51084  -0.50575
 Alpha  occ. eigenvalues --   -0.50203  -0.49143  -0.48952  -0.48289  -0.48226
 Alpha  occ. eigenvalues --   -0.48054  -0.47634  -0.47329  -0.47112  -0.46956
 Alpha  occ. eigenvalues --   -0.46827  -0.46618  -0.46007  -0.45808  -0.45466
 Alpha  occ. eigenvalues --   -0.45365  -0.45276  -0.45216  -0.44775  -0.44709
 Alpha  occ. eigenvalues --   -0.44374  -0.44254  -0.44102  -0.43679  -0.43611
 Alpha  occ. eigenvalues --   -0.43465  -0.43046  -0.42947  -0.42666  -0.42525
 Alpha  occ. eigenvalues --   -0.42328  -0.41912  -0.41887  -0.41790  -0.41424
 Alpha  occ. eigenvalues --   -0.41292  -0.40919  -0.40697  -0.40497  -0.40412
 Alpha  occ. eigenvalues --   -0.40308  -0.40122  -0.40075  -0.39779  -0.39636
 Alpha  occ. eigenvalues --   -0.39395  -0.39306  -0.39036  -0.38704  -0.38674
 Alpha  occ. eigenvalues --   -0.38468  -0.38236  -0.37859  -0.37637  -0.37534
 Alpha  occ. eigenvalues --   -0.37441  -0.37086  -0.37072  -0.36928  -0.36792
 Alpha  occ. eigenvalues --   -0.36628  -0.36523  -0.36337  -0.36112  -0.35849
 Alpha  occ. eigenvalues --   -0.35646  -0.35517  -0.35217  -0.35057  -0.34979
 Alpha  occ. eigenvalues --   -0.34714  -0.34616  -0.34570  -0.34477  -0.34137
 Alpha  occ. eigenvalues --   -0.33661  -0.33288  -0.33248  -0.32619  -0.32359
 Alpha  occ. eigenvalues --   -0.32114  -0.32097  -0.31651  -0.31647  -0.31141
 Alpha  occ. eigenvalues --   -0.30964  -0.30191  -0.30057  -0.29994  -0.29410
 Alpha  occ. eigenvalues --   -0.29118  -0.29039  -0.28957  -0.28513  -0.28432
 Alpha  occ. eigenvalues --   -0.27973  -0.27758  -0.27443  -0.26417  -0.25993
 Alpha  occ. eigenvalues --   -0.25544  -0.24718  -0.22891  -0.22123  -0.20175
 Alpha  occ. eigenvalues --   -0.18713
 Alpha virt. eigenvalues --   -0.10320  -0.08333  -0.04728  -0.01895  -0.01557
 Alpha virt. eigenvalues --   -0.00835   0.00767   0.01666   0.02597   0.03656
 Alpha virt. eigenvalues --    0.03767   0.04007   0.04149   0.04279   0.04808

 Mulliken charges:
               1
     1  C    0.000804
     2  C    0.047034
     3  C   -0.025484
     4  C   -0.112332
     5  N   -0.140502
     6  C   -0.126464
     7  C    0.004856
     8  C   -0.140158
     9  C   -0.023603
    10  C    0.051763
    11  C    0.247124
    12  C   -0.087774
    13  C    0.120554
    14  O   -0.129245
    15  O   -0.336398
    16  N   -0.161092
    17  C    0.124948
    18  C   -0.107802
    19  C    0.023876
    20  C    0.192791
    21  C    0.058056
    22  C    0.041710
    23  C   -0.074120
    24  N   -0.274183
    25  C    0.069738
    26  C   -0.133457
    27  C   -0.087766
    28  C    0.128049
    29  C    0.027762
    30  C    0.028008
    31  C    0.017141
    32  N   -0.131210
    33  C    0.060958
    34  C   -0.117104
    35  C    0.004026
    36  C    0.069946
    37  C    0.009393
    38  C    0.094874
    39  O   -0.095978
    40  C   -0.101396
    41  C    0.200947
    42  O   -0.153511
    43  O   -0.330593
    44  C    0.163191
    45  C    0.209647
    46  C   -0.033853
    47  C   -0.225376
    48  C    0.137006
    49  C    0.000885
    50  C   -0.015534
    51  C   -0.000226
    52  C   -0.120259
    53  C    0.000623
    54  C    0.102201
    55  C    0.088868
    56  C    0.008872
    57  C   -0.086324
    58  C    0.016803
    59  C   -0.062330
    60  C   -0.002643
    61  C    0.069281
    62  C   -0.107912
    63  C    0.124697
    64  C   -0.052579
    65  H   -0.091751
    66  H   -0.104900
    67  H    0.001422
    68  H   -0.000220
    69  H    0.028991
    70  H    0.029908
    71  H    0.040592
    72  H    0.029386
    73  H   -0.054587
    74  H   -0.003621
    75  H    0.048669
    76  H    0.046807
    77  H    0.041278
    78  H    0.000804
    79  H    0.015009
    80  H   -0.081771
    81  H    0.029571
    82  H    0.032478
    83  H    0.041173
    84  H    0.037102
    85  H    0.033390
    86  H   -0.007881
    87  H   -0.006126
    88  H   -0.005774
    89  H    0.024028
    90  H    0.036177
    91  H    0.048126
    92  H    0.040098
    93  H    0.041936
    94  H    0.073847
    95  H    0.012609
    96  H    0.043809
    97  H    0.032531
    98  H    0.047174
    99  H    0.040793
   100  H    0.021845
   101  H    0.025039
   102  H    0.038459
   103  H   -0.030800
   104  H    0.040204
   105  H    0.001402
   106  H    0.020116
   107  H    0.007199
   108  H    0.008876
   109  H    0.013992
   110  H    0.006164
   111  H    0.009045
   112  H    0.028668
   113  H    0.019140
   114  H   -0.018237
   115  H   -0.034573
   116  H    0.002973
   117  H   -0.043510
   118  H   -0.018192
   119  H    0.006205
   120  H    0.000926
   121  H    0.005623
   122  H   -0.002382
   123  H    0.038463
   124  H    0.017675
   125  H    0.007544
   126  H   -0.004508
   127  H   -0.008598
   128  H   -0.038747
   129  H   -0.034393
   130  H    0.002587
   131  H   -0.007657
   132  H   -0.000022
   133  H    0.013806
   134  H    0.018190
   135  H    0.030424
   136  H    0.007848
   137  H    0.142858
   138  H    0.216052
 Sum of Mulliken charges =  -0.00000

 Dipole moment (field-independent basis, Debye):
    X=              2.6891    Y=              2.5140    Z=             -0.1006  Tot=              3.6826
 Quadrupole moment (field-independent basis, Debye-Ang):
   XX=           -369.0187   YY=           -387.0000   ZZ=           -393.3232
   XY=            -15.7732   XZ=             -1.7220   YZ=              1.5498

 Normal termination of Gaussian 16 at Wed Aug 21 05:53:49 2019.
