 Gaussian 16, Revision A.03,
 Gaussian 16:  ES64L-G16RevA.03 25-Dec-2016

 --------------------------
 # td=(NStates=1) B3LYP/SVP
 --------------------------

 --
 TD
 --
 Symbolic Z-matrix:
 Charge =  0 Multiplicity = 1

                         Standard orientation:
 ---------------------------------------------------------------------
 Center     Atomic      Atomic             Coordinates (Angstroms)
 Number     Number       Type             X           Y           Z
 ---------------------------------------------------------------------
      1          6           0       -5.240408   -1.933073    0.433250
      2          6           0       -4.640590    2.690828    1.413884
      3          6           0       -9.290623    3.434736   -0.257022
      4          6           0       -9.864514   -1.366865   -1.135122
      5          7           0       -5.168591    0.473465    0.847454
      6          6           0       -4.524730   -0.699656    0.922461
      7          6           0       -3.108726   -0.701038    1.305580
      8          6           0       -3.082475    0.774431    1.883803
      9          6           0       -4.434368    1.349658    1.348872
     10          6           0       -3.077294    0.767786    3.379396
     11          6           0       -1.990753   -0.986327    0.061221
     12          6           0       -0.606739   -0.888549    0.709170
     13          6           0        0.393299   -1.166355   -0.359551
     14          8           0        0.104270   -1.467982   -1.582447
     15          8           0        1.671558   -0.863190   -0.035861
     16          7           0       -6.990859    2.769039    0.525029
     17          6           0       -5.781762    3.384843    1.064647
     18          6           0       -6.053593    4.773510    1.009173
     19          6           0       -7.394958    4.982942    0.575254
     20          6           0       -7.908564    3.756357    0.270751
     21          6           0       -5.058551    5.817914    1.378439
     22          6           0       -7.913658    6.365321    0.269542
     23          6           0       -8.975027    6.743309   -0.514280
     24          7           0       -9.176030    0.949825   -0.592022
     25          6           0       -9.703603    2.156120   -0.645780
     26          6           0      -11.081380    1.967473   -0.962553
     27          6           0      -11.337574    0.666991   -1.184418
     28          6           0      -10.130258    0.077309   -0.979173
     29          6           0      -12.113960    3.072081   -1.115742
     30          6           0      -12.649170    0.047502   -1.668336
     31          6           0      -12.800153   -0.348918   -3.133421
     32          7           0       -7.560212   -1.227237   -0.202043
     33          6           0       -8.646002   -1.974975   -0.748891
     34          6           0       -8.263683   -3.335182   -0.662214
     35          6           0       -7.002098   -3.400855   -0.162570
     36          6           0       -6.544289   -2.062793    0.059975
     37          6           0       -9.104867   -4.473363   -1.046730
     38          6           0       -5.859976   -4.251698   -0.045298
     39          8           0       -5.832427   -5.501369   -0.097072
     40          6           0       -4.656536   -3.376170    0.403996
     41          6           0       -3.999673   -3.878910    1.594544
     42          8           0       -4.308956   -3.556853    2.766136
     43          8           0       -3.205845   -4.822510    1.382890
     44          6           0       -2.494635   -5.495745    2.497347
     45          6           0        2.646335   -1.178309   -1.036032
     46          6           0        3.944544   -0.988240   -0.458370
     47          6           0        4.907731   -0.100909   -0.965596
     48          6           0        4.789935    0.833559   -2.032993
     49          6           0        6.199923   -0.044542   -0.056386
     50          6           0        7.463863   -0.474559   -0.782976
     51          6           0        8.730120   -0.456170    0.014841
     52          6           0       10.112312   -0.823654   -0.811871
     53          6           0       10.162639   -2.257772   -1.286551
     54          6           0       11.289099   -0.461435    0.024539
     55          6           0       12.649152   -0.687430   -0.805384
     56          6           0       13.766746    0.126242   -0.008262
     57          6           0       15.297722   -0.017258   -0.504666
     58          6           0       15.585295   -1.583568   -0.413811
     59          6           0       16.254133    0.846524    0.309311
     60          6           0       17.711871    0.787364   -0.253204
     61          6           0       18.573019    1.680818    0.580141
     62          6           0       20.063618    1.688327    0.120155
     63          6           0       20.341911    2.147045   -1.339389
     64          6           0       20.949365    2.529666    1.146475
     65          1           0       -3.749904    3.388007    1.770139
     66          1           0       -9.848207    4.309523   -0.476888
     67          1           0      -10.708042   -1.935904   -1.563988
     68          1           0       -3.011389   -1.418000    2.181048
     69          1           0       -2.259293    1.361219    1.638724
     70          1           0       -2.256471    0.306711    3.802469
     71          1           0       -3.056818    1.857870    3.789231
     72          1           0       -3.764796    0.256182    3.873423
     73          1           0       -2.222944   -2.013591   -0.157635
     74          1           0       -2.050508   -0.233279   -0.647917
     75          1           0       -0.562103    0.205791    0.932040
     76          1           0       -0.351453   -1.517841    1.431636
     77          1           0       -4.342393    5.789574    0.836824
     78          1           0       -5.389731    6.859560    1.124025
     79          1           0       -4.620626    5.598313    2.256550
     80          1           0       -7.476711    7.285768    0.863200
     81          1           0       -9.553917    5.983340   -1.095233
     82          1           0       -9.263778    7.849244   -0.416632
     83          1           0      -12.497550    3.500036   -0.041252
     84          1           0      -11.737375    3.874868   -1.784713
     85          1           0      -12.927089    2.494408   -1.592034
     86          1           0      -12.896951   -0.899576   -1.065201
     87          1           0      -13.445212    0.816354   -1.203654
     88          1           0      -12.616097    0.468181   -3.847741
     89          1           0      -11.941350   -0.930532   -3.433738
     90          1           0      -13.759713   -0.970497   -3.286093
     91          1           0       -9.771703   -4.688098   -0.201772
     92          1           0       -9.778667   -4.420143   -2.090094
     93          1           0       -8.670545   -5.349584   -0.913974
     94          1           0       -3.821510   -3.287614   -0.452429
     95          1           0       -1.897479   -6.156912    1.830811
     96          1           0       -2.016498   -4.838867    3.192147
     97          1           0       -3.316575   -5.966046    3.165914
     98          1           0        2.580452   -2.201814   -1.425628
     99          1           0        2.579803   -0.612797   -1.814627
    100          1           0        4.132397   -1.578049    0.506296
    101          1           0        5.037509    1.897628   -1.942636
    102          1           0        5.369504    0.575223   -3.066605
    103          1           0        3.728420    0.857141   -2.329029
    104          1           0        6.606982    1.011056    0.344096
    105          1           0        5.743211   -0.479392    0.881865
    106          1           0        7.045747   -1.534623   -0.993325
    107          1           0        7.565988    0.139201   -1.668282
    108          1           0        8.902954    0.588493    0.460848
    109          1           0        8.551668   -1.146141    0.844598
    110          1           0       10.173393   -0.219347   -1.676685
    111          1           0        9.204663   -2.594929   -1.847112
    112          1           0       10.948592   -2.452424   -1.843915
    113          1           0       10.335711   -2.837252   -0.282478
    114          1           0       11.079480    0.580598    0.310154
    115          1           0       11.233510   -1.103922    0.874536
    116          1           0       12.972765   -1.685350   -1.037172
    117          1           0       12.505662   -0.172483   -1.717919
    118          1           0       13.558711    1.355639    0.074320
    119          1           0       13.873169   -0.189265    0.995816
    120          1           0       15.479526    0.372862   -1.470243
    121          1           0       14.956382   -2.178332   -0.906595
    122          1           0       16.502495   -2.008828   -0.686084
    123          1           0       15.557509   -1.876560    0.783021
    124          1           0       16.043653    1.885762    0.192204
    125          1           0       16.249817    0.627977    1.428744
    126          1           0       18.036409   -0.332619   -0.125696
    127          1           0       17.757870    1.171866   -1.261398
    128          1           0       18.213151    2.667448    0.480995
    129          1           0       18.481876    1.494174    1.699002
    130          1           0       20.371126    0.612903    0.179974
    131          1           0       20.062679    3.144943   -1.485030
    132          1           0       21.521465    2.127713   -1.571416
    133          1           0       20.079345    1.325117   -2.124765
    134          1           0       20.884627    2.164479    2.120965
    135          1           0       21.922700    2.499126    0.753592
    136          1           0       20.622262    3.606488    1.249040
    137          1           0       -7.326660    1.756292    0.834834
    138          1           0       -7.706745   -0.222910   -0.074602
 ---------------------------------------------------------------------

 SCF Done:  E(RB3LYP) =  -2733.05901561     A.U. after   17 cycles

 Excitation energies and oscillator strengths:

 Excited State   1:      Singlet-A      2.0010 eV  619.60 nm  f=0.1288  <S**2>=0.000
     235 -> 237       -0.16748
     235 -> 238        0.30401
     236 -> 237        0.59871
     236 -> 238        0.12609
 This state for optimization and/or second-order correction.
 Total Energy, E(TD-HF/TD-DFT) =  -2732.98547917
 Copying the excited state density for this state as the 1-particle RhoCI density.

 The electronic state is 1-A.
 Alpha  occ. eigenvalues --  -19.18853 -19.18660 -19.12328 -19.11878 -19.10354
 Alpha  occ. eigenvalues --  -14.36489 -14.36066 -14.32102 -14.28848 -10.32303
 Alpha  occ. eigenvalues --  -10.30698 -10.27883 -10.26358 -10.23930 -10.23640
 Alpha  occ. eigenvalues --  -10.23240 -10.23202 -10.23166 -10.22884 -10.21981
 Alpha  occ. eigenvalues --  -10.21741 -10.21483 -10.21394 -10.21185 -10.20972
 Alpha  occ. eigenvalues --  -10.20912 -10.20870 -10.20861 -10.20843 -10.20700
 Alpha  occ. eigenvalues --  -10.20623 -10.20609 -10.20296 -10.20244 -10.20213
 Alpha  occ. eigenvalues --  -10.20122 -10.20006 -10.19888 -10.19793 -10.19648
 Alpha  occ. eigenvalues --  -10.19582 -10.19289 -10.19276 -10.19209 -10.19185
 Alpha  occ. eigenvalues --  -10.18993 -10.18980 -10.18903 -10.18855 -10.18742
 Alpha  occ. eigenvalues --  -10.18673 -10.18616 -10.18125 -10.17991 -10.17754
 Alpha  occ. eigenvalues --  -10.17718 -10.17557 -10.17446 -10.17353 -10.17349
 Alpha  occ. eigenvalues --  -10.17301 -10.17054 -10.16977 -10.16741  -1.12004
 Alpha  occ. eigenvalues --   -1.09378  -1.00668  -0.98259  -0.97670  -0.97603
 Alpha  occ. eigenvalues --   -0.97559  -0.96067  -0.95272  -0.85014  -0.83123
 Alpha  occ. eigenvalues --   -0.81994  -0.81581  -0.81403  -0.81071  -0.80838
 Alpha  occ. eigenvalues --   -0.80321  -0.79433  -0.79171  -0.78598  -0.78430
 Alpha  occ. eigenvalues --   -0.77465  -0.77012  -0.76244  -0.74935  -0.74035
 Alpha  occ. eigenvalues --   -0.73960  -0.73779  -0.73179  -0.72036  -0.71371
 Alpha  occ. eigenvalues --   -0.71291  -0.69863  -0.69454  -0.68295  -0.67522
 Alpha  occ. eigenvalues --   -0.67360  -0.67103  -0.66645  -0.66386  -0.65561
 Alpha  occ. eigenvalues --   -0.64152  -0.63409  -0.62577  -0.61839  -0.61573
 Alpha  occ. eigenvalues --   -0.60631  -0.59479  -0.58278  -0.58102  -0.57865
 Alpha  occ. eigenvalues --   -0.57746  -0.56718  -0.56674  -0.55962  -0.55539
 Alpha  occ. eigenvalues --   -0.55480  -0.54943  -0.54527  -0.53937  -0.53449
 Alpha  occ. eigenvalues --   -0.52783  -0.52335  -0.52120  -0.51756  -0.51004
 Alpha  occ. eigenvalues --   -0.50689  -0.49705  -0.49517  -0.49380  -0.48855
 Alpha  occ. eigenvalues --   -0.48347  -0.48006  -0.47639  -0.47270  -0.47091
 Alpha  occ. eigenvalues --   -0.46890  -0.46509  -0.46365  -0.46116  -0.45680
 Alpha  occ. eigenvalues --   -0.45609  -0.45397  -0.44993  -0.44660  -0.44558
 Alpha  occ. eigenvalues --   -0.44374  -0.44249  -0.43870  -0.43792  -0.43403
 Alpha  occ. eigenvalues --   -0.43270  -0.42995  -0.42896  -0.42721  -0.42634
 Alpha  occ. eigenvalues --   -0.42557  -0.42402  -0.41921  -0.41673  -0.41363
 Alpha  occ. eigenvalues --   -0.41240  -0.41049  -0.40629  -0.40537  -0.40310
 Alpha  occ. eigenvalues --   -0.39950  -0.39845  -0.39744  -0.39479  -0.39366
 Alpha  occ. eigenvalues --   -0.39244  -0.39184  -0.38782  -0.38548  -0.38462
 Alpha  occ. eigenvalues --   -0.38296  -0.38204  -0.38139  -0.38003  -0.37936
 Alpha  occ. eigenvalues --   -0.37507  -0.37268  -0.37116  -0.37026  -0.36956
 Alpha  occ. eigenvalues --   -0.36794  -0.36759  -0.36478  -0.35939  -0.35864
 Alpha  occ. eigenvalues --   -0.35775  -0.35587  -0.35495  -0.35467  -0.35265
 Alpha  occ. eigenvalues --   -0.35018  -0.34958  -0.34451  -0.34371  -0.34236
 Alpha  occ. eigenvalues --   -0.33739  -0.33022  -0.32764  -0.32541  -0.32456
 Alpha  occ. eigenvalues --   -0.32379  -0.32048  -0.31684  -0.31667  -0.31451
 Alpha  occ. eigenvalues --   -0.31207  -0.31138  -0.30624  -0.30346  -0.30302
 Alpha  occ. eigenvalues --   -0.29924  -0.28972  -0.28197  -0.27767  -0.27562
 Alpha  occ. eigenvalues --   -0.27398  -0.26519  -0.26450  -0.26171  -0.25663
 Alpha  occ. eigenvalues --   -0.24973  -0.24393  -0.23486  -0.22580  -0.19733
 Alpha  occ. eigenvalues --   -0.18896
 Alpha virt. eigenvalues --   -0.10445  -0.08265  -0.05096  -0.02142  -0.02035
 Alpha virt. eigenvalues --   -0.01549  -0.00299   0.00728   0.02247   0.03701
 Alpha virt. eigenvalues --    0.04067   0.04561   0.04683   0.04770   0.05394

 Mulliken charges:
               1
     1  C    0.001922
     2  C   -0.125138
     3  C   -0.071393
     4  C   -0.083135
     5  N   -0.043370
     6  C   -0.074717
     7  C   -0.071494
     8  C   -0.044954
     9  C   -0.003104
    10  C    0.133067
    11  C    0.139205
    12  C    0.113663
    13  C    0.173617
    14  O   -0.313121
    15  O   -0.307314
    16  N   -0.153111
    17  C    0.098205
    18  C   -0.187084
    19  C    0.058441
    20  C    0.015121
    21  C    0.347475
    22  C   -0.082159
    23  C   -0.065866
    24  N   -0.194834
    25  C    0.118173
    26  C   -0.180132
    27  C   -0.070104
    28  C    0.004753
    29  C    0.066829
    30  C   -0.001884
    31  C    0.053673
    32  N   -0.044769
    33  C    0.110478
    34  C   -0.151222
    35  C    0.040642
    36  C    0.065516
    37  C    0.168110
    38  C    0.079863
    39  O   -0.209126
    40  C   -0.067833
    41  C    0.166148
    42  O   -0.304642
    43  O   -0.233051
    44  C    0.176052
    45  C    0.431993
    46  C   -0.153330
    47  C   -0.115615
    48  C    0.043448
    49  C   -0.007493
    50  C    0.030215
    51  C    0.037668
    52  C   -0.078493
    53  C    0.066248
    54  C    0.050514
    55  C    0.081149
    56  C   -0.017826
    57  C   -0.000642
    58  C    0.049511
    59  C    0.015450
    60  C    0.012767
    61  C    0.040764
    62  C   -0.100424
    63  C   -0.010498
    64  C    0.076733
    65  H    0.002973
    66  H   -0.056912
    67  H   -0.011976
    68  H    0.029811
    69  H   -0.036694
    70  H   -0.025067
    71  H    0.007502
    72  H   -0.026026
    73  H    0.014705
    74  H    0.006524
    75  H    0.047289
    76  H   -0.009250
    77  H   -0.098358
    78  H    0.005040
    79  H   -0.018015
    80  H    0.031651
    81  H    0.037535
    82  H    0.039844
    83  H    0.042543
    84  H    0.026970
    85  H    0.010940
    86  H    0.004835
    87  H    0.021881
    88  H    0.005196
    89  H   -0.008724
    90  H    0.036160
    91  H    0.011367
    92  H    0.057395
    93  H   -0.041737
    94  H    0.082333
    95  H    0.063731
    96  H    0.035088
    97  H    0.058953
    98  H    0.017893
    99  H   -0.079686
   100  H    0.013880
   101  H    0.027437
   102  H    0.041650
   103  H    0.001257
   104  H   -0.007465
   105  H    0.006866
   106  H    0.011226
   107  H   -0.002971
   108  H   -0.004592
   109  H   -0.009919
   110  H   -0.033766
   111  H    0.023099
   112  H   -0.029913
   113  H   -0.000762
   114  H   -0.003632
   115  H   -0.014860
   116  H    0.014460
   117  H   -0.018297
   118  H    0.006598
   119  H   -0.015072
   120  H   -0.028830
   121  H   -0.034156
   122  H   -0.014099
   123  H    0.005511
   124  H   -0.024438
   125  H   -0.004750
   126  H    0.010212
   127  H   -0.001938
   128  H   -0.036077
   129  H   -0.007391
   130  H   -0.009564
   131  H    0.006181
   132  H    0.007493
   133  H    0.031306
   134  H   -0.009526
   135  H   -0.006300
   136  H    0.001401
   137  H    0.201274
   138  H    0.123220
 Sum of Mulliken charges =  -0.00000

 Dipole moment (field-independent basis, Debye):
    X=              3.6230    Y=              2.9615    Z=              0.8183  Tot=              4.7504
 Quadrupole moment (field-independent basis, Debye-Ang):
   XX=           -373.9220   YY=           -382.3739   ZZ=           -394.8959
   XY=            -12.7676   XZ=              1.5669   YZ=             -2.9998

 Normal termination of Gaussian 16 at Sun Aug 11 01:16:04 2019.
