 Gaussian 16, Revision A.03,
 Gaussian 16:  ES64L-G16RevA.03 25-Dec-2016

 --------------------------
 # td=(NStates=1) B3LYP/SVP
 --------------------------

 --
 TD
 --
 Symbolic Z-matrix:
 Charge =  0 Multiplicity = 1

                         Standard orientation:
 ---------------------------------------------------------------------
 Center     Atomic      Atomic             Coordinates (Angstroms)
 Number     Number       Type             X           Y           Z
 ---------------------------------------------------------------------
      1          6           0       -5.068868   -1.856111    0.443349
      2          6           0       -4.846887    2.850198    1.423473
      3          6           0       -9.456645    3.327182   -0.223933
      4          6           0       -9.842670   -1.452937   -0.863790
      5          7           0       -5.382216    0.440421    0.928650
      6          6           0       -4.562771   -0.644004    0.866305
      7          6           0       -3.113046   -0.458835    1.189808
      8          6           0       -3.152682    1.027607    1.672976
      9          6           0       -4.561158    1.465806    1.344014
     10          6           0       -2.901312    1.037474    3.287324
     11          6           0       -2.103706   -0.739203    0.076492
     12          6           0       -0.518942   -0.644262    0.474575
     13          6           0        0.477207   -0.829081   -0.603992
     14          8           0        0.111211   -1.119404   -1.798056
     15          8           0        1.727666   -0.753125   -0.165330
     16          7           0       -7.119568    2.753641    0.449634
     17          6           0       -6.080986    3.358047    1.015296
     18          6           0       -6.383861    4.756601    1.122787
     19          6           0       -7.656823    4.946476    0.592879
     20          6           0       -8.164412    3.570305    0.197823
     21          6           0       -5.499063    5.963392    1.609410
     22          6           0       -8.359748    6.188405    0.394420
     23          6           0       -9.227019    6.574515   -0.564991
     24          7           0       -9.302751    0.810276   -0.394609
     25          6           0       -9.932321    2.050577   -0.603307
     26          6           0      -11.376833    1.848351   -1.043806
     27          6           0      -11.466655    0.466948   -1.281500
     28          6           0      -10.143603   -0.120346   -0.885673
     29          6           0      -12.325890    2.903438   -1.384806
     30          6           0      -12.647528   -0.344022   -1.881547
     31          6           0      -12.425110   -0.787034   -3.337070
     32          7           0       -7.535236   -1.296493   -0.100637
     33          6           0       -8.599777   -2.049349   -0.498902
     34          6           0       -8.119958   -3.400500   -0.634573
     35          6           0       -6.828852   -3.455770   -0.165405
     36          6           0       -6.492741   -2.120509    0.043947
     37          6           0       -9.040950   -4.534552   -1.119902
     38          6           0       -5.679563   -4.282764    0.031556
     39          8           0       -5.457282   -5.445087   -0.228771
     40          6           0       -4.481682   -3.337006    0.556303
     41          6           0       -3.894852   -3.865829    1.787575
     42          8           0       -4.105893   -3.374464    2.876544
     43          8           0       -3.015782   -4.909663    1.588266
     44          6           0       -2.540827   -5.549026    2.768919
     45          6           0        2.703464   -1.061484   -1.171950
     46          6           0        4.051214   -0.819481   -0.535026
     47          6           0        5.082333    0.080988   -0.862054
     48          6           0        4.962663    0.953908   -2.130573
     49          6           0        6.368790    0.084124   -0.129480
     50          6           0        7.543397   -0.438136   -0.918868
     51          6           0        8.817743   -0.327880   -0.034672
     52          6           0       10.105827   -0.853715   -0.672651
     53          6           0       10.050478   -2.273962   -1.021869
     54          6           0       11.307402   -0.284556    0.180293
     55          6           0       12.748491   -0.615013   -0.401337
     56          6           0       13.986135    0.071312    0.325334
     57          6           0       15.286522   -0.147769   -0.398848
     58          6           0       15.719243   -1.647041   -0.485031
     59          6           0       16.267649    0.753360    0.400953
     60          6           0       17.705475    0.667640   -0.222363
     61          6           0       18.707702    1.603920    0.565223
     62          6           0       20.144243    1.629182   -0.098950
     63          6           0       20.115797    2.361630   -1.500935
     64          6           0       21.058733    2.316334    0.939250
     65          1           0       -4.147293    3.501444    2.033451
     66          1           0      -10.248595    4.131235   -0.226123
     67          1           0      -10.676872   -2.201072   -1.097971
     68          1           0       -2.651319   -1.136375    1.981035
     69          1           0       -2.328058    1.520791    1.045651
     70          1           0       -1.869192    0.464589    3.331999
     71          1           0       -2.805942    2.045386    3.801995
     72          1           0       -3.807618    0.428001    3.595843
     73          1           0       -2.169638   -1.884202   -0.029080
     74          1           0       -2.256115   -0.335636   -0.919312
     75          1           0       -0.160553    0.347511    1.041686
     76          1           0       -0.387923   -1.337753    1.406917
     77          1           0       -4.330407    5.683192    1.344457
     78          1           0       -5.840170    6.987975    1.276417
     79          1           0       -5.261761    5.931620    2.703831
     80          1           0       -8.077817    7.130488    1.009558
     81          1           0       -9.595906    6.062979   -1.336048
     82          1           0       -9.779216    7.567480   -0.358087
     83          1           0      -12.426645    3.585570   -0.496071
     84          1           0      -11.940172    3.546476   -2.305407
     85          1           0      -13.436456    2.514852   -1.397255
     86          1           0      -12.788265   -1.282788   -1.207950
     87          1           0      -13.535757    0.281647   -1.722964
     88          1           0      -12.321338   -0.028464   -3.979698
     89          1           0      -11.437457   -1.372058   -3.506907
     90          1           0      -13.345902   -1.470019   -3.708572
     91          1           0       -9.917612   -4.618011   -0.483482
     92          1           0       -9.526762   -4.497173   -2.107119
     93          1           0       -8.505805   -5.543532   -1.004285
     94          1           0       -3.728249   -3.579118   -0.172663
     95          1           0       -1.973309   -6.705868    2.512959
     96          1           0       -1.851411   -4.969117    3.452373
     97          1           0       -3.417540   -5.830182    3.273037
     98          1           0        2.500230   -2.167403   -1.542975
     99          1           0        2.623581   -0.478237   -2.091886
    100          1           0        4.181056   -1.313433    0.527520
    101          1           0        5.277535    1.989300   -1.927519
    102          1           0        5.696769    0.455358   -2.951151
    103          1           0        4.006612    0.976532   -2.529648
    104          1           0        6.554255    1.057214    0.066304
    105          1           0        6.214398   -0.681077    0.674241
    106          1           0        7.607678   -1.514717   -1.187759
    107          1           0        7.922062    0.243202   -1.857848
    108          1           0        9.000244    0.759417    0.376091
    109          1           0        8.642178   -0.839001    0.853725
    110          1           0       10.216095   -0.309191   -1.667143
    111          1           0        9.177408   -2.534307   -1.629692
    112          1           0       10.886267   -2.665244   -1.504354
    113          1           0        9.885245   -3.077679   -0.244143
    114          1           0       11.190693    0.768435    0.292637
    115          1           0       11.064349   -0.778278    1.075640
    116          1           0       12.912214   -1.772679   -0.439322
    117          1           0       12.817556   -0.241027   -1.428987
    118          1           0       13.618458    1.014528    0.508605
    119          1           0       14.111441   -0.287532    1.444649
    120          1           0       14.981000    0.159552   -1.313985
    121          1           0       14.873777   -2.242285   -1.071402
    122          1           0       16.591390   -1.650001   -1.203298
    123          1           0       15.850679   -2.015934    0.627422
    124          1           0       16.094362    1.919419    0.201473
    125          1           0       16.126369    0.648384    1.269776
    126          1           0       18.336747   -0.268774   -0.299509
    127          1           0       17.516978    0.904032   -1.264087
    128          1           0       18.245206    2.649230    0.619406
    129          1           0       19.067427    1.158139    1.624065
    130          1           0       20.455117    0.666259   -0.432093
    131          1           0       19.953526    3.393195   -1.327904
    132          1           0       21.145839    2.461943   -1.863033
    133          1           0       19.469671    1.994968   -2.213596
    134          1           0       21.243560    1.651315    2.047416
    135          1           0       22.012904    2.637539    0.325671
    136          1           0       20.524658    3.169241    1.226767
    137          1           0       -7.310947    1.722584    0.575097
    138          1           0       -7.715103   -0.149104   -0.254760
 ---------------------------------------------------------------------

 SCF Done:  E(RB3LYP) =  -2733.10468616     A.U. after   17 cycles

 Excitation energies and oscillator strengths:

 Excited State   1:      Singlet-A      2.0466 eV  605.81 nm  f=0.1870  <S**2>=0.000
     235 -> 238        0.28743
     236 -> 237        0.64093
 This state for optimization and/or second-order correction.
 Total Energy, E(TD-HF/TD-DFT) =  -2733.02947500
 Copying the excited state density for this state as the 1-particle RhoCI density.

 The electronic state is 1-A.
 Alpha  occ. eigenvalues --  -19.19294 -19.17418 -19.12063 -19.11906 -19.11746
 Alpha  occ. eigenvalues --  -14.38199 -14.36753 -14.33012 -14.31533 -10.32072
 Alpha  occ. eigenvalues --  -10.31152 -10.27890 -10.25778 -10.25414 -10.24511
 Alpha  occ. eigenvalues --  -10.24299 -10.23444 -10.23173 -10.22772 -10.22706
 Alpha  occ. eigenvalues --  -10.22692 -10.22326 -10.22291 -10.21573 -10.21459
 Alpha  occ. eigenvalues --  -10.21302 -10.21206 -10.21160 -10.21001 -10.20970
 Alpha  occ. eigenvalues --  -10.20951 -10.20780 -10.20763 -10.20747 -10.20692
 Alpha  occ. eigenvalues --  -10.20623 -10.20520 -10.20405 -10.20264 -10.20145
 Alpha  occ. eigenvalues --  -10.19892 -10.19826 -10.19798 -10.19750 -10.19688
 Alpha  occ. eigenvalues --  -10.19685 -10.19650 -10.19539 -10.19524 -10.19332
 Alpha  occ. eigenvalues --  -10.19169 -10.18974 -10.18938 -10.18923 -10.18719
 Alpha  occ. eigenvalues --  -10.18695 -10.18366 -10.18046 -10.17826 -10.17808
 Alpha  occ. eigenvalues --  -10.17658 -10.17429 -10.17366 -10.16682  -1.10196
 Alpha  occ. eigenvalues --   -1.08385  -1.02710  -1.00316  -0.99946  -0.98879
 Alpha  occ. eigenvalues --   -0.97824  -0.94399  -0.93131  -0.83672  -0.82970
 Alpha  occ. eigenvalues --   -0.81841  -0.81808  -0.81385  -0.80829  -0.80321
 Alpha  occ. eigenvalues --   -0.79639  -0.79270  -0.79250  -0.78787  -0.77668
 Alpha  occ. eigenvalues --   -0.76589  -0.75903  -0.75360  -0.74967  -0.74248
 Alpha  occ. eigenvalues --   -0.73244  -0.73075  -0.72146  -0.71413  -0.69818
 Alpha  occ. eigenvalues --   -0.69462  -0.68803  -0.68711  -0.68012  -0.67788
 Alpha  occ. eigenvalues --   -0.67518  -0.67292  -0.66395  -0.66096  -0.64736
 Alpha  occ. eigenvalues --   -0.63880  -0.63056  -0.62901  -0.62105  -0.61575
 Alpha  occ. eigenvalues --   -0.60944  -0.58936  -0.58241  -0.58117  -0.57452
 Alpha  occ. eigenvalues --   -0.57066  -0.56285  -0.56240  -0.56083  -0.55776
 Alpha  occ. eigenvalues --   -0.55327  -0.55323  -0.54134  -0.53966  -0.52992
 Alpha  occ. eigenvalues --   -0.52561  -0.51767  -0.51502  -0.50804  -0.49938
 Alpha  occ. eigenvalues --   -0.49740  -0.49455  -0.49209  -0.48845  -0.48471
 Alpha  occ. eigenvalues --   -0.48088  -0.47640  -0.47305  -0.47030  -0.46494
 Alpha  occ. eigenvalues --   -0.46447  -0.46077  -0.45815  -0.45684  -0.45582
 Alpha  occ. eigenvalues --   -0.45353  -0.45016  -0.44838  -0.44703  -0.44444
 Alpha  occ. eigenvalues --   -0.44387  -0.44098  -0.43922  -0.43841  -0.43259
 Alpha  occ. eigenvalues --   -0.43136  -0.42848  -0.42786  -0.42595  -0.42381
 Alpha  occ. eigenvalues --   -0.42050  -0.42014  -0.41797  -0.41163  -0.41085
 Alpha  occ. eigenvalues --   -0.41010  -0.40885  -0.40698  -0.40140  -0.40088
 Alpha  occ. eigenvalues --   -0.39794  -0.39563  -0.39527  -0.39424  -0.39339
 Alpha  occ. eigenvalues --   -0.38714  -0.38553  -0.38496  -0.38362  -0.38311
 Alpha  occ. eigenvalues --   -0.38108  -0.38053  -0.37885  -0.37656  -0.37519
 Alpha  occ. eigenvalues --   -0.37497  -0.37343  -0.37065  -0.37015  -0.36910
 Alpha  occ. eigenvalues --   -0.36562  -0.36528  -0.36326  -0.36305  -0.36175
 Alpha  occ. eigenvalues --   -0.35772  -0.35192  -0.35060  -0.34865  -0.34661
 Alpha  occ. eigenvalues --   -0.34459  -0.34384  -0.34261  -0.34055  -0.33850
 Alpha  occ. eigenvalues --   -0.33572  -0.33430  -0.33282  -0.32899  -0.32656
 Alpha  occ. eigenvalues --   -0.32168  -0.32032  -0.31872  -0.31542  -0.31163
 Alpha  occ. eigenvalues --   -0.31145  -0.31001  -0.30946  -0.30411  -0.30266
 Alpha  occ. eigenvalues --   -0.30106  -0.29196  -0.28497  -0.28173  -0.27681
 Alpha  occ. eigenvalues --   -0.27338  -0.27194  -0.27130  -0.26594  -0.26199
 Alpha  occ. eigenvalues --   -0.24816  -0.24276  -0.24097  -0.23221  -0.20000
 Alpha  occ. eigenvalues --   -0.19182
 Alpha virt. eigenvalues --   -0.10616  -0.07735  -0.04323  -0.02474  -0.01559
 Alpha virt. eigenvalues --   -0.00967  -0.00102   0.00158   0.01814   0.03324
 Alpha virt. eigenvalues --    0.03658   0.03719   0.04069   0.04143   0.04657

 Mulliken charges:
               1
     1  C    0.078551
     2  C   -0.123969
     3  C   -0.126821
     4  C   -0.091201
     5  N   -0.181610
     6  C   -0.041565
     7  C   -0.042445
     8  C   -0.058106
     9  C    0.031272
    10  C   -0.010503
    11  C    0.045930
    12  C   -0.075486
    13  C    0.223438
    14  O   -0.304480
    15  O   -0.272128
    16  N   -0.011577
    17  C    0.110916
    18  C   -0.109650
    19  C    0.047409
    20  C    0.108521
    21  C    0.043399
    22  C   -0.093104
    23  C   -0.023354
    24  N   -0.291650
    25  C    0.071794
    26  C   -0.147618
    27  C   -0.096377
    28  C    0.094293
    29  C    0.032424
    30  C    0.075384
    31  C    0.010754
    32  N   -0.071478
    33  C    0.025319
    34  C   -0.137106
    35  C    0.064316
    36  C   -0.007210
    37  C    0.074051
    38  C    0.021687
    39  O   -0.157679
    40  C   -0.031663
    41  C    0.194917
    42  O   -0.228724
    43  O   -0.310390
    44  C    0.149060
    45  C    0.247030
    46  C   -0.118922
    47  C   -0.179137
    48  C    0.064482
    49  C    0.224429
    50  C   -0.046909
    51  C   -0.012527
    52  C   -0.057513
    53  C    0.064414
    54  C    0.082028
    55  C   -0.007394
    56  C    0.017484
    57  C   -0.018383
    58  C   -0.009981
    59  C    0.165995
    60  C    0.008415
    61  C   -0.025577
    62  C   -0.103031
    63  C    0.065119
    64  C   -0.000970
    65  H    0.006589
    66  H    0.011950
    67  H    0.003461
    68  H    0.015583
    69  H    0.022074
    70  H    0.034598
    71  H    0.036486
    72  H    0.056372
    73  H    0.026729
    74  H    0.022861
    75  H    0.042006
    76  H    0.047821
    77  H    0.027686
    78  H    0.053352
    79  H    0.024699
    80  H    0.021289
    81  H   -0.021504
    82  H    0.032554
    83  H    0.023304
    84  H    0.059963
    85  H    0.029244
    86  H    0.017472
    87  H   -0.004342
    88  H   -0.014192
    89  H    0.023555
    90  H    0.027581
    91  H    0.014390
    92  H    0.024407
    93  H    0.041390
    94  H    0.041288
    95  H    0.049771
    96  H    0.043947
    97  H    0.017795
    98  H    0.043776
    99  H    0.015371
   100  H    0.011118
   101  H    0.017250
   102  H    0.049155
   103  H   -0.007562
   104  H   -0.035162
   105  H    0.003731
   106  H    0.009149
   107  H    0.018934
   108  H   -0.009651
   109  H   -0.035968
   110  H   -0.017462
   111  H   -0.004170
   112  H   -0.012080
   113  H   -0.011447
   114  H   -0.014271
   115  H   -0.019778
   116  H    0.019505
   117  H   -0.010882
   118  H   -0.037456
   119  H   -0.017649
   120  H   -0.050644
   121  H    0.024120
   122  H    0.027234
   123  H    0.035382
   124  H    0.000332
   125  H   -0.119011
   126  H    0.004444
   127  H   -0.005831
   128  H    0.007744
   129  H    0.018822
   130  H   -0.008946
   131  H   -0.025670
   132  H   -0.008226
   133  H    0.002212
   134  H    0.039732
   135  H    0.020635
   136  H    0.000924
   137  H    0.181299
   138  H    0.224223
 Sum of Mulliken charges =  -0.00000

 Dipole moment (field-independent basis, Debye):
    X=              1.1436    Y=              5.5015    Z=              0.5206  Tot=              5.6432
 Quadrupole moment (field-independent basis, Debye-Ang):
   XX=           -340.2591   YY=           -384.1706   ZZ=           -398.0129
   XY=            -26.7782   XZ=              3.7921   YZ=             -0.4617

 Normal termination of Gaussian 16 at Thu Aug 29 03:24:42 2019.
