 Gaussian 16, Revision A.03,
 Gaussian 16:  ES64L-G16RevA.03 25-Dec-2016

 --------------------------
 # td=(NStates=1) B3LYP/SVP
 --------------------------

 --
 TD
 --
 Symbolic Z-matrix:
 Charge =  0 Multiplicity = 1

                         Standard orientation:
 ---------------------------------------------------------------------
 Center     Atomic      Atomic             Coordinates (Angstroms)
 Number     Number       Type             X           Y           Z
 ---------------------------------------------------------------------
      1          6           0       -5.196589   -1.910051    0.509807
      2          6           0       -4.694911    2.751089    1.457321
      3          6           0       -9.350660    3.342445   -0.163258
      4          6           0       -9.892957   -1.395106   -1.095730
      5          7           0       -5.266738    0.378418    0.866146
      6          6           0       -4.517737   -0.782343    0.982208
      7          6           0       -3.099521   -0.693484    1.413273
      8          6           0       -3.085633    0.882534    1.861599
      9          6           0       -4.436881    1.385087    1.441339
     10          6           0       -2.922893    0.938299    3.404216
     11          6           0       -2.157869   -0.909189    0.130248
     12          6           0       -0.643778   -0.968906    0.615184
     13          6           0        0.327746   -1.070830   -0.584737
     14          8           0       -0.031446   -1.371164   -1.727840
     15          8           0        1.568703   -0.794023   -0.205022
     16          7           0       -7.066193    2.735968    0.563082
     17          6           0       -5.946144    3.426600    1.031294
     18          6           0       -6.209653    4.857521    0.971239
     19          6           0       -7.542370    4.990375    0.584105
     20          6           0       -8.047219    3.634322    0.261932
     21          6           0       -5.258198    5.881518    1.572199
     22          6           0       -8.095237    6.364727    0.198790
     23          6           0       -9.145738    6.660377   -0.634246
     24          7           0       -9.229965    0.931331   -0.617068
     25          6           0       -9.835430    2.134302   -0.490112
     26          6           0      -11.244431    1.975891   -0.973098
     27          6           0      -11.469436    0.658586   -1.197749
     28          6           0      -10.166334   -0.024362   -0.932828
     29          6           0      -12.167016    3.056565   -0.919071
     30          6           0      -12.675560    0.042146   -1.763956
     31          6           0      -12.786645   -0.312783   -3.268867
     32          7           0       -7.618629   -1.302607   -0.203771
     33          6           0       -8.670010   -2.001373   -0.680144
     34          6           0       -8.298197   -3.371646   -0.565336
     35          6           0       -6.993541   -3.348716   -0.198997
     36          6           0       -6.546023   -2.032041    0.060010
     37          6           0       -9.123660   -4.513037   -1.162460
     38          6           0       -5.784344   -4.300516    0.004389
     39          8           0       -5.712317   -5.461777   -0.119995
     40          6           0       -4.527368   -3.320387    0.392440
     41          6           0       -3.845417   -3.907017    1.577370
     42          8           0       -3.939156   -3.529115    2.771922
     43          8           0       -3.173831   -4.978670    1.249685
     44          6           0       -2.543317   -5.739663    2.301106
     45          6           0        2.705318   -1.017645   -1.084798
     46          6           0        4.030595   -0.879403   -0.412928
     47          6           0        5.037663   -0.124497   -1.007510
     48          6           0        4.972696    0.686640   -2.289412
     49          6           0        6.339678    0.048119   -0.211109
     50          6           0        7.594541   -0.484749   -0.825594
     51          6           0        8.861401   -0.299416    0.008362
     52          6           0       10.151217   -0.763421   -0.589900
     53          6           0       10.145056   -2.304303   -0.757051
     54          6           0       11.333859   -0.222232    0.217249
     55          6           0       12.773663   -0.592813   -0.456020
     56          6           0       13.898493   -0.097669    0.445909
     57          6           0       15.285594   -0.150671   -0.292355
     58          6           0       15.647706   -1.676099   -0.526031
     59          6           0       16.356102    0.641052    0.458829
     60          6           0       17.716419    0.712552   -0.184272
     61          6           0       18.766711    1.656424    0.508792
     62          6           0       20.027233    1.753200   -0.190329
     63          6           0       20.197110    2.510394   -1.605923
     64          6           0       21.051965    2.570006    0.785209
     65          1           0       -4.039714    3.420335    1.924789
     66          1           0      -10.081728    4.131046    0.187731
     67          1           0      -10.757443   -2.016607   -1.194723
     68          1           0       -2.775485   -1.393262    2.236484
     69          1           0       -2.287620    1.415373    1.256698
     70          1           0       -2.102480    0.817765    3.828633
     71          1           0       -3.299153    2.045501    3.938880
     72          1           0       -3.671686    0.313661    3.885832
     73          1           0       -2.350457   -1.641911   -0.527843
     74          1           0       -2.256336   -0.034668   -0.355358
     75          1           0       -0.473364    0.017457    1.092120
     76          1           0       -0.249867   -1.991848    1.166392
     77          1           0       -4.281230    5.910330    0.773509
     78          1           0       -5.778696    6.789509    1.399744
     79          1           0       -4.911439    5.606991    2.745034
     80          1           0       -7.550501    7.193702    0.770872
     81          1           0       -9.537926    5.750443   -1.097997
     82          1           0       -9.316150    7.829903   -0.757413
     83          1           0      -12.129279    3.423030    0.178726
     84          1           0      -11.899722    3.903547   -1.828375
     85          1           0      -13.227312    2.695932   -1.250731
     86          1           0      -13.184471   -0.847840   -1.146416
     87          1           0      -13.608182    0.687038   -1.353362
     88          1           0      -12.490807    0.586176   -3.949993
     89          1           0      -12.086602   -1.252590   -3.449213
     90          1           0      -14.015560   -0.726846   -3.470951
     91          1           0      -10.163159   -4.534998   -0.702209
     92          1           0       -9.208363   -4.692329   -2.371430
     93          1           0       -8.744517   -5.481114   -0.772535
     94          1           0       -3.714196   -3.417433   -0.450070
     95          1           0       -2.312694   -6.703060    1.804212
     96          1           0       -1.824648   -4.912698    2.908789
     97          1           0       -3.367371   -5.982921    2.896682
     98          1           0        2.740767   -2.166900   -1.563948
     99          1           0        2.690508   -0.373550   -2.082607
    100          1           0        3.936039   -1.293530    0.668600
    101          1           0        5.696979    1.615226   -2.126153
    102          1           0        5.399217    0.105722   -3.259465
    103          1           0        3.980220    0.765531   -2.697827
    104          1           0        6.431507    1.009123    0.298965
    105          1           0        6.353038   -0.664104    0.630706
    106          1           0        7.440874   -1.569081   -0.948148
    107          1           0        7.778450    0.031287   -1.863549
    108          1           0        8.936311    0.751500    0.194348
    109          1           0        8.839319   -0.749429    1.051025
    110          1           0       10.077295   -0.328398   -1.709563
    111          1           0        9.227730   -2.402496   -1.206188
    112          1           0       10.971422   -2.762962   -1.505214
    113          1           0       10.236534   -2.953245    0.186406
    114          1           0       11.349983    0.878503    0.486247
    115          1           0       11.379754   -0.714721    1.306403
    116          1           0       12.658612   -1.658584   -0.520932
    117          1           0       12.654974   -0.078607   -1.394270
    118          1           0       13.855950    0.929693    0.764472
    119          1           0       13.766042   -0.891695    1.301171
    120          1           0       14.825437    0.364559   -1.384797
    121          1           0       14.575251   -2.152166   -0.608025
    122          1           0       16.439406   -1.794120   -1.270570
    123          1           0       15.924506   -2.168098    0.482579
    124          1           0       16.012767    1.661942    0.644537
    125          1           0       16.425539    0.261988    1.547419
    126          1           0       18.298928   -0.255793   -0.294096
    127          1           0       17.324085    1.087439   -1.149993
    128          1           0       18.215450    2.619925    0.650926
    129          1           0       18.852304    1.109950    1.443262
    130          1           0       20.526019    0.746360   -0.227334
    131          1           0       20.073678    3.665146   -1.385537
    132          1           0       21.269390    2.350354   -1.978487
    133          1           0       19.636269    2.147881   -2.357982
    134          1           0       21.228892    2.176395    1.768076
    135          1           0       22.151988    2.542597    0.341824
    136          1           0       21.034440    3.695146    0.568523
    137          1           0       -7.087667    1.672809    0.187064
    138          1           0       -7.655300   -0.321398   -0.096690
 ---------------------------------------------------------------------

 SCF Done:  E(RB3LYP) =  -2733.04163433     A.U. after   17 cycles

 Excitation energies and oscillator strengths:

 Excited State   1:      Singlet-A      2.0036 eV  618.80 nm  f=0.1965  <S**2>=0.000
     235 -> 237       -0.12858
     235 -> 238        0.28593
     236 -> 237        0.62839
 This state for optimization and/or second-order correction.
 Total Energy, E(TD-HF/TD-DFT) =  -2732.96800307
 Copying the excited state density for this state as the 1-particle RhoCI density.

 The electronic state is 1-A.
 Alpha  occ. eigenvalues --  -19.19167 -19.17875 -19.13580 -19.12172 -19.11196
 Alpha  occ. eigenvalues --  -14.37838 -14.36795 -14.33305 -14.29979 -10.31928
 Alpha  occ. eigenvalues --  -10.31151 -10.28876 -10.27165 -10.25593 -10.24172
 Alpha  occ. eigenvalues --  -10.23818 -10.23283 -10.23266 -10.23109 -10.23016
 Alpha  occ. eigenvalues --  -10.22547 -10.22240 -10.22125 -10.21795 -10.21792
 Alpha  occ. eigenvalues --  -10.21751 -10.21720 -10.21684 -10.21450 -10.21298
 Alpha  occ. eigenvalues --  -10.21032 -10.20987 -10.20801 -10.20777 -10.20728
 Alpha  occ. eigenvalues --  -10.20676 -10.20666 -10.20652 -10.20638 -10.20509
 Alpha  occ. eigenvalues --  -10.20372 -10.20126 -10.20124 -10.19944 -10.19754
 Alpha  occ. eigenvalues --  -10.19531 -10.19398 -10.19368 -10.18981 -10.18932
 Alpha  occ. eigenvalues --  -10.18928 -10.18872 -10.18829 -10.18815 -10.18772
 Alpha  occ. eigenvalues --  -10.18647 -10.18532 -10.18387 -10.18211 -10.18154
 Alpha  occ. eigenvalues --  -10.18010 -10.17981 -10.17949 -10.17942  -1.10153
 Alpha  occ. eigenvalues --   -1.09700  -1.05940  -1.00534  -0.99813  -0.97968
 Alpha  occ. eigenvalues --   -0.97212  -0.93122  -0.92843  -0.83637  -0.83014
 Alpha  occ. eigenvalues --   -0.81583  -0.81066  -0.80966  -0.80710  -0.80378
 Alpha  occ. eigenvalues --   -0.80056  -0.79528  -0.79401  -0.78897  -0.77552
 Alpha  occ. eigenvalues --   -0.76975  -0.75990  -0.75471  -0.74778  -0.74018
 Alpha  occ. eigenvalues --   -0.73825  -0.73119  -0.71767  -0.71309  -0.69903
 Alpha  occ. eigenvalues --   -0.69689  -0.69057  -0.68384  -0.68071  -0.67493
 Alpha  occ. eigenvalues --   -0.67066  -0.66546  -0.66054  -0.65912  -0.65393
 Alpha  occ. eigenvalues --   -0.63905  -0.63008  -0.62270  -0.61394  -0.60855
 Alpha  occ. eigenvalues --   -0.60112  -0.59014  -0.58693  -0.57860  -0.56832
 Alpha  occ. eigenvalues --   -0.56678  -0.55910  -0.55854  -0.55123  -0.54899
 Alpha  occ. eigenvalues --   -0.54667  -0.54437  -0.53338  -0.52904  -0.52679
 Alpha  occ. eigenvalues --   -0.52277  -0.51988  -0.51562  -0.50566  -0.50130
 Alpha  occ. eigenvalues --   -0.49855  -0.49279  -0.48872  -0.48625  -0.48425
 Alpha  occ. eigenvalues --   -0.48274  -0.47847  -0.47563  -0.47357  -0.47149
 Alpha  occ. eigenvalues --   -0.46895  -0.46645  -0.46129  -0.45793  -0.45589
 Alpha  occ. eigenvalues --   -0.45073  -0.45022  -0.44931  -0.44794  -0.44585
 Alpha  occ. eigenvalues --   -0.44189  -0.43960  -0.43784  -0.43673  -0.43426
 Alpha  occ. eigenvalues --   -0.43258  -0.43160  -0.43042  -0.42702  -0.42225
 Alpha  occ. eigenvalues --   -0.41980  -0.41892  -0.41388  -0.41162  -0.41066
 Alpha  occ. eigenvalues --   -0.40723  -0.40514  -0.40377  -0.40218  -0.40120
 Alpha  occ. eigenvalues --   -0.39885  -0.39856  -0.39523  -0.39459  -0.39400
 Alpha  occ. eigenvalues --   -0.39185  -0.38940  -0.38705  -0.38540  -0.38379
 Alpha  occ. eigenvalues --   -0.38312  -0.38048  -0.37775  -0.37553  -0.37495
 Alpha  occ. eigenvalues --   -0.37320  -0.37168  -0.36925  -0.36914  -0.36857
 Alpha  occ. eigenvalues --   -0.36635  -0.36234  -0.36045  -0.35884  -0.35709
 Alpha  occ. eigenvalues --   -0.35582  -0.35343  -0.35166  -0.35097  -0.34800
 Alpha  occ. eigenvalues --   -0.34610  -0.34570  -0.34077  -0.33913  -0.33657
 Alpha  occ. eigenvalues --   -0.33452  -0.32926  -0.32684  -0.32308  -0.31926
 Alpha  occ. eigenvalues --   -0.31569  -0.31503  -0.31407  -0.31306  -0.31200
 Alpha  occ. eigenvalues --   -0.30954  -0.30878  -0.30661  -0.30219  -0.29908
 Alpha  occ. eigenvalues --   -0.29674  -0.29287  -0.28838  -0.28179  -0.27678
 Alpha  occ. eigenvalues --   -0.27308  -0.27073  -0.26772  -0.26592  -0.25551
 Alpha  occ. eigenvalues --   -0.25081  -0.24624  -0.23955  -0.22760  -0.19725
 Alpha  occ. eigenvalues --   -0.18962
 Alpha virt. eigenvalues --   -0.10654  -0.07466  -0.03767  -0.01951  -0.01750
 Alpha virt. eigenvalues --   -0.00592   0.00051   0.00116   0.01506   0.02941
 Alpha virt. eigenvalues --    0.03296   0.03529   0.03730   0.04425   0.04808

 Mulliken charges:
               1
     1  C    0.030695
     2  C   -0.030247
     3  C   -0.140201
     4  C   -0.028984
     5  N   -0.240879
     6  C   -0.031627
     7  C   -0.048621
     8  C   -0.041135
     9  C    0.072348
    10  C    0.106555
    11  C    0.146831
    12  C   -0.014697
    13  C    0.169199
    14  O   -0.259171
    15  O   -0.288864
    16  N   -0.121232
    17  C    0.050766
    18  C   -0.129689
    19  C   -0.008732
    20  C    0.060872
    21  C    0.040165
    22  C   -0.075326
    23  C   -0.030144
    24  N   -0.251070
    25  C    0.097733
    26  C   -0.118966
    27  C   -0.011754
    28  C    0.030016
    29  C   -0.007694
    30  C   -0.052364
    31  C   -0.051589
    32  N    0.062663
    33  C    0.045001
    34  C   -0.163697
    35  C   -0.030889
    36  C    0.074884
    37  C    0.031060
    38  C    0.109248
    39  O   -0.101970
    40  C   -0.119697
    41  C    0.180931
    42  O   -0.288628
    43  O   -0.277062
    44  C    0.185455
    45  C    0.163071
    46  C   -0.092768
    47  C   -0.112251
    48  C    0.040089
    49  C    0.061640
    50  C    0.010038
    51  C    0.025854
    52  C   -0.074430
    53  C    0.024107
    54  C   -0.046062
    55  C    0.033567
    56  C    0.033877
    57  C   -0.151892
    58  C    0.022458
    59  C    0.068957
    60  C   -0.017568
    61  C    0.092184
    62  C   -0.099675
    63  C    0.035279
    64  C   -0.017077
    65  H   -0.047633
    66  H    0.032180
    67  H   -0.015388
    68  H    0.044085
    69  H    0.022223
    70  H   -0.046349
    71  H    0.003255
    72  H    0.024625
    73  H   -0.014531
    74  H   -0.029263
    75  H    0.036279
    76  H    0.065849
    77  H    0.048653
    78  H   -0.000817
    79  H    0.079451
    80  H    0.018966
    81  H    0.031424
    82  H    0.055866
    83  H    0.057239
    84  H    0.045027
    85  H    0.025140
    86  H    0.008441
    87  H    0.002446
    88  H    0.046229
    89  H    0.039393
    90  H    0.034488
    91  H    0.020603
    92  H    0.064909
    93  H    0.024460
    94  H    0.083330
    95  H    0.044392
    96  H    0.071955
    97  H    0.012592
    98  H    0.050240
    99  H    0.035860
   100  H    0.031259
   101  H    0.056033
   102  H    0.039999
   103  H    0.006689
   104  H    0.008892
   105  H   -0.016781
   106  H    0.011312
   107  H    0.000487
   108  H   -0.024371
   109  H   -0.009708
   110  H    0.000794
   111  H   -0.024581
   112  H    0.030148
   113  H    0.019979
   114  H   -0.002473
   115  H   -0.003898
   116  H    0.014728
   117  H   -0.005020
   118  H   -0.011318
   119  H    0.003261
   120  H    0.011112
   121  H    0.007910
   122  H    0.033851
   123  H    0.005002
   124  H   -0.020423
   125  H   -0.013484
   126  H    0.002035
   127  H   -0.002823
   128  H   -0.008586
   129  H   -0.009729
   130  H    0.000696
   131  H    0.028322
   132  H    0.016701
   133  H   -0.012605
   134  H    0.014159
   135  H   -0.013621
   136  H    0.012132
   137  H    0.221376
   138  H    0.098029
 Sum of Mulliken charges =  -0.00000

 Dipole moment (field-independent basis, Debye):
    X=              3.1684    Y=              2.7282    Z=              0.9857  Tot=              4.2958
 Quadrupole moment (field-independent basis, Debye-Ang):
   XX=           -378.5721   YY=           -380.2912   ZZ=           -401.5022
   XY=            -15.2501   XZ=              2.6525   YZ=             -1.1234

 Normal termination of Gaussian 16 at Sun Aug 25 19:24:53 2019.
