 Gaussian 16, Revision A.03,
 Gaussian 16:  ES64L-G16RevA.03 25-Dec-2016

 --------------------------
 # td=(NStates=1) B3LYP/SVP
 --------------------------

 --
 TD
 --
 Symbolic Z-matrix:
 Charge =  0 Multiplicity = 1

                         Standard orientation:
 ---------------------------------------------------------------------
 Center     Atomic      Atomic             Coordinates (Angstroms)
 Number     Number       Type             X           Y           Z
 ---------------------------------------------------------------------
      1          6           0       -5.066799   -2.004770    0.545798
      2          6           0       -4.778112    2.776669    1.438739
      3          6           0       -9.321528    3.421851   -0.295102
      4          6           0       -9.749811   -1.430398   -0.911502
      5          7           0       -5.015100    0.400891    0.722180
      6          6           0       -4.543258   -0.786954    0.890696
      7          6           0       -3.054843   -0.578963    1.245593
      8          6           0       -3.055666    0.824781    1.884873
      9          6           0       -4.401106    1.387193    1.353149
     10          6           0       -2.967305    0.813242    3.406980
     11          6           0       -2.102294   -0.808801    0.037279
     12          6           0       -0.592392   -0.848157    0.512285
     13          6           0        0.302100   -0.938972   -0.627429
     14          8           0       -0.056857   -1.291119   -1.733199
     15          8           0        1.606100   -0.691155   -0.249933
     16          7           0       -7.052234    2.753941    0.488701
     17          6           0       -6.017458    3.380490    1.164132
     18          6           0       -6.261051    4.749521    1.228123
     19          6           0       -7.544198    5.017387    0.568819
     20          6           0       -8.102038    3.674442    0.212802
     21          6           0       -5.292156    5.860331    1.686304
     22          6           0       -8.176183    6.344566    0.343904
     23          6           0       -8.962786    6.678655   -0.656430
     24          7           0       -9.146533    0.947438   -0.524613
     25          6           0       -9.952125    2.136523   -0.551281
     26          6           0      -11.295409    1.880031   -0.998418
     27          6           0      -11.384760    0.479618   -1.189900
     28          6           0      -10.058630   -0.036283   -0.921850
     29          6           0      -12.196435    2.930662   -1.099067
     30          6           0      -12.485994   -0.361764   -1.634313
     31          6           0      -12.475405   -0.576344   -3.248849
     32          7           0       -7.401206   -1.181160   -0.295016
     33          6           0       -8.559428   -2.043507   -0.598774
     34          6           0       -8.144652   -3.403185   -0.570847
     35          6           0       -6.819631   -3.401665   -0.155488
     36          6           0       -6.427267   -2.020970    0.094622
     37          6           0       -8.984885   -4.623389   -0.852632
     38          6           0       -5.775226   -4.346213    0.132504
     39          8           0       -5.693362   -5.505642    0.082830
     40          6           0       -4.488180   -3.403474    0.511546
     41          6           0       -3.853515   -3.916248    1.788155
     42          8           0       -3.974791   -3.444942    2.912023
     43          8           0       -3.025679   -4.903892    1.530045
     44          6           0       -2.439781   -5.601082    2.626377
     45          6           0        2.533395   -0.755617   -1.298658
     46          6           0        3.976458   -0.499086   -0.640422
     47          6           0        4.926091    0.178438   -1.190957
     48          6           0        5.011752    0.946246   -2.525941
     49          6           0        6.315682    0.205498   -0.394217
     50          6           0        7.457185   -0.289673   -1.150233
     51          6           0        8.822602   -0.375542   -0.353419
     52          6           0       10.122992   -0.710486   -1.043996
     53          6           0        9.950834   -2.160403   -1.731457
     54          6           0       11.256488   -0.567034    0.193813
     55          6           0       12.578166   -0.673248   -0.572901
     56          6           0       13.753277   -0.087763    0.286389
     57          6           0       15.144975   -0.284289   -0.289433
     58          6           0       15.613658   -1.704971   -0.507429
     59          6           0       16.164348    0.587029    0.571304
     60          6           0       17.569140    0.660898   -0.003395
     61          6           0       18.539615    1.661656    0.733669
     62          6           0       19.917787    1.674641    0.335616
     63          6           0       20.067497    2.284074   -1.085505
     64          6           0       20.784606    2.536622    1.169107
     65          1           0       -4.024291    3.360765    2.029943
     66          1           0       -9.706568    4.462721   -0.688926
     67          1           0      -10.372858   -2.144251   -1.253297
     68          1           0       -2.767070   -1.385118    2.262039
     69          1           0       -2.421449    1.718217    1.628313
     70          1           0       -2.009754    0.229076    3.891729
     71          1           0       -2.802292    1.837005    3.892037
     72          1           0       -3.908285    0.399524    3.806976
     73          1           0       -2.461348   -1.679145   -0.518362
     74          1           0       -2.301027    0.099591   -0.345665
     75          1           0       -0.389788    0.008885    1.018661
     76          1           0       -0.401729   -1.775436    1.166936
     77          1           0       -4.353331    5.990730    1.196147
     78          1           0       -5.907662    6.872546    1.813338
     79          1           0       -5.014459    5.566702    2.715865
     80          1           0       -8.094890    7.056301    1.158292
     81          1           0       -9.057212    5.846987   -1.658416
     82          1           0       -9.687636    7.675129   -0.889470
     83          1           0      -12.269439    3.480511   -0.218389
     84          1           0      -11.520435    3.815763   -1.729543
     85          1           0      -13.239098    2.665086   -1.749591
     86          1           0      -12.274271   -1.508049   -1.313330
     87          1           0      -13.663315   -0.041793   -1.321990
     88          1           0      -12.660454    0.236045   -3.776829
     89          1           0      -11.416142   -1.102213   -3.233021
     90          1           0      -13.233746   -1.247464   -3.502333
     91          1           0       -9.507388   -4.773234    0.186407
     92          1           0       -9.647774   -4.627684   -1.668215
     93          1           0       -8.185131   -5.521718   -0.807840
     94          1           0       -3.867807   -3.460668   -0.388242
     95          1           0       -1.884273   -6.388801    2.297187
     96          1           0       -1.809041   -4.930808    3.184569
     97          1           0       -3.057682   -6.041420    3.403509
     98          1           0        2.438603   -1.750862   -1.987563
     99          1           0        2.330623   -0.134029   -2.152166
    100          1           0        4.112303   -1.128410    0.250906
    101          1           0        5.579481    1.861969   -2.466071
    102          1           0        5.674109    0.223763   -3.171529
    103          1           0        4.104134    1.345690   -2.974793
    104          1           0        6.570107    1.280649   -0.034805
    105          1           0        6.303439   -0.277864    0.462033
    106          1           0        7.068166   -1.280023   -1.636249
    107          1           0        7.831504    0.291548   -2.154182
    108          1           0        9.076497    0.482172   -0.009330
    109          1           0        8.698278   -1.099159    0.419371
    110          1           0       10.229577    0.148314   -1.920174
    111          1           0        9.231363   -2.133060   -2.697460
    112          1           0       10.969316   -2.448191   -1.963654
    113          1           0        9.658240   -2.793371   -0.840402
    114          1           0       11.068973    0.479795    0.472300
    115          1           0       11.185536   -1.160323    1.042747
    116          1           0       12.793063   -1.827322   -0.974660
    117          1           0       12.390342   -0.079533   -1.463409
    118          1           0       13.368502    0.984753    0.492455
    119          1           0       13.667729   -0.522839    1.187763
    120          1           0       15.348178    0.310581   -1.275850
    121          1           0       14.939876   -2.203103   -1.181134
    122          1           0       16.615586   -1.716761   -0.969341
    123          1           0       15.789256   -2.331099    0.417353
    124          1           0       15.854250    1.584497    0.930372
    125          1           0       16.177504    0.166784    1.508024
    126          1           0       18.119587   -0.345686   -0.236553
    127          1           0       17.696943    0.875688   -1.046654
    128          1           0       17.922968    2.760577    0.693450
    129          1           0       18.538602    1.410598    1.830885
    130          1           0       20.276056    0.615016    0.393089
    131          1           0       19.778812    3.181169   -1.236360
    132          1           0       21.146497    2.355764   -1.317433
    133          1           0       19.620621    1.390370   -1.688941
    134          1           0       20.848867    2.090704    2.163126
    135          1           0       21.672746    2.512199    0.686310
    136          1           0       20.552870    3.710246    1.645524
    137          1           0       -7.287741    1.778498    0.544878
    138          1           0       -7.451569   -0.168135   -0.579645
 ---------------------------------------------------------------------

 SCF Done:  E(RB3LYP) =  -2732.96391315     A.U. after   16 cycles

 Excitation energies and oscillator strengths:

 Excited State   1:      Singlet-A      2.0143 eV  615.52 nm  f=0.0915  <S**2>=0.000
     235 -> 238        0.33569
     236 -> 237        0.60669
 This state for optimization and/or second-order correction.
 Total Energy, E(TD-HF/TD-DFT) =  -2732.88988946
 Copying the excited state density for this state as the 1-particle RhoCI density.

 The electronic state is 1-A.
 Alpha  occ. eigenvalues --  -19.18140 -19.17914 -19.13267 -19.12504 -19.11515
 Alpha  occ. eigenvalues --  -14.37263 -14.36335 -14.30908 -14.30540 -10.31367
 Alpha  occ. eigenvalues --  -10.31041 -10.28180 -10.24826 -10.24322 -10.24204
 Alpha  occ. eigenvalues --  -10.23747 -10.23445 -10.23432 -10.23285 -10.23102
 Alpha  occ. eigenvalues --  -10.22342 -10.22297 -10.22279 -10.21806 -10.21558
 Alpha  occ. eigenvalues --  -10.21503 -10.21486 -10.21351 -10.21304 -10.21253
 Alpha  occ. eigenvalues --  -10.20993 -10.20598 -10.20581 -10.20566 -10.20535
 Alpha  occ. eigenvalues --  -10.20128 -10.20068 -10.20059 -10.19942 -10.19922
 Alpha  occ. eigenvalues --  -10.19775 -10.19681 -10.19607 -10.19512 -10.19419
 Alpha  occ. eigenvalues --  -10.19095 -10.19004 -10.18913 -10.18879 -10.18855
 Alpha  occ. eigenvalues --  -10.18812 -10.18677 -10.18553 -10.18499 -10.18495
 Alpha  occ. eigenvalues --  -10.18190 -10.18049 -10.17951 -10.17877 -10.17790
 Alpha  occ. eigenvalues --  -10.17625 -10.17320 -10.16803 -10.16055  -1.10310
 Alpha  occ. eigenvalues --   -1.09098  -1.06417  -1.00892  -0.99525  -0.97224
 Alpha  occ. eigenvalues --   -0.96701  -0.95774  -0.91389  -0.84413  -0.82371
 Alpha  occ. eigenvalues --   -0.81963  -0.81669  -0.81394  -0.80972  -0.80650
 Alpha  occ. eigenvalues --   -0.80551  -0.79623  -0.79541  -0.78923  -0.77578
 Alpha  occ. eigenvalues --   -0.76610  -0.76356  -0.75984  -0.75285  -0.74455
 Alpha  occ. eigenvalues --   -0.74121  -0.72852  -0.72393  -0.71570  -0.70345
 Alpha  occ. eigenvalues --   -0.70020  -0.69554  -0.69101  -0.67781  -0.67744
 Alpha  occ. eigenvalues --   -0.67604  -0.67307  -0.66816  -0.66074  -0.65729
 Alpha  occ. eigenvalues --   -0.64212  -0.62669  -0.62213  -0.61192  -0.61113
 Alpha  occ. eigenvalues --   -0.60695  -0.58891  -0.58474  -0.58380  -0.57226
 Alpha  occ. eigenvalues --   -0.56924  -0.56697  -0.56211  -0.56193  -0.55508
 Alpha  occ. eigenvalues --   -0.54656  -0.54503  -0.53999  -0.53474  -0.52821
 Alpha  occ. eigenvalues --   -0.52513  -0.52362  -0.51482  -0.50552  -0.50350
 Alpha  occ. eigenvalues --   -0.50062  -0.49534  -0.48683  -0.48463  -0.48060
 Alpha  occ. eigenvalues --   -0.47831  -0.47606  -0.47080  -0.47061  -0.46983
 Alpha  occ. eigenvalues --   -0.46588  -0.46333  -0.46099  -0.45809  -0.45738
 Alpha  occ. eigenvalues --   -0.45387  -0.45209  -0.45164  -0.45082  -0.44800
 Alpha  occ. eigenvalues --   -0.44535  -0.44477  -0.44263  -0.43772  -0.43626
 Alpha  occ. eigenvalues --   -0.43460  -0.43429  -0.43212  -0.42889  -0.42659
 Alpha  occ. eigenvalues --   -0.42614  -0.42345  -0.42205  -0.41589  -0.41353
 Alpha  occ. eigenvalues --   -0.41259  -0.41043  -0.40752  -0.40527  -0.40384
 Alpha  occ. eigenvalues --   -0.40110  -0.40089  -0.39939  -0.39619  -0.39297
 Alpha  occ. eigenvalues --   -0.39256  -0.39037  -0.38893  -0.38694  -0.38645
 Alpha  occ. eigenvalues --   -0.38386  -0.38355  -0.38134  -0.37797  -0.37739
 Alpha  occ. eigenvalues --   -0.37642  -0.37545  -0.37036  -0.36955  -0.36736
 Alpha  occ. eigenvalues --   -0.36470  -0.36253  -0.36017  -0.35973  -0.35834
 Alpha  occ. eigenvalues --   -0.35715  -0.35461  -0.35347  -0.34938  -0.34893
 Alpha  occ. eigenvalues --   -0.34714  -0.33986  -0.33917  -0.33259  -0.33132
 Alpha  occ. eigenvalues --   -0.32864  -0.32705  -0.32544  -0.32504  -0.32006
 Alpha  occ. eigenvalues --   -0.31774  -0.31541  -0.31279  -0.31133  -0.30727
 Alpha  occ. eigenvalues --   -0.30486  -0.30164  -0.29971  -0.29869  -0.29644
 Alpha  occ. eigenvalues --   -0.29596  -0.28413  -0.28391  -0.28105  -0.27794
 Alpha  occ. eigenvalues --   -0.27461  -0.27075  -0.26701  -0.26214  -0.25407
 Alpha  occ. eigenvalues --   -0.25364  -0.24514  -0.23713  -0.21420  -0.20025
 Alpha  occ. eigenvalues --   -0.19255
 Alpha virt. eigenvalues --   -0.10384  -0.08737  -0.04341  -0.01843  -0.00321
 Alpha virt. eigenvalues --   -0.00225   0.00447   0.01921   0.02112   0.03002
 Alpha virt. eigenvalues --    0.03790   0.03898   0.04159   0.04453   0.04955

 Mulliken charges:
               1
     1  C   -0.055863
     2  C   -0.068736
     3  C   -0.080719
     4  C   -0.006404
     5  N   -0.089837
     6  C   -0.054784
     7  C   -0.185550
     8  C   -0.062359
     9  C   -0.031721
    10  C    0.002543
    11  C    0.166656
    12  C    0.093811
    13  C    0.164772
    14  O   -0.233957
    15  O   -0.304966
    16  N   -0.077751
    17  C    0.134470
    18  C   -0.145288
    19  C    0.011894
    20  C    0.046661
    21  C    0.090598
    22  C    0.001608
    23  C   -0.154458
    24  N   -0.313937
    25  C    0.083352
    26  C   -0.074298
    27  C   -0.020968
    28  C    0.105638
    29  C    0.037918
    30  C   -0.099396
    31  C    0.062669
    32  N   -0.101879
    33  C    0.032000
    34  C   -0.102098
    35  C   -0.041973
    36  C    0.136499
    37  C    0.054697
    38  C    0.033332
    39  O   -0.104482
    40  C   -0.022254
    41  C    0.211978
    42  O   -0.244574
    43  O   -0.271161
    44  C    0.246942
    45  C    0.211857
    46  C   -0.086657
    47  C   -0.090237
    48  C    0.072676
    49  C    0.153274
    50  C   -0.071828
    51  C    0.161275
    52  C   -0.216662
    53  C    0.029308
    54  C    0.034860
    55  C   -0.015682
    56  C    0.097360
    57  C   -0.081530
    58  C    0.057497
    59  C    0.114380
    60  C    0.007983
    61  C   -0.008741
    62  C   -0.098255
    63  C    0.097986
    64  C    0.050145
    65  H   -0.014939
    66  H    0.000120
    67  H   -0.092629
    68  H    0.045087
    69  H    0.006497
    70  H    0.033092
    71  H    0.008240
    72  H    0.029745
    73  H    0.019885
    74  H   -0.027856
    75  H   -0.008751
    76  H    0.052689
    77  H    0.033724
    78  H    0.031515
    79  H    0.017967
    80  H    0.018671
    81  H    0.063294
    82  H    0.076370
    83  H    0.007398
    84  H    0.024270
    85  H    0.048635
    86  H    0.024980
    87  H    0.029901
    88  H   -0.012756
    89  H    0.026578
    90  H   -0.005135
    91  H    0.052371
    92  H    0.035544
    93  H    0.062755
    94  H    0.063060
    95  H   -0.000176
    96  H    0.009677
    97  H    0.020308
    98  H    0.026821
    99  H   -0.012176
   100  H    0.001826
   101  H    0.006199
   102  H    0.048117
   103  H    0.018424
   104  H   -0.003080
   105  H   -0.060603
   106  H    0.010725
   107  H   -0.001033
   108  H   -0.075223
   109  H   -0.022101
   110  H    0.016168
   111  H    0.049010
   112  H   -0.002421
   113  H    0.011430
   114  H   -0.001937
   115  H   -0.007281
   116  H    0.027265
   117  H   -0.007015
   118  H   -0.003014
   119  H   -0.048111
   120  H    0.002481
   121  H    0.006350
   122  H    0.001628
   123  H    0.007955
   124  H   -0.019147
   125  H   -0.049978
   126  H   -0.022099
   127  H   -0.032077
   128  H    0.007661
   129  H   -0.012577
   130  H    0.003617
   131  H   -0.041534
   132  H   -0.012037
   133  H    0.016002
   134  H   -0.013914
   135  H   -0.021219
   136  H    0.023096
   137  H    0.139014
   138  H    0.177020
 Sum of Mulliken charges =  -0.00000

 Dipole moment (field-independent basis, Debye):
    X=              1.2599    Y=              3.3982    Z=              0.8275  Tot=              3.7175
 Quadrupole moment (field-independent basis, Debye-Ang):
   XX=           -344.3757   YY=           -370.6750   ZZ=           -397.5334
   XY=            -24.2297   XZ=             15.5815   YZ=              0.3346

 Normal termination of Gaussian 16 at Fri Aug 16 02:22:11 2019.
