 Gaussian 16, Revision A.03,
 Gaussian 16:  ES64L-G16RevA.03 25-Dec-2016

 --------------------------
 # td=(NStates=1) B3LYP/SVP
 --------------------------

 --
 TD
 --
 Symbolic Z-matrix:
 Charge =  0 Multiplicity = 1

                         Standard orientation:
 ---------------------------------------------------------------------
 Center     Atomic      Atomic             Coordinates (Angstroms)
 Number     Number       Type             X           Y           Z
 ---------------------------------------------------------------------
      1          6           0       -5.178206   -1.936261    0.339984
      2          6           0       -4.725347    2.713681    1.471774
      3          6           0       -9.217582    3.432441   -0.202745
      4          6           0       -9.939583   -1.374592   -0.886638
      5          7           0       -5.219860    0.455367    0.807159
      6          6           0       -4.580691   -0.787747    0.689397
      7          6           0       -3.072707   -0.637916    1.204501
      8          6           0       -3.035441    0.784932    1.798396
      9          6           0       -4.368617    1.338283    1.366509
     10          6           0       -2.937318    0.689090    3.336730
     11          6           0       -2.049583   -0.961068    0.010450
     12          6           0       -0.593179   -0.738490    0.528474
     13          6           0        0.304253   -1.274665   -0.489185
     14          8           0        0.015929   -1.783003   -1.477254
     15          8           0        1.622003   -0.900909   -0.196180
     16          7           0       -6.918187    2.713847    0.471677
     17          6           0       -5.886780    3.344287    1.056907
     18          6           0       -6.119834    4.763035    1.081759
     19          6           0       -7.398119    5.003450    0.472132
     20          6           0       -7.905781    3.714780    0.138190
     21          6           0       -5.233758    5.952263    1.464926
     22          6           0       -7.865217    6.329273    0.091083
     23          6           0       -8.866999    6.665254   -0.755031
     24          7           0       -9.219977    0.931348   -0.437409
     25          6           0       -9.877948    2.135399   -0.468043
     26          6           0      -11.232014    1.981918   -0.879421
     27          6           0      -11.486027    0.621696   -1.116213
     28          6           0      -10.215495    0.023700   -0.895758
     29          6           0      -12.112032    3.126677   -0.973617
     30          6           0      -12.680634   -0.001944   -1.640859
     31          6           0      -12.733252   -0.340134   -3.097513
     32          7           0       -7.637254   -1.165328   -0.211703
     33          6           0       -8.676171   -1.953233   -0.755166
     34          6           0       -8.200806   -3.320443   -0.812625
     35          6           0       -6.931586   -3.308132   -0.460365
     36          6           0       -6.571950   -1.996596   -0.042380
     37          6           0       -9.191059   -4.441676   -0.993736
     38          6           0       -5.834086   -4.254500   -0.136747
     39          8           0       -5.836042   -5.533377   -0.223040
     40          6           0       -4.680888   -3.338523    0.429938
     41          6           0       -4.121828   -3.754839    1.794453
     42          8           0       -4.468912   -3.230786    2.848115
     43          8           0       -3.352747   -4.794681    1.627934
     44          6           0       -2.869555   -5.297144    2.905998
     45          6           0        2.684603   -1.388731   -1.086371
     46          6           0        4.004971   -1.008759   -0.463466
     47          6           0        4.914595   -0.203967   -0.907416
     48          6           0        4.918769    0.515887   -2.266289
     49          6           0        6.255462    0.003325   -0.187248
     50          6           0        7.635405   -0.447541   -0.887831
     51          6           0        8.778564   -0.227655    0.057830
     52          6           0       10.120920   -0.770360   -0.684214
     53          6           0       10.055098   -2.227652   -1.074673
     54          6           0       11.300841   -0.455544    0.091379
     55          6           0       12.733622   -0.539365   -0.696241
     56          6           0       13.915046   -0.041323    0.169787
     57          6           0       15.301294   -0.092268   -0.535694
     58          6           0       15.838211   -1.604232   -0.884345
     59          6           0       16.356247    0.618626    0.374665
     60          6           0       17.726676    0.774930   -0.249580
     61          6           0       18.750150    1.670120    0.605266
     62          6           0       20.210854    1.650174    0.225274
     63          6           0       20.364403    2.403534   -1.193091
     64          6           0       21.007041    2.452282    1.238774
     65          1           0       -4.126569    3.529655    2.118733
     66          1           0       -9.925818    4.283282   -0.152689
     67          1           0      -10.629611   -1.759313   -1.501271
     68          1           0       -2.870973   -1.382547    1.956707
     69          1           0       -2.175624    1.439006    1.385577
     70          1           0       -1.847449    0.245864    3.480310
     71          1           0       -3.101106    1.632315    3.815966
     72          1           0       -3.585717   -0.019394    3.797432
     73          1           0       -2.073354   -1.982087   -0.275219
     74          1           0       -2.184004   -0.233257   -0.645322
     75          1           0       -0.481409    0.321804    0.953261
     76          1           0       -0.382497   -1.682328    1.345252
     77          1           0       -4.181642    5.692556    1.108685
     78          1           0       -5.969738    6.743265    0.939433
     79          1           0       -5.428472    6.115585    2.766207
     80          1           0       -7.320964    7.351292    0.388780
     81          1           0       -9.288816    5.902071   -1.355626
     82          1           0       -9.301317    7.812255   -1.001873
     83          1           0      -12.124016    3.785227   -0.098691
     84          1           0      -11.998339    3.840447   -1.575010
     85          1           0      -13.214527    2.716494   -0.915818
     86          1           0      -12.986689   -0.892864   -1.082282
     87          1           0      -13.618378    0.649870   -1.442475
     88          1           0      -12.426627    0.352971   -3.834101
     89          1           0      -11.968651   -1.118575   -3.378778
     90          1           0      -13.620577   -0.987350   -3.346321
     91          1           0      -10.039201   -4.214058   -0.240963
     92          1           0       -9.701086   -4.216836   -1.773619
     93          1           0       -8.888443   -5.621972   -0.995236
     94          1           0       -3.988149   -3.610148   -0.491634
     95          1           0       -2.105781   -6.013942    2.686450
     96          1           0       -2.309467   -4.412977    3.513020
     97          1           0       -3.805190   -5.701309    3.509035
     98          1           0        2.746728   -2.368138   -1.408637
     99          1           0        2.398387   -0.760358   -2.058314
    100          1           0        4.245814   -1.373726    0.566864
    101          1           0        4.947927    1.694518   -2.087487
    102          1           0        5.790832    0.177252   -2.905717
    103          1           0        4.006080    0.204408   -2.991774
    104          1           0        6.577789    1.076118    0.030832
    105          1           0        6.260055   -0.458713    0.831623
    106          1           0        7.527383   -1.552505   -1.209389
    107          1           0        7.953609   -0.130661   -1.828168
    108          1           0        8.728922    0.885720    0.084799
    109          1           0        8.827775   -0.637792    1.112679
    110          1           0       10.134768   -0.239080   -1.699301
    111          1           0        9.433796   -2.600863   -1.711316
    112          1           0       11.097525   -2.512291   -1.669945
    113          1           0       10.009468   -2.830046   -0.083705
    114          1           0       11.218371    0.691782    0.260864
    115          1           0       11.403461   -1.015214    1.092188
    116          1           0       12.979689   -1.558355   -0.803878
    117          1           0       12.692058   -0.025909   -1.692588
    118          1           0       13.587492    0.902324    0.563865
    119          1           0       14.067261   -0.639237    1.268729
    120          1           0       15.234742    0.487363   -1.637944
    121          1           0       15.257425   -2.144586   -1.733648
    122          1           0       16.801197   -1.404891   -1.589205
    123          1           0       16.180865   -2.152958    0.059418
    124          1           0       15.961978    1.737850    0.486584
    125          1           0       16.324919    0.106453    1.322169
    126          1           0       18.323129   -0.024461   -0.233484
    127          1           0       17.673983    1.281346   -1.124522
    128          1           0       18.453253    2.839495    0.714763
    129          1           0       18.745791    1.277080    1.605445
    130          1           0       20.620570    0.570592    0.031778
    131          1           0       19.980274    3.551050   -1.105321
    132          1           0       21.485797    2.653504   -1.547186
    133          1           0       19.690495    1.897184   -2.015579
    134          1           0       20.961052    1.812792    2.252753
    135          1           0       22.020797    2.545416    0.793881
    136          1           0       20.569211    3.428082    1.722588
    137          1           0       -7.138807    1.707765    0.486499
    138          1           0       -7.708278   -0.170326   -0.186241
 ---------------------------------------------------------------------

 SCF Done:  E(RB3LYP) =  -2733.01000117     A.U. after   17 cycles

 Excitation energies and oscillator strengths:

 Excited State   1:      Singlet-A      2.0387 eV  608.14 nm  f=0.0901  <S**2>=0.000
     235 -> 237       -0.19066
     235 -> 238       -0.32902
     236 -> 237        0.56574
     236 -> 238       -0.16856
 This state for optimization and/or second-order correction.
 Total Energy, E(TD-HF/TD-DFT) =  -2732.93507876
 Copying the excited state density for this state as the 1-particle RhoCI density.

 The electronic state is 1-A.
 Alpha  occ. eigenvalues --  -19.19789 -19.15866 -19.13015 -19.12865 -19.12337
 Alpha  occ. eigenvalues --  -14.36814 -14.36706 -14.32332 -14.29691 -10.32390
 Alpha  occ. eigenvalues --  -10.30886 -10.28740 -10.26677 -10.24789 -10.24033
 Alpha  occ. eigenvalues --  -10.23816 -10.23800 -10.23420 -10.23102 -10.22885
 Alpha  occ. eigenvalues --  -10.22790 -10.22373 -10.22361 -10.22021 -10.21357
 Alpha  occ. eigenvalues --  -10.21189 -10.21189 -10.21144 -10.21132 -10.21107
 Alpha  occ. eigenvalues --  -10.21103 -10.20821 -10.20705 -10.20574 -10.20369
 Alpha  occ. eigenvalues --  -10.20231 -10.20205 -10.20147 -10.20110 -10.19917
 Alpha  occ. eigenvalues --  -10.19828 -10.19763 -10.19481 -10.19465 -10.19455
 Alpha  occ. eigenvalues --  -10.19407 -10.19286 -10.19200 -10.19197 -10.19103
 Alpha  occ. eigenvalues --  -10.19041 -10.18878 -10.18700 -10.18658 -10.18548
 Alpha  occ. eigenvalues --  -10.18435 -10.18393 -10.18255 -10.18253 -10.18222
 Alpha  occ. eigenvalues --  -10.18192 -10.17999 -10.17436 -10.16637  -1.11597
 Alpha  occ. eigenvalues --   -1.10073  -1.00985  -1.00805  -0.99229  -0.97984
 Alpha  occ. eigenvalues --   -0.97473  -0.93301  -0.92152  -0.85149  -0.82526
 Alpha  occ. eigenvalues --   -0.82196  -0.81531  -0.81373  -0.80985  -0.80731
 Alpha  occ. eigenvalues --   -0.80324  -0.79618  -0.78996  -0.78816  -0.77761
 Alpha  occ. eigenvalues --   -0.76483  -0.76141  -0.75992  -0.75194  -0.74441
 Alpha  occ. eigenvalues --   -0.73926  -0.73036  -0.72401  -0.70768  -0.70549
 Alpha  occ. eigenvalues --   -0.70284  -0.69206  -0.68944  -0.67632  -0.67084
 Alpha  occ. eigenvalues --   -0.66470  -0.65801  -0.65704  -0.65078  -0.64909
 Alpha  occ. eigenvalues --   -0.64438  -0.63058  -0.62556  -0.62248  -0.61709
 Alpha  occ. eigenvalues --   -0.61352  -0.59363  -0.58915  -0.57549  -0.57287
 Alpha  occ. eigenvalues --   -0.57138  -0.56065  -0.55471  -0.55107  -0.54851
 Alpha  occ. eigenvalues --   -0.54802  -0.54177  -0.53989  -0.53570  -0.53292
 Alpha  occ. eigenvalues --   -0.52649  -0.52084  -0.51495  -0.51068  -0.50905
 Alpha  occ. eigenvalues --   -0.50238  -0.49803  -0.49603  -0.48767  -0.48710
 Alpha  occ. eigenvalues --   -0.48289  -0.48231  -0.47982  -0.47598  -0.47132
 Alpha  occ. eigenvalues --   -0.46815  -0.46496  -0.46379  -0.46166  -0.45687
 Alpha  occ. eigenvalues --   -0.45349  -0.45132  -0.44868  -0.44320  -0.44179
 Alpha  occ. eigenvalues --   -0.43995  -0.43819  -0.43656  -0.43516  -0.43361
 Alpha  occ. eigenvalues --   -0.43276  -0.43000  -0.42682  -0.42482  -0.42392
 Alpha  occ. eigenvalues --   -0.41976  -0.41936  -0.41722  -0.41565  -0.41375
 Alpha  occ. eigenvalues --   -0.41197  -0.40931  -0.40701  -0.40275  -0.40151
 Alpha  occ. eigenvalues --   -0.40052  -0.39622  -0.39226  -0.39195  -0.38847
 Alpha  occ. eigenvalues --   -0.38745  -0.38552  -0.38422  -0.38165  -0.38034
 Alpha  occ. eigenvalues --   -0.37985  -0.37651  -0.37624  -0.37254  -0.36931
 Alpha  occ. eigenvalues --   -0.36909  -0.36704  -0.36668  -0.36631  -0.36527
 Alpha  occ. eigenvalues --   -0.36441  -0.36219  -0.35884  -0.35765  -0.35583
 Alpha  occ. eigenvalues --   -0.35565  -0.35479  -0.34925  -0.34626  -0.34503
 Alpha  occ. eigenvalues --   -0.34344  -0.34274  -0.34231  -0.33944  -0.33494
 Alpha  occ. eigenvalues --   -0.33453  -0.33060  -0.32979  -0.32703  -0.32522
 Alpha  occ. eigenvalues --   -0.32343  -0.32084  -0.31654  -0.31441  -0.31389
 Alpha  occ. eigenvalues --   -0.30931  -0.30861  -0.30788  -0.30719  -0.29849
 Alpha  occ. eigenvalues --   -0.29327  -0.28956  -0.28707  -0.28565  -0.28154
 Alpha  occ. eigenvalues --   -0.27852  -0.27162  -0.26903  -0.26807  -0.26257
 Alpha  occ. eigenvalues --   -0.25476  -0.24982  -0.23827  -0.22142  -0.19752
 Alpha  occ. eigenvalues --   -0.19180
 Alpha virt. eigenvalues --   -0.10235  -0.08694  -0.04818  -0.02608  -0.00870
 Alpha virt. eigenvalues --   -0.00048   0.00490   0.01188   0.02006   0.02791
 Alpha virt. eigenvalues --    0.03246   0.04037   0.04400   0.04619   0.04799

 Mulliken charges:
               1
     1  C    0.016359
     2  C   -0.104260
     3  C   -0.086019
     4  C    0.055606
     5  N   -0.201824
     6  C   -0.061513
     7  C   -0.048110
     8  C   -0.052836
     9  C    0.022114
    10  C    0.064983
    11  C    0.169829
    12  C   -0.071972
    13  C    0.173832
    14  O   -0.164534
    15  O   -0.373816
    16  N   -0.081235
    17  C    0.080146
    18  C   -0.138667
    19  C    0.068116
    20  C    0.106140
    21  C   -0.002382
    22  C   -0.073158
    23  C   -0.099278
    24  N   -0.303048
    25  C    0.049320
    26  C   -0.128879
    27  C   -0.039046
    28  C   -0.020040
    29  C    0.188612
    30  C    0.057369
    31  C    0.031570
    32  N   -0.032485
    33  C    0.034612
    34  C   -0.156343
    35  C   -0.008146
    36  C    0.104955
    37  C    0.176146
    38  C    0.091598
    39  O   -0.229150
    40  C   -0.044634
    41  C    0.218398
    42  O   -0.244575
    43  O   -0.252618
    44  C    0.128933
    45  C    0.287032
    46  C   -0.085298
    47  C   -0.079211
    48  C   -0.017356
    49  C    0.067694
    50  C    0.003265
    51  C    0.013221
    52  C   -0.090276
    53  C    0.052521
    54  C    0.011538
    55  C    0.049867
    56  C    0.003656
    57  C   -0.119863
    58  C   -0.046799
    59  C    0.019825
    60  C    0.181881
    61  C   -0.043508
    62  C   -0.098745
    63  C   -0.085046
    64  C   -0.004842
    65  H    0.007111
    66  H   -0.010871
    67  H   -0.054694
    68  H   -0.006638
    69  H    0.018188
    70  H    0.020873
    71  H    0.009850
    72  H    0.026585
    73  H    0.009979
    74  H   -0.031054
    75  H    0.067023
    76  H    0.046370
    77  H    0.063706
    78  H    0.042252
    79  H    0.057568
    80  H    0.050836
    81  H    0.019283
    82  H    0.062405
    83  H   -0.007997
    84  H   -0.059744
    85  H    0.012554
    86  H   -0.005359
    87  H   -0.000311
    88  H    0.006549
    89  H   -0.017343
    90  H    0.010766
    91  H    0.022383
    92  H   -0.051328
    93  H    0.074768
    94  H    0.084946
    95  H    0.035425
    96  H    0.054299
    97  H    0.073023
    98  H    0.015177
    99  H    0.026245
   100  H   -0.009775
   101  H    0.045157
   102  H    0.035443
   103  H    0.021780
   104  H   -0.001658
   105  H   -0.001920
   106  H   -0.008377
   107  H   -0.025450
   108  H   -0.001041
   109  H    0.012701
   110  H   -0.011598
   111  H   -0.036144
   112  H    0.010607
   113  H    0.007086
   114  H    0.002041
   115  H    0.012210
   116  H   -0.005812
   117  H    0.005124
   118  H   -0.019675
   119  H   -0.003802
   120  H    0.006685
   121  H    0.034097
   122  H    0.019096
   123  H    0.036581
   124  H    0.011013
   125  H   -0.008824
   126  H   -0.036482
   127  H   -0.027785
   128  H    0.005114
   129  H   -0.022689
   130  H    0.021739
   131  H    0.012611
   132  H    0.026451
   133  H    0.035138
   134  H    0.009198
   135  H    0.023306
   136  H    0.030298
   137  H    0.160043
   138  H    0.125058
 Sum of Mulliken charges =  -0.00000

 Dipole moment (field-independent basis, Debye):
    X=              2.0676    Y=              3.3556    Z=              0.5324  Tot=              3.9773
 Quadrupole moment (field-independent basis, Debye-Ang):
   XX=           -365.3372   YY=           -382.4465   ZZ=           -393.7327
   XY=            -29.5327   XZ=              9.1282   YZ=             -5.7646

 Normal termination of Gaussian 16 at Thu Aug 22 00:27:18 2019.
