 Gaussian 16, Revision A.03,
 Gaussian 16:  ES64L-G16RevA.03 25-Dec-2016

 --------------------------
 # td=(NStates=1) B3LYP/SVP
 --------------------------

 --
 TD
 --
 Symbolic Z-matrix:
 Charge =  0 Multiplicity = 1

                         Standard orientation:
 ---------------------------------------------------------------------
 Center     Atomic      Atomic             Coordinates (Angstroms)
 Number     Number       Type             X           Y           Z
 ---------------------------------------------------------------------
      1          6           0       -5.125365   -1.926405    0.344073
      2          6           0       -4.780439    2.628556    1.696154
      3          6           0       -9.221473    3.392251   -0.420201
      4          6           0       -9.890333   -1.398649   -1.224600
      5          7           0       -5.177187    0.435816    0.796401
      6          6           0       -4.504285   -0.764242    0.708733
      7          6           0       -3.121153   -0.616359    1.351776
      8          6           0       -3.156344    0.797983    1.965199
      9          6           0       -4.411581    1.342998    1.347890
     10          6           0       -3.215564    0.784382    3.406476
     11          6           0       -2.050939   -0.856998    0.207657
     12          6           0       -0.676895   -0.804638    0.707748
     13          6           0        0.398541   -1.151780   -0.385279
     14          8           0        0.145134   -1.734980   -1.445379
     15          8           0        1.606700   -0.612029   -0.097766
     16          7           0       -7.076620    2.738284    0.562955
     17          6           0       -5.922315    3.296103    1.205508
     18          6           0       -6.203163    4.712457    1.182763
     19          6           0       -7.503036    4.948111    0.468555
     20          6           0       -7.938871    3.598851    0.179647
     21          6           0       -5.271140    5.686251    1.909629
     22          6           0       -8.131898    6.264692    0.359711
     23          6           0       -8.920205    6.713833   -0.625643
     24          7           0       -9.123941    0.872216   -0.649498
     25          6           0       -9.812877    2.154297   -0.705963
     26          6           0      -11.305066    1.972429   -1.043381
     27          6           0      -11.386060    0.605729   -1.270218
     28          6           0      -10.072362   -0.008071   -0.921543
     29          6           0      -12.166006    3.045206   -1.212503
     30          6           0      -12.577034   -0.109602   -1.744581
     31          6           0      -12.707841   -0.458026   -3.213422
     32          7           0       -7.475882   -1.230425   -0.431420
     33          6           0       -8.616146   -1.989000   -0.793709
     34          6           0       -8.179350   -3.351989   -0.735870
     35          6           0       -6.828785   -3.348302   -0.269513
     36          6           0       -6.417724   -1.998988   -0.019510
     37          6           0       -9.086151   -4.463219   -1.092690
     38          6           0       -5.736958   -4.350163    0.077647
     39          8           0       -5.705907   -5.570142    0.142004
     40          6           0       -4.494719   -3.371062    0.438072
     41          6           0       -3.875341   -3.824751    1.620402
     42          8           0       -4.078026   -3.351999    2.749774
     43          8           0       -3.133465   -4.926130    1.409991
     44          6           0       -2.506623   -5.440241    2.618359
     45          6           0        2.726224   -1.060127   -1.081028
     46          6           0        4.022655   -0.736450   -0.366881
     47          6           0        5.010602    0.029041   -0.972817
     48          6           0        4.929785    0.706822   -2.322261
     49          6           0        6.233466    0.210618   -0.300299
     50          6           0        7.512334   -0.336441   -0.934715
     51          6           0        8.779074   -0.165107   -0.113282
     52          6           0       10.038377   -0.738118   -0.630452
     53          6           0       10.147529   -2.314839   -0.814872
     54          6           0       11.335428   -0.187932    0.099047
     55          6           0       12.603341   -0.456855   -0.575955
     56          6           0       13.830878    0.091029    0.268845
     57          6           0       15.144916   -0.079273   -0.399718
     58          6           0       15.550215   -1.670280   -0.369638
     59          6           0       16.249113    0.785256    0.332114
     60          6           0       17.733993    0.641999   -0.302412
     61          6           0       18.554647    1.685847    0.510847
     62          6           0       19.905924    1.606242   -0.035939
     63          6           0       20.030384    1.980309   -1.477862
     64          6           0       20.997870    2.471385    0.816407
     65          1           0       -4.117301    3.347805    2.318619
     66          1           0       -9.758564    4.259501   -0.656732
     67          1           0      -10.661238   -2.063110   -1.680924
     68          1           0       -2.793153   -1.240078    2.050413
     69          1           0       -2.384355    1.584432    1.579394
     70          1           0       -2.115251    0.492201    3.907328
     71          1           0       -3.677802    1.950283    3.801542
     72          1           0       -4.073629    0.120568    3.908749
     73          1           0       -2.320847   -1.838390   -0.286536
     74          1           0       -2.147879    0.072326   -0.472900
     75          1           0       -0.283560    0.109834    1.140253
     76          1           0       -0.564847   -1.478842    1.435591
     77          1           0       -4.506190    5.835504    1.126376
     78          1           0       -5.705080    6.589000    2.224594
     79          1           0       -4.766386    5.101411    2.792307
     80          1           0       -7.931756    6.961513    1.233462
     81          1           0       -8.992684    6.078232   -1.601754
     82          1           0       -9.472135    7.583622   -0.542084
     83          1           0      -12.109911    3.725850   -0.366937
     84          1           0      -11.855086    3.562838   -2.290405
     85          1           0      -13.266929    2.564489   -1.288389
     86          1           0      -12.585580   -1.112891   -1.250387
     87          1           0      -13.573397    0.512808   -1.447091
     88          1           0      -12.823556    0.481282   -3.900046
     89          1           0      -11.814692   -0.966140   -3.537265
     90          1           0      -13.660339   -0.849457   -3.589713
     91          1           0      -10.051412   -4.447469   -0.606643
     92          1           0       -9.381858   -4.525139   -2.149393
     93          1           0       -8.428712   -5.479863   -0.784340
     94          1           0       -3.771660   -3.411322   -0.312667
     95          1           0       -1.960869   -6.356933    2.283963
     96          1           0       -1.840596   -4.663353    3.146058
     97          1           0       -3.375235   -5.566386    3.346692
     98          1           0        2.641130   -2.096604   -1.338541
     99          1           0        2.419010   -0.456967   -1.989871
    100          1           0        4.052986   -1.327573    0.676754
    101          1           0        5.660707    1.440569   -2.305524
    102          1           0        5.420461    0.128481   -3.342250
    103          1           0        3.793873    0.912004   -2.523285
    104          1           0        6.613631    1.299014   -0.219422
    105          1           0        6.354660   -0.387134    0.696925
    106          1           0        7.286989   -1.497718   -1.064666
    107          1           0        7.719771    0.128839   -1.813750
    108          1           0        8.879206    0.974116    0.142757
    109          1           0        8.618167   -0.537192    1.048646
    110          1           0       10.181608   -0.489261   -1.855182
    111          1           0        9.399173   -2.775643   -1.271389
    112          1           0       11.298713   -2.316398   -1.372754
    113          1           0       10.312472   -2.924520    0.210054
    114          1           0       11.306653    0.978482    0.170391
    115          1           0       11.435223   -0.435218    1.140053
    116          1           0       12.757714   -1.523187   -0.625553
    117          1           0       12.533727   -0.042584   -1.633300
    118          1           0       13.614322    1.163113    0.412391
    119          1           0       13.566769   -0.088218    1.298640
    120          1           0       15.095647    0.235595   -1.376274
    121          1           0       14.742839   -2.119261   -0.925902
    122          1           0       16.677207   -1.733844   -0.792252
    123          1           0       15.538617   -1.962809    0.710470
    124          1           0       16.037846    1.864931    0.428277
    125          1           0       16.542508    0.562869    1.413540
    126          1           0       17.985009   -0.454094   -0.054227
    127          1           0       17.685006    0.825815   -1.584621
    128          1           0       18.048046    2.711467    0.415198
    129          1           0       18.665189    1.475888    1.564267
    130          1           0       20.300077    0.484464    0.178297
    131          1           0       19.941562    3.254942   -1.772739
    132          1           0       21.121463    1.961033   -1.800746
    133          1           0       19.561675    1.282454   -2.117985
    134          1           0       21.055700    2.016713    1.741694
    135          1           0       21.953702    2.331199    0.224891
    136          1           0       20.767204    3.572094    0.862162
    137          1           0       -7.399085    1.600683    0.529720
    138          1           0       -7.642288   -0.168268   -0.313088
 ---------------------------------------------------------------------

 SCF Done:  E(RB3LYP) =  -2733.02910464     A.U. after   16 cycles

 Excitation energies and oscillator strengths:

 Excited State   1:      Singlet-A      1.9635 eV  631.46 nm  f=0.2135  <S**2>=0.000
     235 -> 237       -0.13629
     235 -> 238        0.24877
     236 -> 237        0.64172
 This state for optimization and/or second-order correction.
 Total Energy, E(TD-HF/TD-DFT) =  -2732.95694914
 Copying the excited state density for this state as the 1-particle RhoCI density.

 The electronic state is 1-A.
 Alpha  occ. eigenvalues --  -19.17847 -19.17383 -19.13426 -19.11689 -19.11549
 Alpha  occ. eigenvalues --  -14.37533 -14.36597 -14.32277 -14.31482 -10.31037
 Alpha  occ. eigenvalues --  -10.30819 -10.29285 -10.25445 -10.25201 -10.23943
 Alpha  occ. eigenvalues --  -10.23681 -10.23592 -10.23214 -10.22846 -10.22594
 Alpha  occ. eigenvalues --  -10.22337 -10.22082 -10.21818 -10.21410 -10.21321
 Alpha  occ. eigenvalues --  -10.21305 -10.21134 -10.21127 -10.21114 -10.21015
 Alpha  occ. eigenvalues --  -10.20989 -10.20930 -10.20879 -10.20642 -10.20632
 Alpha  occ. eigenvalues --  -10.20480 -10.20457 -10.20445 -10.20336 -10.20212
 Alpha  occ. eigenvalues --  -10.20006 -10.19878 -10.19789 -10.19774 -10.19672
 Alpha  occ. eigenvalues --  -10.19653 -10.19633 -10.19511 -10.19348 -10.19250
 Alpha  occ. eigenvalues --  -10.19100 -10.19085 -10.19006 -10.18989 -10.18876
 Alpha  occ. eigenvalues --  -10.18861 -10.18852 -10.18800 -10.18603 -10.18524
 Alpha  occ. eigenvalues --  -10.18316 -10.18052 -10.17768 -10.17648  -1.08986
 Alpha  occ. eigenvalues --   -1.06926  -1.02815  -0.98863  -0.98316  -0.98169
 Alpha  occ. eigenvalues --   -0.96883  -0.95186  -0.92791  -0.85095  -0.83877
 Alpha  occ. eigenvalues --   -0.81973  -0.81726  -0.81189  -0.81092  -0.80851
 Alpha  occ. eigenvalues --   -0.80228  -0.79607  -0.79414  -0.79140  -0.78025
 Alpha  occ. eigenvalues --   -0.77158  -0.76795  -0.76092  -0.74908  -0.74592
 Alpha  occ. eigenvalues --   -0.73447  -0.73015  -0.72576  -0.71428  -0.70170
 Alpha  occ. eigenvalues --   -0.69861  -0.69356  -0.68541  -0.68086  -0.67363
 Alpha  occ. eigenvalues --   -0.66877  -0.66408  -0.66036  -0.65864  -0.65134
 Alpha  occ. eigenvalues --   -0.63510  -0.62024  -0.61901  -0.61311  -0.61089
 Alpha  occ. eigenvalues --   -0.60523  -0.58803  -0.58598  -0.57945  -0.57501
 Alpha  occ. eigenvalues --   -0.57007  -0.55847  -0.55471  -0.55214  -0.54748
 Alpha  occ. eigenvalues --   -0.54595  -0.53956  -0.53518  -0.52994  -0.52608
 Alpha  occ. eigenvalues --   -0.52393  -0.52050  -0.51247  -0.51230  -0.50340
 Alpha  occ. eigenvalues --   -0.49998  -0.49461  -0.49062  -0.48793  -0.48173
 Alpha  occ. eigenvalues --   -0.48051  -0.47613  -0.47561  -0.47215  -0.47143
 Alpha  occ. eigenvalues --   -0.46898  -0.46265  -0.46163  -0.45729  -0.45533
 Alpha  occ. eigenvalues --   -0.45457  -0.45101  -0.44978  -0.44839  -0.44647
 Alpha  occ. eigenvalues --   -0.44549  -0.44179  -0.43949  -0.43845  -0.43791
 Alpha  occ. eigenvalues --   -0.43526  -0.43290  -0.43068  -0.42957  -0.42393
 Alpha  occ. eigenvalues --   -0.42231  -0.42109  -0.41862  -0.41565  -0.41341
 Alpha  occ. eigenvalues --   -0.41280  -0.41224  -0.41194  -0.40532  -0.40367
 Alpha  occ. eigenvalues --   -0.40262  -0.40096  -0.39882  -0.39613  -0.39321
 Alpha  occ. eigenvalues --   -0.39223  -0.38925  -0.38877  -0.38624  -0.38395
 Alpha  occ. eigenvalues --   -0.38209  -0.38079  -0.37894  -0.37830  -0.37537
 Alpha  occ. eigenvalues --   -0.37389  -0.37234  -0.37081  -0.36859  -0.36549
 Alpha  occ. eigenvalues --   -0.36466  -0.36272  -0.36219  -0.36108  -0.35926
 Alpha  occ. eigenvalues --   -0.35808  -0.35631  -0.35346  -0.35283  -0.34962
 Alpha  occ. eigenvalues --   -0.34754  -0.34400  -0.34220  -0.33607  -0.33281
 Alpha  occ. eigenvalues --   -0.33219  -0.33141  -0.33000  -0.32828  -0.32349
 Alpha  occ. eigenvalues --   -0.32005  -0.31701  -0.31302  -0.31137  -0.31114
 Alpha  occ. eigenvalues --   -0.30513  -0.30272  -0.30113  -0.30044  -0.29901
 Alpha  occ. eigenvalues --   -0.29644  -0.29046  -0.28088  -0.27609  -0.27563
 Alpha  occ. eigenvalues --   -0.27333  -0.27279  -0.26785  -0.26390  -0.25549
 Alpha  occ. eigenvalues --   -0.25388  -0.24458  -0.23031  -0.22955  -0.20122
 Alpha  occ. eigenvalues --   -0.18774
 Alpha virt. eigenvalues --   -0.10884  -0.07487  -0.04753  -0.02371  -0.01713
 Alpha virt. eigenvalues --   -0.00457   0.00351   0.00742   0.02073   0.02976
 Alpha virt. eigenvalues --    0.03143   0.03368   0.04046   0.04339   0.04683

 Mulliken charges:
               1
     1  C   -0.030133
     2  C   -0.104502
     3  C   -0.067673
     4  C   -0.090327
     5  N   -0.139872
     6  C   -0.052415
     7  C    0.054392
     8  C   -0.014547
     9  C   -0.004388
    10  C   -0.062322
    11  C   -0.002339
    12  C    0.140235
    13  C    0.160888
    14  O   -0.267059
    15  O   -0.346545
    16  N   -0.083411
    17  C    0.105278
    18  C   -0.163106
    19  C   -0.010246
    20  C    0.062061
    21  C    0.087943
    22  C   -0.070498
    23  C   -0.020775
    24  N   -0.299779
    25  C    0.079746
    26  C   -0.098742
    27  C   -0.087504
    28  C    0.113559
    29  C    0.033120
    30  C    0.010966
    31  C    0.007539
    32  N   -0.114541
    33  C    0.071941
    34  C   -0.120767
    35  C   -0.082976
    36  C    0.175337
    37  C    0.034267
    38  C    0.120959
    39  O   -0.156123
    40  C    0.032053
    41  C    0.178347
    42  O   -0.271265
    43  O   -0.297749
    44  C    0.157174
    45  C    0.225591
    46  C   -0.106689
    47  C   -0.063574
    48  C    0.040247
    49  C    0.029417
    50  C    0.022247
    51  C    0.000068
    52  C   -0.089445
    53  C   -0.003361
    54  C    0.016375
    55  C    0.007732
    56  C    0.031677
    57  C    0.066326
    58  C   -0.020235
    59  C   -0.003688
    60  C   -0.111112
    61  C    0.093868
    62  C   -0.166351
    63  C    0.015098
    64  C    0.041728
    65  H    0.013250
    66  H   -0.059274
    67  H    0.012677
    68  H   -0.051559
    69  H    0.011579
    70  H    0.043989
    71  H    0.021313
    72  H    0.056877
    73  H    0.034633
    74  H    0.011128
    75  H    0.015404
    76  H   -0.028547
    77  H    0.039224
    78  H    0.011337
    79  H    0.043384
    80  H    0.016456
    81  H    0.048045
    82  H    0.002931
    83  H    0.036413
    84  H    0.062244
    85  H    0.028344
    86  H    0.006604
    87  H    0.018805
    88  H   -0.004504
    89  H    0.014835
    90  H    0.013778
    91  H    0.020728
    92  H    0.026468
    93  H    0.065530
    94  H    0.035871
    95  H    0.051749
    96  H    0.036452
    97  H    0.048974
    98  H    0.038888
    99  H    0.035733
   100  H    0.040446
   101  H   -0.005222
   102  H    0.046081
   103  H    0.055207
   104  H    0.010091
   105  H    0.011404
   106  H    0.011699
   107  H   -0.030565
   108  H   -0.003398
   109  H   -0.000366
   110  H    0.005731
   111  H   -0.011070
   112  H    0.035290
   113  H    0.013455
   114  H   -0.006675
   115  H   -0.015027
   116  H    0.003733
   117  H    0.002874
   118  H   -0.037707
   119  H   -0.031230
   120  H   -0.032847
   121  H    0.019229
   122  H    0.038956
   123  H    0.018898
   124  H   -0.011098
   125  H   -0.010081
   126  H    0.026263
   127  H    0.042108
   128  H    0.006955
   129  H   -0.011457
   130  H    0.008001
   131  H    0.020313
   132  H   -0.003907
   133  H    0.007855
   134  H   -0.008450
   135  H    0.009840
   136  H    0.015765
   137  H    0.226138
   138  H    0.170884
 Sum of Mulliken charges =  -0.00000

 Dipole moment (field-independent basis, Debye):
    X=              2.3080    Y=              4.3973    Z=              0.5121  Tot=              4.9926
 Quadrupole moment (field-independent basis, Debye-Ang):
   XX=           -342.0959   YY=           -392.3585   ZZ=           -394.6986
   XY=            -26.8082   XZ=             13.6954   YZ=              0.7275

 Normal termination of Gaussian 16 at Sat Aug 24 07:57:05 2019.
