 Gaussian 16, Revision A.03,
 Gaussian 16:  ES64L-G16RevA.03 25-Dec-2016

 --------------------------
 # td=(NStates=1) B3LYP/SVP
 --------------------------

 --
 TD
 --
 Symbolic Z-matrix:
 Charge =  0 Multiplicity = 1

                         Standard orientation:
 ---------------------------------------------------------------------
 Center     Atomic      Atomic             Coordinates (Angstroms)
 Number     Number       Type             X           Y           Z
 ---------------------------------------------------------------------
      1          6           0       -5.234166   -2.055642    0.462666
      2          6           0       -4.632570    2.682297    1.592038
      3          6           0       -9.130459    3.502554   -0.227385
      4          6           0       -9.730767   -1.213555   -1.057415
      5          7           0       -5.229456    0.364115    0.911526
      6          6           0       -4.589558   -0.859936    0.888623
      7          6           0       -3.151434   -0.793282    1.459404
      8          6           0       -3.079871    0.703888    2.022861
      9          6           0       -4.363604    1.250560    1.483873
     10          6           0       -2.973233    0.559835    3.557123
     11          6           0       -2.124316   -1.057033    0.333342
     12          6           0       -0.732505   -0.996836    0.788523
     13          6           0        0.298956   -1.148105   -0.368664
     14          8           0        0.081839   -1.455927   -1.505056
     15          8           0        1.646670   -0.940405   -0.054959
     16          7           0       -6.864360    2.752143    0.487651
     17          6           0       -5.797467    3.311711    1.055411
     18          6           0       -5.949801    4.773455    1.179021
     19          6           0       -7.277682    4.974359    0.742770
     20          6           0       -7.850754    3.784700    0.346185
     21          6           0       -4.902845    5.663406    1.703740
     22          6           0       -7.845964    6.318604    0.658426
     23          6           0       -8.838124    6.860840   -0.181735
     24          7           0       -9.030355    1.035200   -0.641452
     25          6           0       -9.705835    2.297600   -0.601998
     26          6           0      -10.998764    2.194598   -1.124089
     27          6           0      -11.298822    0.895968   -1.392520
     28          6           0      -10.026980    0.164689   -1.067651
     29          6           0      -11.947344    3.321305   -1.364717
     30          6           0      -12.560054    0.228288   -1.958582
     31          6           0      -12.436416   -0.134192   -3.466319
     32          7           0       -7.516276   -1.070892   -0.268841
     33          6           0       -8.557481   -1.819769   -0.733671
     34          6           0       -8.310197   -3.190909   -0.881811
     35          6           0       -6.982111   -3.320353   -0.370390
     36          6           0       -6.491470   -1.995933    0.034004
     37          6           0       -9.196493   -4.294345   -1.335830
     38          6           0       -5.974375   -4.291456   -0.065138
     39          8           0       -5.936277   -5.525991   -0.230312
     40          6           0       -4.708923   -3.516952    0.452811
     41          6           0       -4.237735   -4.119435    1.693186
     42          8           0       -4.473558   -3.710747    2.828783
     43          8           0       -3.360106   -5.117426    1.292607
     44          6           0       -2.729292   -5.799943    2.419635
     45          6           0        2.610322   -1.104210   -1.049887
     46          6           0        3.969498   -0.779097   -0.361888
     47          6           0        5.013308   -0.037098   -0.908293
     48          6           0        4.973920    0.606435   -2.176397
     49          6           0        6.378927    0.161568   -0.191338
     50          6           0        7.575372   -0.376416   -0.859168
     51          6           0        8.840140   -0.243840   -0.064524
     52          6           0       10.007257   -0.884786   -0.756581
     53          6           0        9.813840   -2.496254   -0.667349
     54          6           0       11.318723   -0.401061   -0.049985
     55          6           0       12.607513   -0.828157   -0.748907
     56          6           0       13.783960   -0.299423    0.285897
     57          6           0       15.209980   -0.271926   -0.355660
     58          6           0       15.787181   -1.706124   -0.580762
     59          6           0       16.213057    0.595980    0.394206
     60          6           0       17.690237    0.633754   -0.182246
     61          6           0       18.421258    1.736940    0.487752
     62          6           0       19.880044    2.044694   -0.165316
     63          6           0       19.835599    2.714870   -1.442531
     64          6           0       20.840096    2.796410    0.797605
     65          1           0       -3.752129    3.277447    2.183546
     66          1           0       -9.820687    4.385727   -0.407356
     67          1           0      -10.528532   -1.680897   -1.372545
     68          1           0       -2.886715   -1.589540    2.112432
     69          1           0       -1.961314    1.123516    1.611299
     70          1           0       -2.008347   -0.018717    3.615359
     71          1           0       -3.092464    1.623221    3.787215
     72          1           0       -3.648552   -0.001982    3.963081
     73          1           0       -2.508968   -2.229738    0.039812
     74          1           0       -2.415437   -0.403974   -0.509238
     75          1           0       -0.493687    0.114538    1.082066
     76          1           0       -0.507047   -1.640132    1.567979
     77          1           0       -3.930016    5.608953    0.913482
     78          1           0       -5.289132    6.687678    1.422857
     79          1           0       -4.423570    5.597296    2.883960
     80          1           0       -7.616120    7.022255    1.412870
     81          1           0       -9.169654    6.221147   -0.928286
     82          1           0       -9.259572    7.768330   -0.032245
     83          1           0      -12.162563    4.127515   -0.696876
     84          1           0      -11.481736    3.754845   -2.401376
     85          1           0      -12.983818    2.996806   -1.509820
     86          1           0      -12.586998   -0.700265   -1.424600
     87          1           0      -13.450482    0.861504   -1.771304
     88          1           0      -12.515262    0.967617   -4.057488
     89          1           0      -11.515372   -0.745568   -3.503415
     90          1           0      -13.212957   -0.756702   -3.754680
     91          1           0       -9.970072   -4.419377   -0.428149
     92          1           0       -9.906576   -4.087080   -2.321665
     93          1           0       -8.430333   -5.325102   -1.504937
     94          1           0       -3.655496   -3.518223   -0.341106
     95          1           0       -1.978925   -6.712359    2.139205
     96          1           0       -2.116116   -5.084882    3.056713
     97          1           0       -3.389244   -6.602276    2.946715
     98          1           0        2.681393   -2.040230   -1.441903
     99          1           0        2.426142   -0.301423   -1.723499
    100          1           0        3.949425   -1.278375    0.699949
    101          1           0        5.214583    1.685621   -2.252008
    102          1           0        5.603752    0.107154   -3.009694
    103          1           0        4.011796    0.631002   -2.969548
    104          1           0        6.406050    1.131883   -0.025585
    105          1           0        5.955462   -0.125385    0.837635
    106          1           0        7.288366   -1.533670   -1.040891
    107          1           0        7.898927   -0.048799   -1.835645
    108          1           0        9.144026    0.739553   -0.001798
    109          1           0        8.572644   -0.944069    0.713399
    110          1           0        9.883141   -0.568699   -1.864027
    111          1           0        8.689460   -2.905267   -0.827388
    112          1           0       10.648058   -2.952004   -1.518847
    113          1           0       10.205921   -2.925947    0.535127
    114          1           0       11.257602    0.781300    0.224023
    115          1           0       11.313377   -1.006253    0.847785
    116          1           0       12.943723   -1.937464   -0.730851
    117          1           0       12.782191   -0.316600   -1.673441
    118          1           0       13.299062    0.790446    0.443491
    119          1           0       13.729805   -0.939914    1.182680
    120          1           0       14.959046    0.310912   -1.405980
    121          1           0       15.029706   -2.372456   -1.084333
    122          1           0       16.708067   -1.764386   -1.282302
    123          1           0       16.005843   -2.201507    0.502271
    124          1           0       15.663025    1.622082    0.207851
    125          1           0       16.268219    0.335183    1.599921
    126          1           0       18.122111   -0.295012   -0.032584
    127          1           0       17.588920    0.716493   -1.353726
    128          1           0       18.117883    2.703880    0.440272
    129          1           0       18.556597    1.465947    1.477049
    130          1           0       20.278627    0.959683   -0.239013
    131          1           0       19.462030    3.870903   -1.481750
    132          1           0       20.811802    2.866300   -1.779493
    133          1           0       19.469891    1.942092   -2.124000
    134          1           0       20.718973    2.597671    1.908425
    135          1           0       21.767888    2.895301    0.409356
    136          1           0       20.374382    3.761019    1.163420
    137          1           0       -6.926399    1.869637    0.202341
    138          1           0       -7.609693    0.032389   -0.023018
 ---------------------------------------------------------------------

 SCF Done:  E(RB3LYP) =  -2732.90184561     A.U. after   17 cycles

 Excitation energies and oscillator strengths:

 Excited State   1:      Singlet-A      1.9945 eV  621.62 nm  f=0.1679  <S**2>=0.000
     235 -> 238       -0.30168
     236 -> 237        0.62864
 This state for optimization and/or second-order correction.
 Total Energy, E(TD-HF/TD-DFT) =  -2732.82854755
 Copying the excited state density for this state as the 1-particle RhoCI density.

 The electronic state is 1-A.
 Alpha  occ. eigenvalues --  -19.18767 -19.16126 -19.13491 -19.12429 -19.11910
 Alpha  occ. eigenvalues --  -14.37055 -14.36803 -14.33434 -14.30544 -10.32345
 Alpha  occ. eigenvalues --  -10.31845 -10.27859 -10.26462 -10.24046 -10.24038
 Alpha  occ. eigenvalues --  -10.23982 -10.23685 -10.23497 -10.23456 -10.23064
 Alpha  occ. eigenvalues --  -10.23046 -10.22954 -10.22939 -10.22517 -10.22178
 Alpha  occ. eigenvalues --  -10.22167 -10.21724 -10.21704 -10.21134 -10.21083
 Alpha  occ. eigenvalues --  -10.21057 -10.20954 -10.20860 -10.20829 -10.20696
 Alpha  occ. eigenvalues --  -10.20423 -10.20279 -10.20174 -10.20039 -10.19966
 Alpha  occ. eigenvalues --  -10.19897 -10.19805 -10.19804 -10.19720 -10.19719
 Alpha  occ. eigenvalues --  -10.19684 -10.19666 -10.19616 -10.19598 -10.19320
 Alpha  occ. eigenvalues --  -10.19058 -10.19046 -10.18878 -10.18825 -10.18721
 Alpha  occ. eigenvalues --  -10.18700 -10.18615 -10.18379 -10.18345 -10.18031
 Alpha  occ. eigenvalues --  -10.17538 -10.17217 -10.16682 -10.16361  -1.08993
 Alpha  occ. eigenvalues --   -1.08217  -1.00817  -1.00608  -1.00234  -0.98901
 Alpha  occ. eigenvalues --   -0.97370  -0.94050  -0.92186  -0.85535  -0.83084
 Alpha  occ. eigenvalues --   -0.82787  -0.82337  -0.81251  -0.80928  -0.80745
 Alpha  occ. eigenvalues --   -0.80064  -0.79683  -0.79281  -0.78863  -0.77959
 Alpha  occ. eigenvalues --   -0.76707  -0.76094  -0.75867  -0.75015  -0.74586
 Alpha  occ. eigenvalues --   -0.73773  -0.73304  -0.72727  -0.71345  -0.70857
 Alpha  occ. eigenvalues --   -0.70233  -0.68754  -0.68031  -0.68030  -0.67716
 Alpha  occ. eigenvalues --   -0.67065  -0.65952  -0.65924  -0.64880  -0.64707
 Alpha  occ. eigenvalues --   -0.64433  -0.63644  -0.62324  -0.62046  -0.61724
 Alpha  occ. eigenvalues --   -0.61211  -0.59202  -0.58236  -0.57420  -0.57180
 Alpha  occ. eigenvalues --   -0.56824  -0.56577  -0.55774  -0.55668  -0.54944
 Alpha  occ. eigenvalues --   -0.54891  -0.54707  -0.54053  -0.53220  -0.53003
 Alpha  occ. eigenvalues --   -0.52297  -0.51981  -0.51533  -0.51054  -0.50551
 Alpha  occ. eigenvalues --   -0.49908  -0.49229  -0.49171  -0.49127  -0.48868
 Alpha  occ. eigenvalues --   -0.48191  -0.47889  -0.47832  -0.47663  -0.47302
 Alpha  occ. eigenvalues --   -0.46827  -0.46717  -0.46404  -0.46157  -0.46029
 Alpha  occ. eigenvalues --   -0.45896  -0.45390  -0.45324  -0.45200  -0.45008
 Alpha  occ. eigenvalues --   -0.44871  -0.44468  -0.44237  -0.44119  -0.43956
 Alpha  occ. eigenvalues --   -0.43777  -0.43539  -0.43295  -0.42716  -0.42518
 Alpha  occ. eigenvalues --   -0.42446  -0.42052  -0.42041  -0.41474  -0.41231
 Alpha  occ. eigenvalues --   -0.41019  -0.41005  -0.40710  -0.40542  -0.40207
 Alpha  occ. eigenvalues --   -0.39978  -0.39952  -0.39715  -0.39416  -0.39311
 Alpha  occ. eigenvalues --   -0.39166  -0.38980  -0.38603  -0.38210  -0.38176
 Alpha  occ. eigenvalues --   -0.38096  -0.37783  -0.37623  -0.37607  -0.37457
 Alpha  occ. eigenvalues --   -0.37303  -0.37196  -0.36849  -0.36594  -0.36423
 Alpha  occ. eigenvalues --   -0.36376  -0.36287  -0.35920  -0.35872  -0.35760
 Alpha  occ. eigenvalues --   -0.35202  -0.35047  -0.34704  -0.34607  -0.34469
 Alpha  occ. eigenvalues --   -0.34320  -0.34034  -0.33928  -0.33740  -0.33674
 Alpha  occ. eigenvalues --   -0.33329  -0.33248  -0.32695  -0.32356  -0.31802
 Alpha  occ. eigenvalues --   -0.31655  -0.31392  -0.31012  -0.30809  -0.30564
 Alpha  occ. eigenvalues --   -0.30494  -0.30465  -0.30053  -0.29980  -0.29810
 Alpha  occ. eigenvalues --   -0.29436  -0.28660  -0.28601  -0.28501  -0.27846
 Alpha  occ. eigenvalues --   -0.27510  -0.27372  -0.27018  -0.26438  -0.26030
 Alpha  occ. eigenvalues --   -0.24855  -0.24083  -0.23991  -0.22905  -0.19982
 Alpha  occ. eigenvalues --   -0.19135
 Alpha virt. eigenvalues --   -0.10713  -0.08096  -0.05648  -0.03021  -0.01757
 Alpha virt. eigenvalues --   -0.00838  -0.00040   0.00136   0.01004   0.02849
 Alpha virt. eigenvalues --    0.03074   0.03360   0.03710   0.03797   0.04275

 Mulliken charges:
               1
     1  C   -0.056318
     2  C   -0.113533
     3  C   -0.122393
     4  C   -0.037001
     5  N   -0.184910
     6  C   -0.034162
     7  C   -0.023907
     8  C   -0.144789
     9  C    0.023595
    10  C    0.174018
    11  C   -0.050171
    12  C    0.099441
    13  C    0.168065
    14  O   -0.210959
    15  O   -0.359219
    16  N    0.021335
    17  C    0.095684
    18  C   -0.115552
    19  C    0.091706
    20  C    0.116140
    21  C   -0.017780
    22  C   -0.111839
    23  C    0.034769
    24  N   -0.328616
    25  C    0.110620
    26  C   -0.115004
    27  C   -0.064316
    28  C    0.005887
    29  C    0.057239
    30  C    0.073072
    31  C    0.012044
    32  N   -0.122053
    33  C    0.195975
    34  C   -0.096801
    35  C    0.010661
    36  C    0.169939
    37  C   -0.053667
    38  C    0.056284
    39  O   -0.202155
    40  C   -0.120144
    41  C    0.258797
    42  O   -0.228764
    43  O   -0.318410
    44  C    0.111877
    45  C    0.372249
    46  C   -0.178786
    47  C   -0.103208
    48  C   -0.039212
    49  C    0.182207
    50  C   -0.019049
    51  C    0.147584
    52  C   -0.105463
    53  C   -0.138985
    54  C    0.029203
    55  C    0.015668
    56  C   -0.059943
    57  C   -0.075947
    58  C   -0.031739
    59  C   -0.031205
    60  C    0.044535
    61  C    0.118769
    62  C   -0.165411
    63  C    0.101967
    64  C    0.060874
    65  H    0.031366
    66  H   -0.011933
    67  H   -0.131902
    68  H   -0.017194
    69  H    0.036779
    70  H    0.014965
    71  H    0.005455
    72  H   -0.020671
    73  H    0.027069
    74  H    0.019455
    75  H    0.046826
    76  H    0.016809
    77  H    0.046844
    78  H    0.024863
    79  H    0.076537
    80  H   -0.003474
    81  H    0.006384
    82  H   -0.001091
    83  H    0.020164
    84  H    0.043297
    85  H    0.000858
    86  H   -0.002775
    87  H    0.004953
    88  H    0.040264
    89  H    0.017442
    90  H    0.001285
    91  H    0.064515
    92  H    0.057799
    93  H    0.096188
    94  H    0.132255
    95  H    0.037881
    96  H    0.052864
    97  H    0.052560
    98  H    0.001837
    99  H   -0.007012
   100  H    0.017172
   101  H    0.022217
   102  H    0.033612
   103  H    0.011726
   104  H   -0.056293
   105  H   -0.005277
   106  H    0.008131
   107  H   -0.015918
   108  H   -0.031172
   109  H   -0.011194
   110  H   -0.004322
   111  H    0.059149
   112  H    0.046565
   113  H    0.031029
   114  H    0.029440
   115  H   -0.010577
   116  H    0.033141
   117  H   -0.006587
   118  H    0.011101
   119  H    0.006592
   120  H    0.004961
   121  H    0.011597
   122  H    0.034252
   123  H    0.026259
   124  H    0.010836
   125  H    0.015101
   126  H   -0.016290
   127  H    0.006994
   128  H   -0.036557
   129  H   -0.032080
   130  H   -0.005517
   131  H    0.023680
   132  H   -0.026383
   133  H   -0.002697
   134  H   -0.011190
   135  H   -0.000615
   136  H   -0.017755
   137  H    0.063980
   138  H    0.222639
 Sum of Mulliken charges =  -0.00000

 Dipole moment (field-independent basis, Debye):
    X=              0.8586    Y=              4.1556    Z=              0.8172  Tot=              4.3213
 Quadrupole moment (field-independent basis, Debye-Ang):
   XX=           -340.0642   YY=           -385.9777   ZZ=           -398.9930
   XY=            -24.9887   XZ=              8.1200   YZ=             -3.0004

 Normal termination of Gaussian 16 at Thu Aug 29 10:37:47 2019.
