 Gaussian 16, Revision A.03,
 Gaussian 16:  ES64L-G16RevA.03 25-Dec-2016

 --------------------------
 # td=(NStates=1) B3LYP/SVP
 --------------------------

 --
 TD
 --
 Symbolic Z-matrix:
 Charge =  0 Multiplicity = 1

                         Standard orientation:
 ---------------------------------------------------------------------
 Center     Atomic      Atomic             Coordinates (Angstroms)
 Number     Number       Type             X           Y           Z
 ---------------------------------------------------------------------
      1          6           0       -5.050019   -1.933540    0.468283
      2          6           0       -4.683560    2.853583    1.313795
      3          6           0       -9.322639    3.246433   -0.311201
      4          6           0       -9.863002   -1.511704   -0.803493
      5          7           0       -5.151891    0.442543    0.762573
      6          6           0       -4.409284   -0.798726    0.796983
      7          6           0       -2.941105   -0.568334    1.329339
      8          6           0       -2.964703    0.847768    1.858176
      9          6           0       -4.357892    1.381793    1.210317
     10          6           0       -3.078885    0.706300    3.316818
     11          6           0       -2.014687   -0.688568    0.009878
     12          6           0       -0.635922   -0.739277    0.519347
     13          6           0        0.324170   -1.048909   -0.695932
     14          8           0        0.006964   -1.225285   -1.849311
     15          8           0        1.620027   -0.956917   -0.157633
     16          7           0       -7.020206    2.667422    0.325044
     17          6           0       -5.918169    3.355892    0.821281
     18          6           0       -6.134007    4.845263    0.988538
     19          6           0       -7.525902    5.008111    0.475233
     20          6           0       -8.000151    3.628451    0.153614
     21          6           0       -5.229524    5.829643    1.495157
     22          6           0       -8.066431    6.329064    0.351925
     23          6           0       -9.025609    6.655218   -0.588292
     24          7           0       -9.277312    0.908528   -0.284910
     25          6           0       -9.874412    2.020597   -0.436912
     26          6           0      -11.269727    1.869084   -0.887930
     27          6           0      -11.376356    0.549524   -1.009160
     28          6           0      -10.101887   -0.122454   -0.767867
     29          6           0      -12.205997    3.065973   -1.042701
     30          6           0      -12.702278   -0.178693   -1.514495
     31          6           0      -12.739771   -0.459639   -3.007875
     32          7           0       -7.545982   -1.245438   -0.195842
     33          6           0       -8.593046   -2.058255   -0.633220
     34          6           0       -8.115386   -3.455742   -0.628691
     35          6           0       -6.787902   -3.335304   -0.336501
     36          6           0       -6.449727   -2.098456   -0.034429
     37          6           0       -9.060836   -4.623243   -0.958664
     38          6           0       -5.617637   -4.258805   -0.066011
     39          8           0       -5.604056   -5.439164   -0.183167
     40          6           0       -4.488399   -3.302346    0.434164
     41          6           0       -3.914096   -3.810426    1.762545
     42          8           0       -4.173495   -3.200869    2.866241
     43          8           0       -2.957051   -4.707509    1.575736
     44          6           0       -2.413384   -5.429440    2.793714
     45          6           0        2.590161   -1.225192   -1.157434
     46          6           0        3.967436   -0.891405   -0.594505
     47          6           0        4.868844   -0.005454   -1.031165
     48          6           0        4.934650    0.751085   -2.391764
     49          6           0        6.169694    0.106484   -0.350617
     50          6           0        7.423537   -0.440269   -1.027035
     51          6           0        8.701164   -0.266411   -0.172543
     52          6           0       10.060083   -0.713873   -0.824296
     53          6           0        9.986679   -2.285695   -0.976209
     54          6           0       11.268541   -0.370350    0.072984
     55          6           0       12.725253   -0.544240   -0.679729
     56          6           0       13.829126   -0.118397    0.183528
     57          6           0       15.266413   -0.188368   -0.425324
     58          6           0       15.580004   -1.611490   -0.747815
     59          6           0       16.280557    0.512607    0.498720
     60          6           0       17.627447    0.833723   -0.199839
     61          6           0       18.571268    1.499319    0.812853
     62          6           0       20.011432    1.735713    0.214275
     63          6           0       20.036250    2.456722   -1.211647
     64          6           0       20.911643    2.469585    1.247706
     65          1           0       -3.820894    3.533720    1.725408
     66          1           0       -9.971985    3.977088   -0.445953
     67          1           0      -10.683009   -2.122124   -1.429068
     68          1           0       -2.825193   -1.482976    2.021774
     69          1           0       -2.068231    1.750363    1.663030
     70          1           0       -1.943598    0.535423    3.710285
     71          1           0       -3.646936    1.650860    3.736319
     72          1           0       -3.842331   -0.051688    3.522272
     73          1           0       -2.236860   -1.694863   -0.400921
     74          1           0       -2.374013    0.132496   -0.632435
     75          1           0       -0.180998    0.315771    0.737433
     76          1           0       -0.640422   -1.640151    1.295949
     77          1           0       -4.377106    5.761731    0.906377
     78          1           0       -5.557000    6.792560    1.315622
     79          1           0       -5.024135    5.661662    2.633200
     80          1           0       -7.749093    7.141026    0.917713
     81          1           0       -9.571996    6.043602   -1.349042
     82          1           0       -9.473944    7.795799   -0.668005
     83          1           0      -12.231201    3.838449   -0.275089
     84          1           0      -11.846432    3.740562   -1.641794
     85          1           0      -13.196107    2.581689   -1.255769
     86          1           0      -12.732483   -1.140514   -1.005600
     87          1           0      -13.722897    0.255946   -1.009863
     88          1           0      -12.594486    0.458142   -3.687978
     89          1           0      -12.097496   -1.470574   -3.225940
     90          1           0      -13.784092   -0.861226   -3.163375
     91          1           0       -9.912386   -4.821517   -0.241475
     92          1           0       -9.451526   -4.385122   -1.959482
     93          1           0       -8.440095   -5.626729   -1.144167
     94          1           0       -3.713593   -3.374834   -0.268724
     95          1           0       -1.683165   -6.083502    2.498926
     96          1           0       -2.117356   -4.609529    3.591794
     97          1           0       -3.346387   -6.096059    3.254597
     98          1           0        2.710176   -2.268824   -1.489061
     99          1           0        2.347875   -0.631796   -2.032398
    100          1           0        4.228277   -1.348965    0.325333
    101          1           0        5.010853    1.944069   -1.904181
    102          1           0        6.060419    0.547384   -2.860485
    103          1           0        3.937628    0.500606   -2.928535
    104          1           0        6.342165    1.249564   -0.116375
    105          1           0        6.091192   -0.443219    0.649598
    106          1           0        7.250413   -1.374417   -1.461712
    107          1           0        7.596817    0.089680   -1.983293
    108          1           0        8.919100    1.049953    0.151664
    109          1           0        8.649906   -0.777955    0.788012
    110          1           0       10.042232   -0.307363   -1.801897
    111          1           0        9.258468   -2.431725   -1.790805
    112          1           0       10.920886   -2.637925   -1.532706
    113          1           0        9.861390   -2.825556   -0.103829
    114          1           0       11.316122    0.650516    0.328290
    115          1           0       11.477109   -0.861968    1.129133
    116          1           0       13.132132   -1.500682   -1.158693
    117          1           0       12.837209   -0.219885   -1.509062
    118          1           0       13.683517    0.971674    0.589562
    119          1           0       14.052027   -0.615714    1.262043
    120          1           0       15.369598    0.480066   -1.404787
    121          1           0       14.874315   -2.201911   -1.588041
    122          1           0       16.545601   -1.844704   -1.292276
    123          1           0       15.646276   -2.140462    0.158532
    124          1           0       15.871948    1.426990    0.986833
    125          1           0       16.494382   -0.130514    1.399801
    126          1           0       18.070295   -0.307455   -0.693541
    127          1           0       17.473026    1.616079   -0.983060
    128          1           0       17.929827    2.596975    1.123509
    129          1           0       18.596201    0.908522    1.681851
    130          1           0       20.374223    0.752010    0.260320
    131          1           0       19.548424    3.470896   -1.106993
    132          1           0       21.006041    2.695736   -1.486699
    133          1           0       19.633259    1.804728   -2.025493
    134          1           0       20.637053    2.143598    2.317164
    135          1           0       22.066549    2.488340    1.085691
    136          1           0       20.659395    3.425064    1.137412
    137          1           0       -7.184426    1.794618    0.171334
    138          1           0       -7.863964   -0.264517    0.023590
 ---------------------------------------------------------------------

 SCF Done:  E(RB3LYP) =  -2732.94396229     A.U. after   18 cycles

 Excitation energies and oscillator strengths:

 Excited State   1:      Singlet-A      2.0414 eV  607.34 nm  f=0.1976  <S**2>=0.000
     235 -> 237        0.22881
     235 -> 238        0.20517
     236 -> 237        0.61007
     236 -> 238       -0.17610
 This state for optimization and/or second-order correction.
 Total Energy, E(TD-HF/TD-DFT) =  -2732.86894122
 Copying the excited state density for this state as the 1-particle RhoCI density.

 The electronic state is 1-A.
 Alpha  occ. eigenvalues --  -19.19866 -19.17924 -19.14150 -19.12941 -19.12347
 Alpha  occ. eigenvalues --  -14.37163 -14.35945 -14.32368 -14.29436 -10.32786
 Alpha  occ. eigenvalues --  -10.32010 -10.28149 -10.27584 -10.25177 -10.25144
 Alpha  occ. eigenvalues --  -10.24281 -10.23439 -10.22879 -10.22396 -10.22340
 Alpha  occ. eigenvalues --  -10.22248 -10.22050 -10.21993 -10.21701 -10.21467
 Alpha  occ. eigenvalues --  -10.21438 -10.21374 -10.21080 -10.21079 -10.21002
 Alpha  occ. eigenvalues --  -10.20901 -10.20738 -10.20633 -10.20507 -10.20273
 Alpha  occ. eigenvalues --  -10.20184 -10.20006 -10.20006 -10.19939 -10.19924
 Alpha  occ. eigenvalues --  -10.19865 -10.19618 -10.19561 -10.19526 -10.19510
 Alpha  occ. eigenvalues --  -10.19510 -10.19368 -10.19348 -10.19344 -10.19098
 Alpha  occ. eigenvalues --  -10.19008 -10.18872 -10.18735 -10.18451 -10.18278
 Alpha  occ. eigenvalues --  -10.18160 -10.18122 -10.18058 -10.17837 -10.17688
 Alpha  occ. eigenvalues --  -10.17655 -10.17512 -10.17474 -10.16358  -1.08952
 Alpha  occ. eigenvalues --   -1.08710  -1.04703  -1.01746  -0.98183  -0.97753
 Alpha  occ. eigenvalues --   -0.96933  -0.94720  -0.92841  -0.85207  -0.82701
 Alpha  occ. eigenvalues --   -0.82454  -0.81784  -0.81305  -0.80156  -0.80096
 Alpha  occ. eigenvalues --   -0.79449  -0.79192  -0.78615  -0.78246  -0.77595
 Alpha  occ. eigenvalues --   -0.76401  -0.76230  -0.75677  -0.74867  -0.74192
 Alpha  occ. eigenvalues --   -0.73493  -0.72783  -0.72416  -0.72379  -0.71491
 Alpha  occ. eigenvalues --   -0.69932  -0.69365  -0.68256  -0.67546  -0.66889
 Alpha  occ. eigenvalues --   -0.66670  -0.66551  -0.66066  -0.65002  -0.64425
 Alpha  occ. eigenvalues --   -0.63604  -0.62302  -0.62110  -0.61540  -0.60856
 Alpha  occ. eigenvalues --   -0.60022  -0.59129  -0.58119  -0.57995  -0.57602
 Alpha  occ. eigenvalues --   -0.57139  -0.56406  -0.56170  -0.55843  -0.55447
 Alpha  occ. eigenvalues --   -0.54990  -0.54582  -0.53910  -0.53471  -0.52459
 Alpha  occ. eigenvalues --   -0.51943  -0.51610  -0.51131  -0.50793  -0.50149
 Alpha  occ. eigenvalues --   -0.49604  -0.49422  -0.49167  -0.48141  -0.48047
 Alpha  occ. eigenvalues --   -0.47655  -0.47426  -0.47336  -0.47056  -0.46908
 Alpha  occ. eigenvalues --   -0.46735  -0.46447  -0.45972  -0.45673  -0.45398
 Alpha  occ. eigenvalues --   -0.45318  -0.44818  -0.44771  -0.44482  -0.44285
 Alpha  occ. eigenvalues --   -0.44120  -0.43872  -0.43602  -0.43382  -0.43304
 Alpha  occ. eigenvalues --   -0.43182  -0.42959  -0.42742  -0.42415  -0.42276
 Alpha  occ. eigenvalues --   -0.42225  -0.42049  -0.41872  -0.41688  -0.41515
 Alpha  occ. eigenvalues --   -0.41347  -0.41016  -0.40821  -0.40602  -0.40457
 Alpha  occ. eigenvalues --   -0.39959  -0.39728  -0.39629  -0.39420  -0.39135
 Alpha  occ. eigenvalues --   -0.39051  -0.38921  -0.38707  -0.38690  -0.38432
 Alpha  occ. eigenvalues --   -0.38226  -0.38155  -0.37880  -0.37785  -0.37647
 Alpha  occ. eigenvalues --   -0.37525  -0.37390  -0.37140  -0.36895  -0.36671
 Alpha  occ. eigenvalues --   -0.36595  -0.36498  -0.36241  -0.36204  -0.35881
 Alpha  occ. eigenvalues --   -0.35561  -0.35251  -0.35050  -0.34866  -0.34725
 Alpha  occ. eigenvalues --   -0.34477  -0.34420  -0.34170  -0.33662  -0.33270
 Alpha  occ. eigenvalues --   -0.32901  -0.32441  -0.32255  -0.32192  -0.31883
 Alpha  occ. eigenvalues --   -0.31736  -0.31700  -0.31361  -0.31237  -0.31102
 Alpha  occ. eigenvalues --   -0.30964  -0.30800  -0.30743  -0.30442  -0.30159
 Alpha  occ. eigenvalues --   -0.29894  -0.29364  -0.28266  -0.27893  -0.27707
 Alpha  occ. eigenvalues --   -0.27468  -0.26460  -0.26405  -0.26146  -0.25465
 Alpha  occ. eigenvalues --   -0.25202  -0.24656  -0.23500  -0.23017  -0.19877
 Alpha  occ. eigenvalues --   -0.18216
 Alpha virt. eigenvalues --   -0.10111  -0.07174  -0.03759  -0.02443  -0.01751
 Alpha virt. eigenvalues --   -0.00568  -0.00016   0.00497   0.02145   0.02844
 Alpha virt. eigenvalues --    0.03051   0.03471   0.03831   0.03883   0.04453

 Mulliken charges:
               1
     1  C    0.048957
     2  C   -0.119070
     3  C   -0.012152
     4  C   -0.094222
     5  N   -0.170135
     6  C   -0.123382
     7  C   -0.056222
     8  C   -0.119256
     9  C   -0.014188
    10  C    0.045333
    11  C    0.072240
    12  C    0.010094
    13  C    0.189758
    14  O   -0.212877
    15  O   -0.333050
    16  N    0.053782
    17  C    0.159625
    18  C   -0.198291
    19  C    0.086939
    20  C    0.063653
    21  C    0.179412
    22  C   -0.022222
    23  C   -0.114708
    24  N   -0.214155
    25  C    0.044658
    26  C   -0.134297
    27  C   -0.106600
    28  C    0.049634
    29  C    0.223092
    30  C   -0.002532
    31  C   -0.019838
    32  N   -0.104923
    33  C    0.036713
    34  C   -0.153948
    35  C   -0.013124
    36  C    0.137490
    37  C    0.047510
    38  C    0.070445
    39  O   -0.125954
    40  C   -0.009546
    41  C    0.230516
    42  O   -0.298742
    43  O   -0.302617
    44  C    0.145480
    45  C    0.303902
    46  C   -0.099522
    47  C   -0.117285
    48  C   -0.040428
    49  C    0.027512
    50  C    0.068041
    51  C   -0.039085
    52  C   -0.024507
    53  C    0.044563
    54  C    0.078552
    55  C    0.226969
    56  C   -0.065416
    57  C   -0.079284
    58  C    0.016130
    59  C    0.017781
    60  C   -0.042136
    61  C   -0.022726
    62  C   -0.050052
    63  C    0.038205
    64  C    0.042757
    65  H    0.021831
    66  H   -0.145857
    67  H    0.031484
    68  H    0.045819
    69  H    0.024814
    70  H    0.045500
    71  H    0.003219
    72  H    0.033339
    73  H    0.007101
    74  H    0.021594
    75  H    0.054452
    76  H    0.059030
    77  H    0.012200
    78  H   -0.017783
    79  H    0.056905
    80  H   -0.013297
    81  H    0.044187
    82  H    0.037022
    83  H   -0.004269
    84  H   -0.050966
    85  H    0.029390
    86  H   -0.010863
    87  H    0.021703
    88  H    0.044102
    89  H    0.030742
    90  H    0.012503
    91  H    0.047163
    92  H    0.026380
    93  H    0.046599
    94  H    0.038594
    95  H    0.034475
    96  H    0.078391
    97  H    0.069990
    98  H    0.020659
    99  H    0.000448
   100  H   -0.028455
   101  H    0.039595
   102  H    0.066718
   103  H    0.045637
   104  H    0.009784
   105  H   -0.000649
   106  H   -0.017622
   107  H   -0.015635
   108  H    0.004087
   109  H    0.000233
   110  H   -0.021876
   111  H   -0.001478
   112  H    0.005205
   113  H    0.004655
   114  H   -0.020816
   115  H    0.018917
   116  H   -0.043228
   117  H   -0.139325
   118  H   -0.010358
   119  H   -0.005850
   120  H   -0.004076
   121  H    0.030500
   122  H    0.006952
   123  H   -0.006205
   124  H   -0.008124
   125  H   -0.014974
   126  H    0.022278
   127  H    0.018346
   128  H    0.002433
   129  H   -0.014266
   130  H   -0.017513
   131  H    0.017574
   132  H   -0.012472
   133  H    0.029971
   134  H    0.013647
   135  H    0.017210
   136  H   -0.036059
   137  H    0.040376
   138  H    0.165007
 Sum of Mulliken charges =  -0.00000

 Dipole moment (field-independent basis, Debye):
    X=              3.1117    Y=              2.9280    Z=              0.5142  Tot=              4.3036
 Quadrupole moment (field-independent basis, Debye-Ang):
   XX=           -363.8913   YY=           -366.6264   ZZ=           -398.8019
   XY=            -26.3273   XZ=              2.9708   YZ=             -3.7700

 Normal termination of Gaussian 16 at Mon Aug 26 12:34:07 2019.
