 Gaussian 16, Revision A.03,
 Gaussian 16:  ES64L-G16RevA.03 25-Dec-2016

 --------------------------
 # td=(NStates=1) B3LYP/SVP
 --------------------------

 --
 TD
 --
 Symbolic Z-matrix:
 Charge =  0 Multiplicity = 1

                         Standard orientation:
 ---------------------------------------------------------------------
 Center     Atomic      Atomic             Coordinates (Angstroms)
 Number     Number       Type             X           Y           Z
 ---------------------------------------------------------------------
      1          6           0       -5.154020   -2.000456    0.557102
      2          6           0       -4.574554    2.694498    1.444363
      3          6           0       -9.273592    3.375032    0.086219
      4          6           0       -9.761782   -1.393251   -0.902963
      5          7           0       -5.188565    0.431905    0.863412
      6          6           0       -4.570536   -0.799383    1.024232
      7          6           0       -3.131024   -0.591792    1.398905
      8          6           0       -3.033329    0.762115    1.935562
      9          6           0       -4.358866    1.417095    1.400337
     10          6           0       -3.167154    0.808193    3.600880
     11          6           0       -2.136813   -0.638579    0.094134
     12          6           0       -0.707173   -0.708868    0.522566
     13          6           0        0.296772   -0.942607   -0.668144
     14          8           0        0.002110   -1.287236   -1.786274
     15          8           0        1.573281   -0.769742   -0.272692
     16          7           0       -6.974755    2.790079    0.592585
     17          6           0       -5.826624    3.354811    1.012432
     18          6           0       -6.091226    4.735108    1.011136
     19          6           0       -7.359657    5.014314    0.547304
     20          6           0       -7.918702    3.709982    0.215165
     21          6           0       -5.032552    5.770534    1.495195
     22          6           0       -8.083390    6.350355    0.248913
     23          6           0       -8.848553    6.642457   -0.787054
     24          7           0       -9.193384    0.907069   -0.504956
     25          6           0       -9.851563    2.211996   -0.435107
     26          6           0      -11.215672    2.038469   -0.944422
     27          6           0      -11.311338    0.691417   -1.146076
     28          6           0      -10.035974   -0.021400   -0.933869
     29          6           0      -12.186729    3.077655   -1.213617
     30          6           0      -12.567691    0.016332   -1.707344
     31          6           0      -12.482941   -0.541287   -3.189449
     32          7           0       -7.503012   -1.146186   -0.331618
     33          6           0       -8.524305   -1.946550   -0.720042
     34          6           0       -8.164593   -3.344465   -0.732899
     35          6           0       -6.816102   -3.383961   -0.332037
     36          6           0       -6.424481   -2.039050   -0.061194
     37          6           0       -9.120244   -4.498523   -0.967606
     38          6           0       -5.715707   -4.352466   -0.032571
     39          8           0       -5.778918   -5.504135   -0.108548
     40          6           0       -4.527854   -3.432204    0.365762
     41          6           0       -4.014090   -3.923592    1.778864
     42          8           0       -4.278664   -3.481767    2.846095
     43          8           0       -3.187082   -4.911577    1.454694
     44          6           0       -2.726056   -5.704432    2.549856
     45          6           0        2.608119   -1.128478   -1.220160
     46          6           0        3.941124   -0.858821   -0.584595
     47          6           0        4.904571   -0.028806   -1.072045
     48          6           0        4.876316    0.635845   -2.398054
     49          6           0        6.150224    0.003281   -0.246572
     50          6           0        7.548600   -0.506683   -0.906643
     51          6           0        8.729899   -0.340201   -0.015838
     52          6           0       10.001662   -0.775668   -0.670348
     53          6           0       10.087872   -2.189690   -1.000991
     54          6           0       11.230835   -0.298456    0.206431
     55          6           0       12.642605   -0.406705   -0.574355
     56          6           0       13.807085   -0.016565    0.280932
     57          6           0       15.200126   -0.053739   -0.540039
     58          6           0       15.646386   -1.489975   -0.772351
     59          6           0       16.203378    0.635979    0.338989
     60          6           0       17.697250    0.803751   -0.294935
     61          6           0       18.622763    1.688786    0.574002
     62          6           0       20.058074    1.578004    0.220647
     63          6           0       20.262372    2.122612   -1.163202
     64          6           0       20.959743    2.407711    1.196466
     65          1           0       -3.926372    3.453619    1.869687
     66          1           0      -10.026025    4.255744    0.002188
     67          1           0      -10.647036   -1.927267   -1.122420
     68          1           0       -2.829847   -1.579568    1.863921
     69          1           0       -2.130299    1.319198    1.756258
     70          1           0       -2.062375    0.570547    3.936156
     71          1           0       -3.468389    1.766000    3.847112
     72          1           0       -3.809891   -0.121121    4.024720
     73          1           0       -2.432635   -1.604978   -0.222829
     74          1           0       -2.420239   -0.025131   -0.744486
     75          1           0       -0.386141    0.164372    1.191636
     76          1           0       -0.734396   -1.598417    1.357819
     77          1           0       -4.277468    6.000237    0.810242
     78          1           0       -5.665675    6.758920    1.517452
     79          1           0       -4.529591    5.704817    2.499740
     80          1           0       -7.546344    7.065752    0.911047
     81          1           0       -9.254318    6.143119   -1.751276
     82          1           0       -9.179283    7.631524   -0.695240
     83          1           0      -12.853061    3.659698   -0.225260
     84          1           0      -11.648595    3.904494   -1.795633
     85          1           0      -13.040800    2.616747   -1.791611
     86          1           0      -12.616431   -0.922797   -0.885421
     87          1           0      -13.530940    0.657135   -1.713525
     88          1           0      -12.471020    0.314326   -3.764323
     89          1           0      -11.491163   -1.171646   -3.310219
     90          1           0      -13.305312   -1.160820   -3.452922
     91          1           0       -9.833651   -4.400347   -0.144483
     92          1           0       -9.670162   -4.609235   -1.989470
     93          1           0       -8.695844   -5.539144   -1.096663
     94          1           0       -3.728599   -3.325576   -0.410778
     95          1           0       -2.075196   -6.326961    1.984003
     96          1           0       -2.563235   -5.052186    3.468817
     97          1           0       -3.650518   -6.392197    3.016404
     98          1           0        2.405409   -1.970530   -1.713703
     99          1           0        2.549579   -0.485401   -2.129097
    100          1           0        4.083007   -1.380192    0.262911
    101          1           0        5.632064    1.538636   -2.537787
    102          1           0        5.366071   -0.022667   -3.058555
    103          1           0        3.905180    0.993196   -2.908785
    104          1           0        6.377213    1.038792    0.042237
    105          1           0        5.993081   -0.648422    0.716119
    106          1           0        7.333192   -1.611048   -1.042336
    107          1           0        7.696392   -0.083516   -1.828369
    108          1           0        8.672524    0.736345    0.322733
    109          1           0        8.651828   -1.032725    0.852755
    110          1           0        9.946328   -0.226382   -1.529177
    111          1           0        9.302353   -2.437706   -1.802021
    112          1           0       11.076838   -2.508616   -1.432068
    113          1           0       10.006592   -2.940560   -0.136088
    114          1           0       11.127057    0.668928    0.555160
    115          1           0       11.373828   -0.857564    1.045434
    116          1           0       12.719678   -1.554819   -0.861548
    117          1           0       12.494335   -0.039548   -1.685220
    118          1           0       13.522915    0.995607    0.517554
    119          1           0       13.832579   -0.655707    1.286460
    120          1           0       15.064256    0.503386   -1.488806
    121          1           0       14.918839   -2.092497   -1.373502
    122          1           0       16.667948   -1.759445   -1.298767
    123          1           0       15.823768   -1.986720    0.020359
    124          1           0       15.931823    1.718965    0.688672
    125          1           0       16.416225    0.098029    1.275210
    126          1           0       18.233289   -0.303692   -0.513853
    127          1           0       17.522588    1.179669   -1.427551
    128          1           0       18.283678    2.767249    0.630914
    129          1           0       18.592048    1.146372    1.625684
    130          1           0       20.317145    0.390931    0.245401
    131          1           0       19.869597    3.131500   -0.953159
    132          1           0       21.424228    2.037416   -1.427124
    133          1           0       19.594508    1.640701   -1.864009
    134          1           0       20.810458    2.221582    2.253934
    135          1           0       21.981671    2.372296    0.939559
    136          1           0       20.573140    3.455372    1.317225
    137          1           0       -7.224971    1.697542    0.759319
    138          1           0       -7.560557   -0.346093    0.079855
 ---------------------------------------------------------------------

 SCF Done:  E(RB3LYP) =  -2733.07773579     A.U. after   17 cycles

 Excitation energies and oscillator strengths:

 Excited State   1:      Singlet-A      1.9968 eV  620.91 nm  f=0.1716  <S**2>=0.000
     235 -> 238       -0.27126
     236 -> 237        0.64967
 This state for optimization and/or second-order correction.
 Total Energy, E(TD-HF/TD-DFT) =  -2733.00435464
 Copying the excited state density for this state as the 1-particle RhoCI density.

 The electronic state is 1-A.
 Alpha  occ. eigenvalues --  -19.18993 -19.17482 -19.14410 -19.13664 -19.12547
 Alpha  occ. eigenvalues --  -14.36988 -14.35971 -14.31865 -14.29174 -10.32584
 Alpha  occ. eigenvalues --  -10.31830 -10.28671 -10.26156 -10.23650 -10.23411
 Alpha  occ. eigenvalues --  -10.23389 -10.23085 -10.22775 -10.22520 -10.22350
 Alpha  occ. eigenvalues --  -10.22228 -10.22036 -10.21691 -10.21206 -10.21035
 Alpha  occ. eigenvalues --  -10.20911 -10.20732 -10.20727 -10.20686 -10.20665
 Alpha  occ. eigenvalues --  -10.20587 -10.20511 -10.20504 -10.20371 -10.20179
 Alpha  occ. eigenvalues --  -10.20027 -10.19883 -10.19842 -10.19813 -10.19793
 Alpha  occ. eigenvalues --  -10.19708 -10.19699 -10.19476 -10.19352 -10.19310
 Alpha  occ. eigenvalues --  -10.19281 -10.19241 -10.19142 -10.19084 -10.18919
 Alpha  occ. eigenvalues --  -10.18807 -10.18744 -10.18588 -10.18422 -10.18238
 Alpha  occ. eigenvalues --  -10.18176 -10.18064 -10.17933 -10.17905 -10.17859
 Alpha  occ. eigenvalues --  -10.17709 -10.17415 -10.17185 -10.17088  -1.11656
 Alpha  occ. eigenvalues --   -1.09229  -1.07237  -1.03625  -1.00476  -0.98544
 Alpha  occ. eigenvalues --   -0.97851  -0.92721  -0.91720  -0.84955  -0.83225
 Alpha  occ. eigenvalues --   -0.81986  -0.81542  -0.81047  -0.80658  -0.80355
 Alpha  occ. eigenvalues --   -0.80118  -0.79758  -0.79150  -0.77861  -0.76885
 Alpha  occ. eigenvalues --   -0.76683  -0.75709  -0.75606  -0.74506  -0.73990
 Alpha  occ. eigenvalues --   -0.73621  -0.72978  -0.71918  -0.71760  -0.70283
 Alpha  occ. eigenvalues --   -0.69512  -0.69071  -0.68650  -0.67747  -0.67709
 Alpha  occ. eigenvalues --   -0.67397  -0.66977  -0.66433  -0.66236  -0.65249
 Alpha  occ. eigenvalues --   -0.63422  -0.62340  -0.62028  -0.61036  -0.60741
 Alpha  occ. eigenvalues --   -0.60185  -0.59190  -0.58818  -0.57869  -0.57054
 Alpha  occ. eigenvalues --   -0.56985  -0.56802  -0.56365  -0.56217  -0.55973
 Alpha  occ. eigenvalues --   -0.55748  -0.54426  -0.53788  -0.53394  -0.53392
 Alpha  occ. eigenvalues --   -0.52660  -0.52022  -0.51662  -0.51198  -0.50575
 Alpha  occ. eigenvalues --   -0.49495  -0.49285  -0.48958  -0.48709  -0.48496
 Alpha  occ. eigenvalues --   -0.47879  -0.47406  -0.47128  -0.46959  -0.46729
 Alpha  occ. eigenvalues --   -0.46525  -0.46455  -0.46181  -0.45832  -0.45725
 Alpha  occ. eigenvalues --   -0.45222  -0.45101  -0.45050  -0.44761  -0.44718
 Alpha  occ. eigenvalues --   -0.44533  -0.44423  -0.44155  -0.44077  -0.43746
 Alpha  occ. eigenvalues --   -0.43541  -0.43394  -0.43105  -0.43045  -0.42909
 Alpha  occ. eigenvalues --   -0.42844  -0.42084  -0.42026  -0.41626  -0.41498
 Alpha  occ. eigenvalues --   -0.41291  -0.40989  -0.40838  -0.40629  -0.40482
 Alpha  occ. eigenvalues --   -0.40152  -0.40030  -0.39592  -0.39424  -0.39290
 Alpha  occ. eigenvalues --   -0.39102  -0.38959  -0.38829  -0.38779  -0.38493
 Alpha  occ. eigenvalues --   -0.38330  -0.38164  -0.37969  -0.37936  -0.37686
 Alpha  occ. eigenvalues --   -0.37337  -0.37172  -0.36960  -0.36587  -0.36266
 Alpha  occ. eigenvalues --   -0.36195  -0.36144  -0.35807  -0.35711  -0.35592
 Alpha  occ. eigenvalues --   -0.35244  -0.35175  -0.34851  -0.34690  -0.34670
 Alpha  occ. eigenvalues --   -0.34412  -0.34200  -0.33862  -0.33714  -0.33603
 Alpha  occ. eigenvalues --   -0.33511  -0.33417  -0.33077  -0.32701  -0.32694
 Alpha  occ. eigenvalues --   -0.32373  -0.31900  -0.31742  -0.31564  -0.31403
 Alpha  occ. eigenvalues --   -0.31089  -0.30882  -0.30507  -0.30311  -0.30027
 Alpha  occ. eigenvalues --   -0.29940  -0.29540  -0.29501  -0.28329  -0.27994
 Alpha  occ. eigenvalues --   -0.27846  -0.26519  -0.26334  -0.26248  -0.25821
 Alpha  occ. eigenvalues --   -0.24562  -0.24482  -0.23958  -0.21965  -0.19359
 Alpha  occ. eigenvalues --   -0.18686
 Alpha virt. eigenvalues --   -0.10231  -0.07269  -0.04375  -0.01496  -0.00534
 Alpha virt. eigenvalues --   -0.00368  -0.00267   0.01047   0.01981   0.03841
 Alpha virt. eigenvalues --    0.03924   0.04015   0.04389   0.04396   0.04863

 Mulliken charges:
               1
     1  C   -0.073906
     2  C   -0.061524
     3  C   -0.072193
     4  C   -0.070990
     5  N   -0.229311
     6  C   -0.005534
     7  C   -0.065698
     8  C    0.005636
     9  C    0.107406
    10  C    0.011137
    11  C    0.086373
    12  C   -0.029418
    13  C    0.205026
    14  O   -0.228425
    15  O   -0.311176
    16  N   -0.091991
    17  C    0.023363
    18  C   -0.129067
    19  C   -0.046829
    20  C    0.064831
    21  C    0.071930
    22  C    0.001473
    23  C   -0.017962
    24  N   -0.279146
    25  C    0.026226
    26  C   -0.035049
    27  C   -0.073471
    28  C    0.034916
    29  C   -0.016969
    30  C   -0.068489
    31  C    0.039956
    32  N    0.035751
    33  C    0.136464
    34  C   -0.123567
    35  C   -0.052062
    36  C    0.123443
    37  C    0.045717
    38  C    0.092657
    39  O   -0.086928
    40  C   -0.094887
    41  C    0.198804
    42  O   -0.182028
    43  O   -0.278585
    44  C    0.131657
    45  C    0.343035
    46  C   -0.069521
    47  C   -0.075364
    48  C    0.032300
    49  C    0.045153
    50  C    0.003763
    51  C    0.035438
    52  C    0.009483
    53  C   -0.002331
    54  C    0.116925
    55  C   -0.078545
    56  C    0.044562
    57  C   -0.011802
    58  C    0.077645
    59  C    0.015334
    60  C   -0.095748
    61  C    0.008303
    62  C   -0.136283
    63  C    0.041152
    64  C    0.078748
    65  H   -0.030642
    66  H    0.015935
    67  H   -0.043883
    68  H   -0.002575
    69  H   -0.006381
    70  H    0.018040
    71  H    0.005112
    72  H    0.055860
    73  H   -0.036101
    74  H    0.013850
    75  H    0.037414
    76  H    0.043735
    77  H    0.010614
    78  H    0.001582
    79  H    0.037205
    80  H    0.013982
    81  H    0.060288
    82  H    0.010828
    83  H    0.038397
    84  H    0.039461
    85  H    0.015068
    86  H    0.023905
    87  H    0.020398
    88  H   -0.000769
    89  H    0.025197
    90  H    0.010388
    91  H    0.043910
    92  H    0.033891
    93  H    0.038219
    94  H    0.093701
    95  H    0.046185
    96  H    0.060247
    97  H    0.039584
    98  H   -0.021322
    99  H   -0.023273
   100  H   -0.051308
   101  H    0.013990
   102  H    0.018239
   103  H    0.054397
   104  H   -0.001735
   105  H    0.016387
   106  H    0.007887
   107  H   -0.030309
   108  H   -0.002705
   109  H   -0.015090
   110  H   -0.053028
   111  H    0.015509
   112  H    0.010851
   113  H    0.008359
   114  H   -0.038296
   115  H   -0.042211
   116  H   -0.003066
   117  H    0.007534
   118  H   -0.009139
   119  H    0.020423
   120  H   -0.003199
   121  H    0.006213
   122  H    0.010153
   123  H   -0.058249
   124  H    0.005118
   125  H   -0.007651
   126  H    0.019452
   127  H    0.015912
   128  H    0.012497
   129  H    0.010350
   130  H    0.004497
   131  H   -0.006978
   132  H    0.027572
   133  H    0.008544
   134  H   -0.016553
   135  H    0.005322
   136  H   -0.011130
   137  H    0.209406
   138  H    0.054176
 Sum of Mulliken charges =  -0.00000

 Dipole moment (field-independent basis, Debye):
    X=              3.0843    Y=              1.3530    Z=              0.6161  Tot=              3.4239
 Quadrupole moment (field-independent basis, Debye-Ang):
   XX=           -376.4822   YY=           -373.8251   ZZ=           -395.0442
   XY=            -11.7658   XZ=             12.5981   YZ=             -3.3249

 Normal termination of Gaussian 16 at Fri Aug 23 16:06:58 2019.
