 Gaussian 16, Revision A.03,
 Gaussian 16:  ES64L-G16RevA.03 25-Dec-2016

 --------------------------
 # td=(NStates=1) B3LYP/SVP
 --------------------------

 --
 TD
 --
 Symbolic Z-matrix:
 Charge =  0 Multiplicity = 1

                         Standard orientation:
 ---------------------------------------------------------------------
 Center     Atomic      Atomic             Coordinates (Angstroms)
 Number     Number       Type             X           Y           Z
 ---------------------------------------------------------------------
      1          6           0       -5.179299   -2.003708    0.557454
      2          6           0       -4.694637    2.728354    1.346390
      3          6           0       -9.236648    3.328686   -0.141669
      4          6           0       -9.840250   -1.412764   -0.970700
      5          7           0       -5.269155    0.446509    0.860837
      6          6           0       -4.523820   -0.754898    0.793086
      7          6           0       -3.086422   -0.515427    1.294798
      8          6           0       -3.165010    0.815406    1.902981
      9          6           0       -4.408092    1.379207    1.310547
     10          6           0       -3.155065    0.890335    3.360163
     11          6           0       -2.037479   -0.870364    0.085939
     12          6           0       -0.633310   -0.767999    0.583086
     13          6           0        0.326285   -1.142160   -0.594876
     14          8           0        0.110780   -1.735007   -1.620033
     15          8           0        1.568888   -0.767646   -0.205089
     16          7           0       -7.033197    2.714013    0.627321
     17          6           0       -5.843660    3.423771    0.937947
     18          6           0       -6.137169    4.824843    0.945537
     19          6           0       -7.392940    4.973612    0.498209
     20          6           0       -7.968733    3.671758    0.211322
     21          6           0       -5.234312    5.771331    1.445357
     22          6           0       -8.147309    6.272421    0.313651
     23          6           0       -9.018164    6.693339   -0.563266
     24          7           0       -9.193547    0.892677   -0.476940
     25          6           0       -9.870320    2.111366   -0.426493
     26          6           0      -11.185061    1.939884   -0.999876
     27          6           0      -11.315002    0.600041   -1.195380
     28          6           0      -10.183846   -0.052128   -0.876303
     29          6           0      -12.062407    3.029000   -1.252630
     30          6           0      -12.566460   -0.169997   -1.646138
     31          6           0      -12.585409   -0.417463   -3.240963
     32          7           0       -7.509022   -1.274230   -0.209493
     33          6           0       -8.581069   -2.070890   -0.671013
     34          6           0       -8.169251   -3.412824   -0.638818
     35          6           0       -6.937750   -3.398991   -0.154855
     36          6           0       -6.569879   -2.094684    0.061330
     37          6           0       -9.118793   -4.508073   -1.056917
     38          6           0       -5.734654   -4.328058    0.090170
     39          8           0       -5.636692   -5.508986   -0.007388
     40          6           0       -4.534627   -3.337111    0.599060
     41          6           0       -3.874383   -3.726785    1.814059
     42          8           0       -4.212212   -3.236981    2.861568
     43          8           0       -3.002042   -4.746325    1.733494
     44          6           0       -2.461988   -5.350117    2.918438
     45          6           0        2.690480   -1.053754   -1.157534
     46          6           0        3.981751   -0.693668   -0.633951
     47          6           0        4.996039   -0.010574   -1.232359
     48          6           0        4.879172    0.607724   -2.529578
     49          6           0        6.277199    0.105454   -0.440477
     50          6           0        7.465966   -0.459375   -1.103931
     51          6           0        8.809786   -0.393612   -0.203281
     52          6           0       10.086757   -0.764416   -0.965838
     53          6           0       10.072545   -2.334374   -1.218516
     54          6           0       11.290350   -0.318357   -0.178322
     55          6           0       12.589195   -0.519008   -0.757570
     56          6           0       13.783228   -0.002034    0.110151
     57          6           0       15.225802   -0.166128   -0.562084
     58          6           0       15.704342   -1.692765   -0.783978
     59          6           0       16.269025    0.613508    0.444613
     60          6           0       17.711672    0.760738   -0.099536
     61          6           0       18.509065    1.586305    0.826841
     62          6           0       19.970627    1.818416    0.364564
     63          6           0       20.078377    2.572820   -0.969012
     64          6           0       20.856849    2.339541    1.406538
     65          1           0       -3.910435    3.361744    1.843122
     66          1           0       -9.817100    4.242960   -0.373717
     67          1           0      -10.445079   -2.056818   -1.291847
     68          1           0       -2.803930   -1.245924    2.160467
     69          1           0       -2.209218    1.515115    1.377357
     70          1           0       -2.096792    0.452386    3.782934
     71          1           0       -3.564144    1.905679    3.599699
     72          1           0       -4.047793    0.222970    3.628979
     73          1           0       -2.291580   -1.711178   -0.106486
     74          1           0       -2.326368   -0.143537   -0.667826
     75          1           0       -0.410949    0.205204    1.323861
     76          1           0       -0.333908   -1.637959    1.407634
     77          1           0       -4.194381    5.602278    1.052852
     78          1           0       -5.459492    6.802003    1.168028
     79          1           0       -5.268097    5.729327    2.571819
     80          1           0       -7.785553    6.988883    1.059054
     81          1           0       -9.506290    6.130167   -1.342317
     82          1           0       -9.542129    7.668035   -0.487108
     83          1           0      -12.450619    3.741557   -0.438466
     84          1           0      -11.953181    3.640991   -2.054868
     85          1           0      -13.096591    2.582134   -1.337691
     86          1           0      -12.424136   -1.109244   -0.992924
     87          1           0      -13.482115    0.582234   -1.291581
     88          1           0      -12.501944    0.430457   -3.860379
     89          1           0      -11.869084   -1.413148   -3.493231
     90          1           0      -13.614450   -0.721013   -3.642212
     91          1           0      -10.052494   -4.686168   -0.363161
     92          1           0       -9.275858   -4.570649   -2.178748
     93          1           0       -8.467728   -5.367549   -0.936903
     94          1           0       -3.943406   -3.696995   -0.255666
     95          1           0       -1.892018   -6.295277    2.822424
     96          1           0       -1.769349   -4.490892    3.208689
     97          1           0       -3.369254   -5.319908    3.795641
     98          1           0        2.684090   -2.215531   -1.401501
     99          1           0        2.409490   -0.575326   -2.081106
    100          1           0        4.030179   -1.126893    0.545266
    101          1           0        5.281956    1.501347   -2.558263
    102          1           0        5.607550    0.011045   -3.174296
    103          1           0        3.962399    0.515222   -3.252057
    104          1           0        6.355807    1.219573   -0.143492
    105          1           0        6.039282   -0.342186    0.563064
    106          1           0        7.261145   -1.552592   -1.527393
    107          1           0        7.729717    0.187803   -2.092850
    108          1           0        9.117148    0.559018    0.313315
    109          1           0        8.661948   -1.162212    0.630999
    110          1           0       10.291194   -0.229316   -1.945370
    111          1           0        9.289583   -2.646800   -2.071125
    112          1           0       11.033981   -2.485161   -1.704325
    113          1           0        9.989208   -2.917263   -0.316278
    114          1           0       11.155998    0.805442    0.134218
    115          1           0       11.139692   -0.782787    0.811413
    116          1           0       12.758657   -1.662905   -0.883325
    117          1           0       12.785202    0.029308   -1.657966
    118          1           0       13.517453    1.007730    0.214527
    119          1           0       13.821395   -0.657614    1.017090
    120          1           0       15.274887    0.375112   -1.557075
    121          1           0       15.295756   -2.115909   -1.896941
    122          1           0       16.758076   -1.773918   -0.851854
    123          1           0       15.477707   -2.129460    0.270802
    124          1           0       15.804869    1.583466    0.522556
    125          1           0       16.310064    0.202598    1.423193
    126          1           0       18.397791   -0.324596   -0.193197
    127          1           0       17.675700    1.196430   -1.213579
    128          1           0       18.159924    2.508553    1.004987
    129          1           0       18.605117    1.135228    1.866704
    130          1           0       20.338303    0.695787    0.133600
    131          1           0       19.961874    3.606266   -0.940877
    132          1           0       21.159420    2.784343   -1.208679
    133          1           0       19.271957    2.140743   -1.768603
    134          1           0       20.731605    1.759116    2.326052
    135          1           0       21.860126    2.544790    1.221319
    136          1           0       20.699697    3.326333    1.674115
    137          1           0       -7.161856    1.749424    0.781899
    138          1           0       -7.691725   -0.267430   -0.153106
 ---------------------------------------------------------------------

 SCF Done:  E(RB3LYP) =  -2733.02265840     A.U. after   18 cycles

 Excitation energies and oscillator strengths:

 Excited State   1:      Singlet-A      2.1068 eV  588.50 nm  f=0.0871  <S**2>=0.000
     235 -> 237       -0.39924
     235 -> 238       -0.27302
     236 -> 237        0.42862
     236 -> 238       -0.27898
 This state for optimization and/or second-order correction.
 Total Energy, E(TD-HF/TD-DFT) =  -2732.94523586
 Copying the excited state density for this state as the 1-particle RhoCI density.

 The electronic state is 1-A.
 Alpha  occ. eigenvalues --  -19.17439 -19.16512 -19.13685 -19.12464 -19.11176
 Alpha  occ. eigenvalues --  -14.36352 -14.35879 -14.32032 -14.29161 -10.31351
 Alpha  occ. eigenvalues --  -10.30818 -10.29315 -10.26318 -10.24465 -10.23864
 Alpha  occ. eigenvalues --  -10.23141 -10.22979 -10.22933 -10.22559 -10.22452
 Alpha  occ. eigenvalues --  -10.22125 -10.21248 -10.21003 -10.20826 -10.20805
 Alpha  occ. eigenvalues --  -10.20728 -10.20606 -10.20570 -10.20463 -10.20428
 Alpha  occ. eigenvalues --  -10.20337 -10.20283 -10.20209 -10.20154 -10.20125
 Alpha  occ. eigenvalues --  -10.20100 -10.20059 -10.19989 -10.19948 -10.19878
 Alpha  occ. eigenvalues --  -10.19755 -10.19748 -10.19583 -10.19555 -10.19408
 Alpha  occ. eigenvalues --  -10.19401 -10.19223 -10.19150 -10.19102 -10.19031
 Alpha  occ. eigenvalues --  -10.18986 -10.18516 -10.18465 -10.18330 -10.18269
 Alpha  occ. eigenvalues --  -10.18144 -10.18094 -10.18058 -10.17930 -10.17871
 Alpha  occ. eigenvalues --  -10.17622 -10.17222 -10.17161 -10.16171  -1.09252
 Alpha  occ. eigenvalues --   -1.08014  -1.05070  -1.00401  -1.00225  -0.99660
 Alpha  occ. eigenvalues --   -0.96811  -0.93750  -0.92152  -0.84257  -0.83168
 Alpha  occ. eigenvalues --   -0.83158  -0.82119  -0.81760  -0.81532  -0.81175
 Alpha  occ. eigenvalues --   -0.80582  -0.79281  -0.78728  -0.78543  -0.78171
 Alpha  occ. eigenvalues --   -0.76977  -0.76505  -0.76056  -0.75337  -0.74254
 Alpha  occ. eigenvalues --   -0.73503  -0.73290  -0.72275  -0.72057  -0.71486
 Alpha  occ. eigenvalues --   -0.70049  -0.69213  -0.68547  -0.68457  -0.67974
 Alpha  occ. eigenvalues --   -0.67394  -0.66820  -0.66624  -0.65629  -0.65215
 Alpha  occ. eigenvalues --   -0.64433  -0.62974  -0.62764  -0.62055  -0.61163
 Alpha  occ. eigenvalues --   -0.60495  -0.58989  -0.58335  -0.57571  -0.56480
 Alpha  occ. eigenvalues --   -0.55808  -0.55743  -0.55716  -0.55647  -0.55320
 Alpha  occ. eigenvalues --   -0.54907  -0.54670  -0.54295  -0.54189  -0.53573
 Alpha  occ. eigenvalues --   -0.52995  -0.52170  -0.51820  -0.50679  -0.50120
 Alpha  occ. eigenvalues --   -0.49563  -0.48896  -0.48844  -0.48656  -0.48258
 Alpha  occ. eigenvalues --   -0.47936  -0.47690  -0.47318  -0.47146  -0.47028
 Alpha  occ. eigenvalues --   -0.46918  -0.46083  -0.45955  -0.45902  -0.45769
 Alpha  occ. eigenvalues --   -0.45475  -0.45342  -0.45101  -0.44909  -0.44716
 Alpha  occ. eigenvalues --   -0.44448  -0.44366  -0.44065  -0.43983  -0.43821
 Alpha  occ. eigenvalues --   -0.43529  -0.43355  -0.43192  -0.43002  -0.42928
 Alpha  occ. eigenvalues --   -0.42701  -0.42472  -0.41989  -0.41818  -0.41613
 Alpha  occ. eigenvalues --   -0.41361  -0.41221  -0.41136  -0.40882  -0.40648
 Alpha  occ. eigenvalues --   -0.40279  -0.40097  -0.39957  -0.39915  -0.39633
 Alpha  occ. eigenvalues --   -0.39531  -0.39347  -0.39233  -0.38818  -0.38693
 Alpha  occ. eigenvalues --   -0.38360  -0.38105  -0.37757  -0.37434  -0.37292
 Alpha  occ. eigenvalues --   -0.37069  -0.36969  -0.36923  -0.36686  -0.36559
 Alpha  occ. eigenvalues --   -0.36348  -0.36080  -0.35792  -0.35785  -0.35287
 Alpha  occ. eigenvalues --   -0.35250  -0.35000  -0.34951  -0.34316  -0.34194
 Alpha  occ. eigenvalues --   -0.34099  -0.33931  -0.33873  -0.33758  -0.33677
 Alpha  occ. eigenvalues --   -0.33456  -0.33024  -0.32765  -0.32245  -0.32125
 Alpha  occ. eigenvalues --   -0.31723  -0.31548  -0.31250  -0.31167  -0.30952
 Alpha  occ. eigenvalues --   -0.30888  -0.30716  -0.30476  -0.30078  -0.29615
 Alpha  occ. eigenvalues --   -0.29332  -0.29132  -0.28223  -0.27952  -0.27754
 Alpha  occ. eigenvalues --   -0.27648  -0.27141  -0.27076  -0.26100  -0.26051
 Alpha  occ. eigenvalues --   -0.25245  -0.24736  -0.23865  -0.21784  -0.19322
 Alpha  occ. eigenvalues --   -0.19175
 Alpha virt. eigenvalues --   -0.09904  -0.07954  -0.03538  -0.01481  -0.00228
 Alpha virt. eigenvalues --    0.00087   0.00223   0.00640   0.01649   0.03170
 Alpha virt. eigenvalues --    0.03484   0.04166   0.04229   0.04661   0.04744

 Mulliken charges:
               1
     1  C    0.011231
     2  C   -0.095232
     3  C   -0.082332
     4  C    0.058298
     5  N   -0.202102
     6  C   -0.026664
     7  C   -0.126856
     8  C   -0.076885
     9  C   -0.036495
    10  C    0.087311
    11  C    0.304730
    12  C   -0.107763
    13  C    0.213178
    14  O   -0.223740
    15  O   -0.341501
    16  N   -0.100247
    17  C    0.119243
    18  C   -0.094405
    19  C    0.040819
    20  C    0.094306
    21  C    0.086025
    22  C   -0.015639
    23  C   -0.033717
    24  N   -0.318816
    25  C    0.086504
    26  C   -0.095088
    27  C   -0.048112
    28  C    0.130773
    29  C    0.102775
    30  C   -0.016108
    31  C   -0.007170
    32  N    0.057854
    33  C   -0.023606
    34  C   -0.173417
    35  C   -0.023861
    36  C    0.048384
    37  C    0.077817
    38  C    0.074137
    39  O   -0.121080
    40  C   -0.035120
    41  C    0.190648
    42  O   -0.227330
    43  O   -0.301476
    44  C    0.122921
    45  C    0.254642
    46  C   -0.146024
    47  C   -0.150671
    48  C    0.138481
    49  C    0.100191
    50  C   -0.047201
    51  C    0.047534
    52  C   -0.096770
    53  C    0.014455
    54  C    0.007994
    55  C    0.050415
    56  C    0.036957
    57  C   -0.107622
    58  C    0.003002
    59  C    0.066346
    60  C   -0.053827
    61  C    0.077935
    62  C   -0.098926
    63  C    0.024834
    64  C    0.115228
    65  H   -0.016769
    66  H   -0.037891
    67  H   -0.146342
    68  H    0.021805
    69  H    0.004857
    70  H    0.050030
    71  H    0.008335
    72  H    0.031836
    73  H   -0.108265
    74  H    0.012265
    75  H    0.064857
    76  H    0.051193
    77  H    0.034693
    78  H    0.008487
    79  H    0.039700
    80  H   -0.000086
    81  H    0.020524
    82  H    0.026623
    83  H    0.012866
    84  H   -0.003591
    85  H   -0.023790
    86  H    0.034266
    87  H    0.031607
    88  H    0.010157
    89  H    0.041354
    90  H    0.008570
    91  H    0.060328
    92  H    0.037564
    93  H    0.011860
    94  H    0.051844
    95  H    0.063416
    96  H    0.029419
    97  H    0.066281
    98  H    0.042652
    99  H   -0.001576
   100  H    0.024479
   101  H   -0.028798
   102  H    0.013034
   103  H    0.034943
   104  H    0.012411
   105  H   -0.005117
   106  H    0.032106
   107  H    0.015378
   108  H   -0.003107
   109  H    0.003018
   110  H   -0.009087
   111  H    0.026089
   112  H    0.001133
   113  H    0.012003
   114  H   -0.010720
   115  H   -0.026462
   116  H    0.016314
   117  H   -0.020039
   118  H   -0.017674
   119  H    0.000906
   120  H   -0.005323
   121  H    0.043071
   122  H   -0.001613
   123  H    0.017665
   124  H   -0.011493
   125  H   -0.015401
   126  H    0.021613
   127  H    0.019377
   128  H   -0.047972
   129  H   -0.008659
   130  H   -0.004048
   131  H   -0.031305
   132  H   -0.005341
   133  H    0.037614
   134  H   -0.002062
   135  H   -0.024772
   136  H   -0.039378
   137  H    0.126275
   138  H    0.132699
 Sum of Mulliken charges =  -0.00000

 Dipole moment (field-independent basis, Debye):
    X=              2.9663    Y=              4.9728    Z=              0.6705  Tot=              5.8291
 Quadrupole moment (field-independent basis, Debye-Ang):
   XX=           -349.0994   YY=           -375.3701   ZZ=           -391.9758
   XY=            -12.5504   XZ=             13.6742   YZ=             -1.8884

 Normal termination of Gaussian 16 at Sat Aug 24 16:50:52 2019.
