 Gaussian 16, Revision A.03,
 Gaussian 16:  ES64L-G16RevA.03 25-Dec-2016

 --------------------------
 # td=(NStates=1) B3LYP/SVP
 --------------------------

 --
 TD
 --
 Symbolic Z-matrix:
 Charge =  0 Multiplicity = 1

                         Standard orientation:
 ---------------------------------------------------------------------
 Center     Atomic      Atomic             Coordinates (Angstroms)
 Number     Number       Type             X           Y           Z
 ---------------------------------------------------------------------
      1          6           0       -5.100270   -1.956912    0.447591
      2          6           0       -4.823999    2.753457    1.361131
      3          6           0       -9.429498    3.231123   -0.184651
      4          6           0       -9.871292   -1.563589   -1.005557
      5          7           0       -5.215800    0.405317    0.846376
      6          6           0       -4.486816   -0.749726    0.891314
      7          6           0       -3.124709   -0.549622    1.300761
      8          6           0       -3.157043    0.913123    1.977664
      9          6           0       -4.506297    1.404399    1.447916
     10          6           0       -3.166852    0.864552    3.524104
     11          6           0       -2.098066   -0.677597    0.136970
     12          6           0       -0.550996   -0.565546    0.527499
     13          6           0        0.367475   -0.824336   -0.649405
     14          8           0        0.119691   -1.157347   -1.686577
     15          8           0        1.664138   -0.547629   -0.223456
     16          7           0       -7.107252    2.708470    0.436338
     17          6           0       -6.035210    3.373170    0.924279
     18          6           0       -6.387621    4.734347    0.997398
     19          6           0       -7.657250    4.887756    0.472248
     20          6           0       -8.116212    3.570082    0.139787
     21          6           0       -5.307929    5.799641    1.296573
     22          6           0       -8.232155    6.184006    0.237200
     23          6           0       -9.248459    6.475444   -0.565665
     24          7           0       -9.283520    0.862497   -0.550364
     25          6           0      -10.027129    2.047030   -0.527205
     26          6           0      -11.413503    1.694290   -0.771721
     27          6           0      -11.529808    0.405899   -1.054745
     28          6           0      -10.201408   -0.103897   -0.908524
     29          6           0      -12.518165    2.766863   -0.940896
     30          6           0      -12.722123   -0.404041   -1.504935
     31          6           0      -12.851192   -0.638256   -2.976057
     32          7           0       -7.566032   -1.342447   -0.271966
     33          6           0       -8.615866   -2.159303   -0.703626
     34          6           0       -8.132698   -3.469000   -0.772043
     35          6           0       -6.857898   -3.442517   -0.301129
     36          6           0       -6.512945   -2.119780    0.000726
     37          6           0       -8.912984   -4.597879   -1.254477
     38          6           0       -5.728503   -4.264104   -0.010984
     39          8           0       -5.494198   -5.492733   -0.091998
     40          6           0       -4.451619   -3.322860    0.440923
     41          6           0       -3.888261   -3.784332    1.765270
     42          8           0       -4.214641   -3.344027    2.871056
     43          8           0       -3.048381   -4.740814    1.633189
     44          6           0       -2.483199   -5.396522    2.781657
     45          6           0        2.653228   -0.714799   -1.134262
     46          6           0        4.107311   -0.552906   -0.578958
     47          6           0        5.078164    0.273606   -1.004858
     48          6           0        5.045680    1.113931   -2.308154
     49          6           0        6.373558    0.390830   -0.306654
     50          6           0        7.529520   -0.268685   -1.034292
     51          6           0        8.850842   -0.166998   -0.144024
     52          6           0       10.133548   -0.632524   -0.834468
     53          6           0       10.162921   -2.184539   -1.274218
     54          6           0       11.450721   -0.326151   -0.032859
     55          6           0       12.783342   -0.484465   -0.758916
     56          6           0       14.033417   -0.166462    0.101629
     57          6           0       15.420540   -0.360073   -0.387379
     58          6           0       15.754112   -1.793680   -0.611814
     59          6           0       16.380442    0.305963    0.428057
     60          6           0       17.850127    0.556088   -0.124783
     61          6           0       18.726196    1.427407    0.769674
     62          6           0       20.208632    1.620166    0.226436
     63          6           0       20.096612    2.519233   -1.165395
     64          6           0       21.070939    2.180911    1.219414
     65          1           0       -3.973287    3.503751    1.661710
     66          1           0      -10.218559    4.225952   -0.225492
     67          1           0      -10.749434   -2.108976   -1.420251
     68          1           0       -2.872796   -1.169216    2.146315
     69          1           0       -2.126203    1.463016    1.806117
     70          1           0       -2.167855    0.546631    3.862191
     71          1           0       -3.438591    1.954591    3.764310
     72          1           0       -3.923194    0.093251    3.989658
     73          1           0       -2.036031   -1.574440   -0.442609
     74          1           0       -2.463285    0.389084   -0.325414
     75          1           0       -0.300012    0.554014    0.826290
     76          1           0       -0.285349   -1.121315    1.387203
     77          1           0       -4.404932    5.736162    0.636222
     78          1           0       -5.831373    6.778608    1.027321
     79          1           0       -4.895172    5.664499    2.426197
     80          1           0       -7.829953    7.000300    0.808004
     81          1           0       -9.689804    5.903039   -1.277424
     82          1           0       -9.541443    7.544436   -0.842882
     83          1           0      -12.474570    3.382448    0.024091
     84          1           0      -12.172546    3.404591   -1.740023
     85          1           0      -13.524858    2.042176   -1.172966
     86          1           0      -12.856050   -1.308120   -1.093356
     87          1           0      -13.584116    0.018383   -0.961215
     88          1           0      -12.645673    0.347461   -3.424727
     89          1           0      -12.238738   -1.432784   -3.487175
     90          1           0      -13.750995   -1.151607   -3.297194
     91          1           0      -10.023768   -4.589821   -0.856689
     92          1           0       -8.828301   -4.259120   -2.433480
     93          1           0       -8.316677   -5.581250   -1.011515
     94          1           0       -3.840881   -3.327006   -0.332652
     95          1           0       -1.705531   -6.017950    2.397296
     96          1           0       -1.933295   -4.449073    3.469079
     97          1           0       -3.146968   -5.958218    3.321910
     98          1           0        2.531243   -1.840995   -1.758063
     99          1           0        2.397686    0.044599   -2.066508
    100          1           0        4.264093   -0.985381    0.391272
    101          1           0        5.170139    2.271669   -1.767686
    102          1           0        5.740143    1.014470   -3.023065
    103          1           0        3.912547    1.160010   -2.673329
    104          1           0        6.531581    1.378773   -0.000771
    105          1           0        6.152262   -0.207307    0.573917
    106          1           0        7.386352   -1.430559   -1.043714
    107          1           0        7.803860    0.281716   -1.941272
    108          1           0        9.152085    0.907740   -0.004218
    109          1           0        8.825339   -0.922372    0.679482
    110          1           0       10.342038   -0.033773   -1.744599
    111          1           0        9.481377   -2.434265   -2.074220
    112          1           0       11.066762   -2.409275   -1.673433
    113          1           0        9.801662   -2.839200   -0.381911
    114          1           0       11.704964    0.622082    0.370640
    115          1           0       11.354449   -0.869556    0.903850
    116          1           0       12.845693   -1.578448   -1.048480
    117          1           0       12.633528   -0.045810   -1.771004
    118          1           0       13.890616    0.863880    0.389769
    119          1           0       13.872263   -0.829523    0.963577
    120          1           0       15.238139    0.129720   -1.347124
    121          1           0       14.928018   -2.335434   -1.061324
    122          1           0       16.553709   -2.095289   -1.136185
    123          1           0       15.843113   -2.315550    0.438062
    124          1           0       15.879386    1.331939    0.553768
    125          1           0       16.522095    0.038309    1.462639
    126          1           0       18.297958   -0.497129   -0.208695
    127          1           0       17.984495    0.907313   -1.285305
    128          1           0       18.102512    2.326517    0.793580
    129          1           0       18.538010    1.231527    1.907911
    130          1           0       20.594129    0.539500   -0.095105
    131          1           0       19.711962    3.603308   -0.839711
    132          1           0       21.044016    2.391748   -1.590938
    133          1           0       19.332900    2.192081   -1.787057
    134          1           0       21.143195    1.461715    2.093165
    135          1           0       21.935696    2.222235    1.070309
    136          1           0       20.645093    3.230349    1.534615
    137          1           0       -7.144499    1.679994    0.386353
    138          1           0       -7.801138   -0.354583   -0.139825
 ---------------------------------------------------------------------

 SCF Done:  E(RB3LYP) =  -2733.02763112     A.U. after   17 cycles

 Excitation energies and oscillator strengths:

 Excited State   1:      Singlet-A      2.0271 eV  611.65 nm  f=0.1157  <S**2>=0.000
     235 -> 237        0.45893
     235 -> 238       -0.19063
     236 -> 237       -0.39929
     236 -> 238       -0.29822
 This state for optimization and/or second-order correction.
 Total Energy, E(TD-HF/TD-DFT) =  -2732.95313803
 Copying the excited state density for this state as the 1-particle RhoCI density.

 The electronic state is 1-A.
 Alpha  occ. eigenvalues --  -19.18354 -19.16883 -19.14313 -19.12181 -19.10799
 Alpha  occ. eigenvalues --  -14.37259 -14.37008 -14.32266 -14.30279 -10.31604
 Alpha  occ. eigenvalues --  -10.31052 -10.28293 -10.26577 -10.25793 -10.24273
 Alpha  occ. eigenvalues --  -10.23719 -10.23451 -10.23346 -10.22970 -10.22837
 Alpha  occ. eigenvalues --  -10.22140 -10.21831 -10.21637 -10.21560 -10.21403
 Alpha  occ. eigenvalues --  -10.21351 -10.21332 -10.21265 -10.21226 -10.21136
 Alpha  occ. eigenvalues --  -10.20890 -10.20561 -10.20427 -10.20272 -10.20272
 Alpha  occ. eigenvalues --  -10.20263 -10.20255 -10.20118 -10.19938 -10.19885
 Alpha  occ. eigenvalues --  -10.19825 -10.19791 -10.19754 -10.19439 -10.19287
 Alpha  occ. eigenvalues --  -10.19097 -10.18939 -10.18916 -10.18777 -10.18772
 Alpha  occ. eigenvalues --  -10.18670 -10.18581 -10.18390 -10.18310 -10.18098
 Alpha  occ. eigenvalues --  -10.17980 -10.17898 -10.17828 -10.17739 -10.17682
 Alpha  occ. eigenvalues --  -10.17668 -10.17293 -10.16660 -10.16296  -1.13083
 Alpha  occ. eigenvalues --   -1.11205  -1.04630  -1.00678  -0.99391  -0.99265
 Alpha  occ. eigenvalues --   -0.98775  -0.94239  -0.93124  -0.84468  -0.83356
 Alpha  occ. eigenvalues --   -0.82533  -0.82457  -0.82020  -0.80972  -0.80572
 Alpha  occ. eigenvalues --   -0.80304  -0.79851  -0.79800  -0.78531  -0.77393
 Alpha  occ. eigenvalues --   -0.76796  -0.76247  -0.76135  -0.75438  -0.74337
 Alpha  occ. eigenvalues --   -0.73908  -0.73672  -0.72795  -0.71533  -0.70543
 Alpha  occ. eigenvalues --   -0.69807  -0.69192  -0.68765  -0.68513  -0.67914
 Alpha  occ. eigenvalues --   -0.67796  -0.67541  -0.66681  -0.66194  -0.65797
 Alpha  occ. eigenvalues --   -0.64140  -0.63499  -0.63136  -0.62466  -0.62225
 Alpha  occ. eigenvalues --   -0.60759  -0.59195  -0.58679  -0.57844  -0.57142
 Alpha  occ. eigenvalues --   -0.56998  -0.56176  -0.56018  -0.55627  -0.55382
 Alpha  occ. eigenvalues --   -0.54848  -0.54752  -0.54458  -0.54407  -0.53082
 Alpha  occ. eigenvalues --   -0.52695  -0.52477  -0.51989  -0.51599  -0.51062
 Alpha  occ. eigenvalues --   -0.50409  -0.50338  -0.49718  -0.49363  -0.49306
 Alpha  occ. eigenvalues --   -0.48809  -0.48236  -0.48056  -0.47874  -0.47538
 Alpha  occ. eigenvalues --   -0.46911  -0.46779  -0.46574  -0.46386  -0.46070
 Alpha  occ. eigenvalues --   -0.45919  -0.45832  -0.45689  -0.45476  -0.45239
 Alpha  occ. eigenvalues --   -0.45102  -0.44732  -0.43966  -0.43742  -0.43630
 Alpha  occ. eigenvalues --   -0.43438  -0.43131  -0.42961  -0.42720  -0.42622
 Alpha  occ. eigenvalues --   -0.42538  -0.42411  -0.42158  -0.41945  -0.41654
 Alpha  occ. eigenvalues --   -0.41493  -0.41083  -0.40898  -0.40831  -0.40613
 Alpha  occ. eigenvalues --   -0.40533  -0.40365  -0.39830  -0.39313  -0.39154
 Alpha  occ. eigenvalues --   -0.38872  -0.38667  -0.38463  -0.38352  -0.38275
 Alpha  occ. eigenvalues --   -0.38110  -0.38010  -0.37881  -0.37604  -0.37513
 Alpha  occ. eigenvalues --   -0.37331  -0.37305  -0.37107  -0.36695  -0.36584
 Alpha  occ. eigenvalues --   -0.36492  -0.36351  -0.36324  -0.36224  -0.35668
 Alpha  occ. eigenvalues --   -0.35248  -0.35104  -0.35019  -0.34975  -0.34803
 Alpha  occ. eigenvalues --   -0.34532  -0.34351  -0.34135  -0.34033  -0.34020
 Alpha  occ. eigenvalues --   -0.33759  -0.33201  -0.32677  -0.32510  -0.32478
 Alpha  occ. eigenvalues --   -0.31985  -0.31554  -0.31477  -0.31456  -0.31316
 Alpha  occ. eigenvalues --   -0.31071  -0.30026  -0.30008  -0.29988  -0.29692
 Alpha  occ. eigenvalues --   -0.29369  -0.28958  -0.28936  -0.28585  -0.28179
 Alpha  occ. eigenvalues --   -0.27556  -0.27224  -0.26912  -0.26638  -0.26404
 Alpha  occ. eigenvalues --   -0.24640  -0.24394  -0.24154  -0.23440  -0.19728
 Alpha  occ. eigenvalues --   -0.19168
 Alpha virt. eigenvalues --   -0.10719  -0.07992  -0.04567  -0.01953  -0.00003
 Alpha virt. eigenvalues --    0.00392   0.00546   0.01007   0.02099   0.03397
 Alpha virt. eigenvalues --    0.03496   0.04395   0.04434   0.04632   0.04848

 Mulliken charges:
               1
     1  C   -0.050942
     2  C   -0.081547
     3  C   -0.128352
     4  C   -0.074686
     5  N   -0.189564
     6  C   -0.045650
     7  C    0.057048
     8  C   -0.163154
     9  C    0.058305
    10  C    0.022250
    11  C    0.026088
    12  C   -0.017185
    13  C    0.155616
    14  O   -0.106278
    15  O   -0.303880
    16  N   -0.021189
    17  C    0.067344
    18  C   -0.135754
    19  C    0.054017
    20  C    0.079816
    21  C    0.028716
    22  C   -0.019506
    23  C   -0.036903
    24  N   -0.285893
    25  C    0.060156
    26  C   -0.141090
    27  C   -0.084306
    28  C    0.003173
    29  C    0.044736
    30  C    0.136201
    31  C    0.015275
    32  N   -0.017534
    33  C    0.090780
    34  C   -0.135477
    35  C    0.084677
    36  C    0.074564
    37  C   -0.012988
    38  C    0.015471
    39  O   -0.210273
    40  C    0.077544
    41  C    0.190684
    42  O   -0.268978
    43  O   -0.242928
    44  C    0.180867
    45  C    0.125151
    46  C   -0.023663
    47  C   -0.161317
    48  C    0.031988
    49  C    0.155064
    50  C    0.009001
    51  C    0.018719
    52  C   -0.082187
    53  C    0.055347
    54  C    0.031325
    55  C    0.005252
    56  C    0.001412
    57  C    0.043866
    58  C    0.085764
    59  C    0.028370
    60  C   -0.028612
    61  C    0.015709
    62  C   -0.143435
    63  C    0.043632
    64  C    0.220339
    65  H    0.006768
    66  H    0.032322
    67  H   -0.010478
    68  H   -0.014673
    69  H    0.021007
    70  H    0.018103
    71  H    0.024789
    72  H    0.051451
    73  H    0.030614
    74  H    0.042569
    75  H    0.045746
    76  H    0.024832
    77  H    0.041500
    78  H    0.023443
    79  H    0.050308
    80  H   -0.002748
    81  H   -0.007538
    82  H    0.024228
    83  H    0.039172
    84  H    0.029962
    85  H    0.049595
    86  H   -0.052474
    87  H   -0.006443
    88  H    0.023858
    89  H    0.008086
    90  H    0.000326
    91  H    0.059843
    92  H    0.067386
    93  H    0.070921
    94  H   -0.009468
    95  H    0.029321
    96  H    0.051088
    97  H    0.031778
    98  H    0.028279
    99  H    0.019471
   100  H   -0.020340
   101  H    0.017169
   102  H    0.018854
   103  H    0.027790
   104  H   -0.015013
   105  H   -0.030984
   106  H    0.025278
   107  H    0.003932
   108  H    0.009718
   109  H    0.007584
   110  H   -0.021015
   111  H   -0.000985
   112  H   -0.021362
   113  H    0.013731
   114  H   -0.034792
   115  H   -0.027155
   116  H   -0.005178
   117  H   -0.011985
   118  H   -0.011386
   119  H   -0.016946
   120  H   -0.025542
   121  H   -0.017274
   122  H   -0.021262
   123  H   -0.007257
   124  H   -0.021189
   125  H   -0.015226
   126  H   -0.006108
   127  H    0.010487
   128  H   -0.024745
   129  H   -0.007370
   130  H    0.006795
   131  H    0.020828
   132  H    0.008595
   133  H   -0.010434
   134  H   -0.004077
   135  H   -0.115569
   136  H    0.013460
   137  H    0.148278
   138  H    0.136750
 Sum of Mulliken charges =  -0.00000

 Dipole moment (field-independent basis, Debye):
    X=              1.3415    Y=              2.9404    Z=              0.0189  Tot=              3.2321
 Quadrupole moment (field-independent basis, Debye-Ang):
   XX=           -341.7911   YY=           -383.3758   ZZ=           -398.4175
   XY=             -9.9531   XZ=             13.6879   YZ=             -2.3603

 Normal termination of Gaussian 16 at Tue Aug 20 22:46:37 2019.
