 Gaussian 16, Revision A.03,
 Gaussian 16:  ES64L-G16RevA.03 25-Dec-2016

 --------------------------
 # td=(NStates=1) B3LYP/SVP
 --------------------------

 --
 TD
 --
 Symbolic Z-matrix:
 Charge =  0 Multiplicity = 1

                         Standard orientation:
 ---------------------------------------------------------------------
 Center     Atomic      Atomic             Coordinates (Angstroms)
 Number     Number       Type             X           Y           Z
 ---------------------------------------------------------------------
      1          6           0       -5.093790   -1.989559    0.508787
      2          6           0       -4.645906    2.729517    1.406495
      3          6           0       -9.232159    3.346522   -0.044841
      4          6           0       -9.780294   -1.341256   -0.993411
      5          7           0       -5.184711    0.401583    0.947330
      6          6           0       -4.558159   -0.818032    0.889985
      7          6           0       -3.070774   -0.669287    1.340891
      8          6           0       -3.030456    0.807681    1.836398
      9          6           0       -4.325199    1.390643    1.362623
     10          6           0       -2.815846    0.847937    3.385647
     11          6           0       -2.126336   -0.888737    0.132708
     12          6           0       -0.757602   -0.821520    0.513210
     13          6           0        0.267139   -1.109398   -0.637011
     14          8           0        0.110488   -1.557467   -1.753616
     15          8           0        1.534673   -0.805323   -0.190496
     16          7           0       -6.912553    2.806377    0.408487
     17          6           0       -5.839876    3.415873    0.969551
     18          6           0       -6.134967    4.816302    1.161042
     19          6           0       -7.433812    5.017133    0.574168
     20          6           0       -7.893302    3.704659    0.192030
     21          6           0       -5.139770    5.800833    1.814483
     22          6           0       -8.079743    6.280841    0.508987
     23          6           0       -9.018880    6.580952   -0.392547
     24          7           0       -9.173266    0.890279   -0.559148
     25          6           0       -9.724824    2.205137   -0.616189
     26          6           0      -11.187689    1.989189   -1.043587
     27          6           0      -11.321148    0.695039   -1.236893
     28          6           0      -10.072093   -0.040535   -0.912687
     29          6           0      -12.115616    3.106041   -1.131021
     30          6           0      -12.604036   -0.005501   -1.865546
     31          6           0      -12.479840   -0.427409   -3.332277
     32          7           0       -7.502746   -1.257178   -0.314024
     33          6           0       -8.621650   -2.031542   -0.635799
     34          6           0       -8.241758   -3.420700   -0.642004
     35          6           0       -6.932063   -3.430972   -0.256466
     36          6           0       -6.465495   -2.094417    0.001623
     37          6           0       -9.217782   -4.521501   -1.092317
     38          6           0       -5.848243   -4.337244    0.069232
     39          8           0       -5.826496   -5.533411    0.071139
     40          6           0       -4.603956   -3.434614    0.510533
     41          6           0       -4.091522   -3.893688    1.972351
     42          8           0       -4.468192   -3.545847    3.045819
     43          8           0       -3.235770   -4.900016    1.725487
     44          6           0       -2.586189   -5.517296    2.843132
     45          6           0        2.581789   -0.991453   -1.270188
     46          6           0        3.951133   -0.786740   -0.654640
     47          6           0        4.910605   -0.027581   -1.241832
     48          6           0        4.820495    0.692571   -2.557652
     49          6           0        6.200840    0.232945   -0.452449
     50          6           0        7.512360   -0.329159   -1.186722
     51          6           0        8.794738   -0.085326   -0.375315
     52          6           0       10.131447   -0.526670   -0.946961
     53          6           0       10.097996   -2.009345   -1.200177
     54          6           0       11.334440   -0.132955   -0.073151
     55          6           0       12.639608   -0.345725   -0.729654
     56          6           0       13.786558   -0.023469    0.183581
     57          6           0       15.201257   -0.132687   -0.373157
     58          6           0       15.615499   -1.670395   -0.489962
     59          6           0       16.181062    0.600978    0.444455
     60          6           0       17.678186    0.673366   -0.073000
     61          6           0       18.657886    1.529633    0.749705
     62          6           0       20.133705    1.574456    0.300501
     63          6           0       20.194814    1.899634   -1.159091
     64          6           0       20.932533    2.326395    1.336949
     65          1           0       -3.823353    3.356096    1.977098
     66          1           0       -9.979706    4.026202   -0.010112
     67          1           0      -10.562925   -1.937238   -1.286987
     68          1           0       -2.727499   -1.412011    2.218508
     69          1           0       -2.182212    1.468788    1.514888
     70          1           0       -1.820936    0.432421    3.323076
     71          1           0       -2.921830    1.832345    3.764621
     72          1           0       -3.524403    0.363632    3.766651
     73          1           0       -2.250313   -1.849688   -0.288425
     74          1           0       -2.251257    0.020006   -0.689016
     75          1           0       -0.302676   -0.069772    1.033793
     76          1           0       -0.548171   -1.612541    1.108727
     77          1           0       -4.013308    5.592085    1.445838
     78          1           0       -5.415464    6.914878    1.500581
     79          1           0       -5.058741    5.600204    2.880081
     80          1           0       -7.688361    7.061039    0.953293
     81          1           0       -9.487063    5.738686   -0.984583
     82          1           0       -9.488840    7.528061   -0.576300
     83          1           0      -12.229941    3.461978   -0.194319
     84          1           0      -11.838345    3.751226   -1.912063
     85          1           0      -13.203166    2.635481   -1.338938
     86          1           0      -12.850925   -0.894740   -1.421530
     87          1           0      -13.494309    0.734982   -1.802211
     88          1           0      -12.578412    0.305289   -4.189046
     89          1           0      -11.432230   -0.686751   -3.619777
     90          1           0      -13.430503   -1.204786   -3.587997
     91          1           0      -10.079639   -4.335730   -0.515416
     92          1           0       -9.272609   -4.385512   -2.194133
     93          1           0       -8.789916   -5.432033   -0.755160
     94          1           0       -3.759855   -3.537118   -0.206725
     95          1           0       -1.713646   -6.113993    2.446114
     96          1           0       -2.288651   -4.653437    3.448252
     97          1           0       -3.107740   -6.246616    3.439212
     98          1           0        2.462818   -1.950817   -1.736275
     99          1           0        2.324367   -0.376582   -2.168571
    100          1           0        4.145823   -1.189206    0.294546
    101          1           0        5.194485    1.866527   -2.431278
    102          1           0        5.384633    0.161326   -3.385063
    103          1           0        3.848034    0.812067   -3.144680
    104          1           0        6.352933    1.292041   -0.212632
    105          1           0        6.424678   -0.251316    0.524105
    106          1           0        7.344001   -1.390391   -1.497934
    107          1           0        7.684130    0.318305   -2.084456
    108          1           0        8.869803    0.956374   -0.047790
    109          1           0        8.545336   -0.568341    0.759758
    110          1           0       10.304734    0.038843   -1.904366
    111          1           0        9.171997   -2.451656   -1.878185
    112          1           0       11.130580   -2.425430   -1.412914
    113          1           0        9.787656   -2.635486   -0.207233
    114          1           0       11.286749    1.020606    0.174876
    115          1           0       11.431889   -0.890594    0.835697
    116          1           0       12.822543   -1.357049   -1.118407
    117          1           0       12.677882    0.033373   -1.853639
    118          1           0       13.693788    1.220114    0.557927
    119          1           0       13.725425   -0.703416    0.964630
    120          1           0       15.323971    0.335740   -1.460891
    121          1           0       14.931429   -2.175997   -1.090553
    122          1           0       16.469302   -1.704678   -1.100932
    123          1           0       15.934600   -2.060063    0.561251
    124          1           0       15.808757    1.537733    0.603802
    125          1           0       16.308089    0.174944    1.497176
    126          1           0       18.101326   -0.332951    0.000273
    127          1           0       17.672024    1.153981   -1.155682
    128          1           0       18.177798    2.511518    0.685737
    129          1           0       18.776920    1.379629    1.760464
    130          1           0       20.430447    0.536398    0.568427
    131          1           0       19.819374    2.826960   -1.443167
    132          1           0       21.172864    2.072997   -1.660717
    133          1           0       19.729748    1.164038   -1.921551
    134          1           0       20.166075    2.201741    2.487303
    135          1           0       21.888045    1.924362    1.211109
    136          1           0       20.724572    3.402203    0.987804
    137          1           0       -6.993019    1.783476    0.409770
    138          1           0       -7.644234   -0.321054   -0.136066
 ---------------------------------------------------------------------

 SCF Done:  E(RB3LYP) =  -2733.09591368     A.U. after   17 cycles

 Excitation energies and oscillator strengths:

 Excited State   1:      Singlet-A      2.0282 eV  611.29 nm  f=0.1985  <S**2>=0.000
     235 -> 237       -0.22849
     235 -> 238        0.24842
     236 -> 237        0.60217
     236 -> 238        0.14421
 This state for optimization and/or second-order correction.
 Total Energy, E(TD-HF/TD-DFT) =  -2733.02137726
 Copying the excited state density for this state as the 1-particle RhoCI density.

 The electronic state is 1-A.
 Alpha  occ. eigenvalues --  -19.17809 -19.16989 -19.13200 -19.12493 -19.12242
 Alpha  occ. eigenvalues --  -14.37385 -14.36279 -14.31960 -14.29887 -10.31943
 Alpha  occ. eigenvalues --  -10.31238 -10.27732 -10.24642 -10.24426 -10.24036
 Alpha  occ. eigenvalues --  -10.23882 -10.23833 -10.23076 -10.22749 -10.22430
 Alpha  occ. eigenvalues --  -10.22042 -10.21830 -10.21658 -10.21424 -10.21314
 Alpha  occ. eigenvalues --  -10.21197 -10.21036 -10.20918 -10.20859 -10.20792
 Alpha  occ. eigenvalues --  -10.20326 -10.20268 -10.20057 -10.20056 -10.19958
 Alpha  occ. eigenvalues --  -10.19939 -10.19700 -10.19677 -10.19521 -10.19484
 Alpha  occ. eigenvalues --  -10.19413 -10.19406 -10.19400 -10.19393 -10.19357
 Alpha  occ. eigenvalues --  -10.19307 -10.19290 -10.19131 -10.19095 -10.19052
 Alpha  occ. eigenvalues --  -10.18888 -10.18796 -10.18781 -10.18688 -10.18650
 Alpha  occ. eigenvalues --  -10.18610 -10.18400 -10.18394 -10.18205 -10.17919
 Alpha  occ. eigenvalues --  -10.17481 -10.17279 -10.17042 -10.16661  -1.09921
 Alpha  occ. eigenvalues --   -1.07679  -1.03628  -1.01763  -0.99323  -0.98907
 Alpha  occ. eigenvalues --   -0.98084  -0.93236  -0.92371  -0.84328  -0.82803
 Alpha  occ. eigenvalues --   -0.82716  -0.82420  -0.81768  -0.81294  -0.81270
 Alpha  occ. eigenvalues --   -0.80634  -0.80267  -0.79795  -0.78838  -0.78037
 Alpha  occ. eigenvalues --   -0.76947  -0.76366  -0.75966  -0.75078  -0.74546
 Alpha  occ. eigenvalues --   -0.73782  -0.73230  -0.72666  -0.71603  -0.70813
 Alpha  occ. eigenvalues --   -0.70123  -0.69263  -0.68852  -0.68690  -0.68143
 Alpha  occ. eigenvalues --   -0.67586  -0.67217  -0.66866  -0.66074  -0.65036
 Alpha  occ. eigenvalues --   -0.64042  -0.63245  -0.62804  -0.62221  -0.61173
 Alpha  occ. eigenvalues --   -0.60460  -0.59171  -0.58869  -0.58197  -0.57050
 Alpha  occ. eigenvalues --   -0.56609  -0.56530  -0.55659  -0.55516  -0.55270
 Alpha  occ. eigenvalues --   -0.55225  -0.55072  -0.54973  -0.53942  -0.53229
 Alpha  occ. eigenvalues --   -0.52601  -0.52211  -0.51842  -0.51098  -0.50446
 Alpha  occ. eigenvalues --   -0.49860  -0.49591  -0.49128  -0.49098  -0.48449
 Alpha  occ. eigenvalues --   -0.48323  -0.48010  -0.47654  -0.47423  -0.47417
 Alpha  occ. eigenvalues --   -0.46975  -0.46652  -0.46524  -0.46434  -0.46278
 Alpha  occ. eigenvalues --   -0.45911  -0.45663  -0.45494  -0.45286  -0.45099
 Alpha  occ. eigenvalues --   -0.44561  -0.44469  -0.44445  -0.44262  -0.43902
 Alpha  occ. eigenvalues --   -0.43783  -0.43463  -0.43224  -0.43155  -0.42728
 Alpha  occ. eigenvalues --   -0.42268  -0.42190  -0.42133  -0.41744  -0.41663
 Alpha  occ. eigenvalues --   -0.41594  -0.41488  -0.41446  -0.40933  -0.40814
 Alpha  occ. eigenvalues --   -0.40235  -0.40123  -0.39891  -0.39761  -0.39559
 Alpha  occ. eigenvalues --   -0.39286  -0.39070  -0.38832  -0.38816  -0.38402
 Alpha  occ. eigenvalues --   -0.38267  -0.38198  -0.38120  -0.37892  -0.37729
 Alpha  occ. eigenvalues --   -0.37537  -0.37381  -0.37094  -0.37017  -0.36674
 Alpha  occ. eigenvalues --   -0.36564  -0.36320  -0.36252  -0.36213  -0.36033
 Alpha  occ. eigenvalues --   -0.35791  -0.35680  -0.35490  -0.35079  -0.35042
 Alpha  occ. eigenvalues --   -0.34349  -0.34227  -0.33982  -0.33650  -0.33582
 Alpha  occ. eigenvalues --   -0.33195  -0.33100  -0.33027  -0.32755  -0.32496
 Alpha  occ. eigenvalues --   -0.32023  -0.31693  -0.31556  -0.31242  -0.31239
 Alpha  occ. eigenvalues --   -0.30922  -0.30801  -0.30540  -0.30320  -0.30071
 Alpha  occ. eigenvalues --   -0.29847  -0.29337  -0.29173  -0.28765  -0.27869
 Alpha  occ. eigenvalues --   -0.27622  -0.26818  -0.26771  -0.26202  -0.25321
 Alpha  occ. eigenvalues --   -0.25077  -0.24682  -0.23753  -0.23404  -0.19716
 Alpha  occ. eigenvalues --   -0.19072
 Alpha virt. eigenvalues --   -0.10807  -0.07150  -0.03931  -0.02015  -0.00349
 Alpha virt. eigenvalues --    0.00142   0.00806   0.00852   0.02316   0.02937
 Alpha virt. eigenvalues --    0.03941   0.04160   0.04285   0.04548   0.04789

 Mulliken charges:
               1
     1  C    0.040225
     2  C   -0.084552
     3  C   -0.023824
     4  C   -0.019149
     5  N   -0.198650
     6  C   -0.036228
     7  C   -0.114641
     8  C   -0.070954
     9  C    0.005537
    10  C    0.186433
    11  C    0.087089
    12  C    0.141700
    13  C    0.146608
    14  O   -0.235480
    15  O   -0.359577
    16  N   -0.012735
    17  C    0.079440
    18  C   -0.136559
    19  C    0.048181
    20  C    0.100700
    21  C    0.036154
    22  C    0.028655
    23  C   -0.045909
    24  N   -0.283757
    25  C    0.041543
    26  C   -0.169969
    27  C   -0.075206
    28  C    0.064357
    29  C    0.168365
    30  C    0.128363
    31  C   -0.079577
    32  N   -0.008282
    33  C    0.037557
    34  C   -0.195407
    35  C    0.009775
    36  C    0.062526
    37  C    0.187104
    38  C    0.064099
    39  O   -0.143480
    40  C   -0.053966
    41  C    0.193654
    42  O   -0.191253
    43  O   -0.297226
    44  C    0.175827
    45  C    0.275023
    46  C   -0.033719
    47  C   -0.073181
    48  C   -0.012245
    49  C    0.043671
    50  C   -0.004830
    51  C   -0.015645
    52  C    0.001489
    53  C   -0.059888
    54  C    0.017028
    55  C   -0.015055
    56  C    0.060135
    57  C   -0.107180
    58  C    0.068456
    59  C    0.074540
    60  C    0.009232
    61  C    0.035525
    62  C   -0.072502
    63  C    0.051153
    64  C   -0.011502
    65  H   -0.001955
    66  H   -0.067048
    67  H   -0.072643
    68  H    0.034244
    69  H    0.000540
    70  H    0.014762
    71  H   -0.011089
    72  H   -0.040432
    73  H   -0.003267
    74  H    0.034576
    75  H   -0.013307
    76  H   -0.028357
    77  H    0.043307
    78  H    0.049823
    79  H    0.034481
    80  H   -0.081091
    81  H    0.029994
    82  H    0.018814
    83  H    0.007764
    84  H    0.023827
    85  H    0.006564
    86  H   -0.019672
    87  H    0.007765
    88  H    0.006111
    89  H    0.019124
    90  H    0.029478
    91  H    0.015695
    92  H    0.050740
    93  H    0.020122
    94  H    0.058363
    95  H    0.034715
    96  H    0.027104
    97  H    0.035038
    98  H    0.018882
    99  H    0.013151
   100  H   -0.024980
   101  H    0.041799
   102  H    0.041841
   103  H    0.021668
   104  H    0.003186
   105  H   -0.004125
   106  H    0.018983
   107  H    0.000607
   108  H   -0.019500
   109  H   -0.009824
   110  H   -0.003398
   111  H    0.037208
   112  H    0.021114
   113  H    0.008374
   114  H    0.019264
   115  H    0.011850
   116  H   -0.024162
   117  H   -0.019067
   118  H    0.006660
   119  H   -0.020485
   120  H   -0.003863
   121  H   -0.014180
   122  H   -0.013193
   123  H    0.025888
   124  H   -0.044919
   125  H   -0.015996
   126  H   -0.003628
   127  H    0.016147
   128  H   -0.027690
   129  H   -0.046569
   130  H   -0.015944
   131  H   -0.021559
   132  H   -0.016244
   133  H    0.026183
   134  H    0.036835
   135  H    0.021431
   136  H    0.020199
   137  H    0.152782
   138  H    0.093169
 Sum of Mulliken charges =  -0.00000

 Dipole moment (field-independent basis, Debye):
    X=              2.1882    Y=              4.0465    Z=              0.2284  Tot=              4.6059
 Quadrupole moment (field-independent basis, Debye-Ang):
   XX=           -351.3664   YY=           -381.4426   ZZ=           -395.1414
   XY=            -28.3246   XZ=             -1.6345   YZ=             -2.2256

 Normal termination of Gaussian 16 at Sat Aug 10 06:41:26 2019.
