 Gaussian 16, Revision A.03,
 Gaussian 16:  ES64L-G16RevA.03 25-Dec-2016

 --------------------------
 # td=(NStates=1) B3LYP/SVP
 --------------------------

 --
 TD
 --
 Symbolic Z-matrix:
 Charge =  0 Multiplicity = 1

                         Standard orientation:
 ---------------------------------------------------------------------
 Center     Atomic      Atomic             Coordinates (Angstroms)
 Number     Number       Type             X           Y           Z
 ---------------------------------------------------------------------
      1          6           0       -5.131812   -1.986649    0.401607
      2          6           0       -4.753107    2.853332    1.242979
      3          6           0       -9.380124    3.360771   -0.145880
      4          6           0       -9.888837   -1.428363   -0.816102
      5          7           0       -5.187451    0.498274    0.632033
      6          6           0       -4.523341   -0.729746    0.733254
      7          6           0       -3.112585   -0.610394    1.170252
      8          6           0       -3.034541    0.788033    1.714071
      9          6           0       -4.420815    1.445050    1.103917
     10          6           0       -2.988833    0.913881    3.257948
     11          6           0       -2.136668   -0.814212   -0.057109
     12          6           0       -0.643906   -0.841873    0.467824
     13          6           0        0.356030   -1.117479   -0.658224
     14          8           0        0.074859   -1.495981   -1.798942
     15          8           0        1.571989   -0.838874   -0.263865
     16          7           0       -7.121175    2.745461    0.513285
     17          6           0       -5.986914    3.385852    0.883732
     18          6           0       -6.237443    4.825027    0.900202
     19          6           0       -7.497806    4.994486    0.484838
     20          6           0       -8.151306    3.634183    0.246676
     21          6           0       -5.246042    5.881574    1.199882
     22          6           0       -8.132513    6.386691    0.336495
     23          6           0       -9.180345    6.671657   -0.492431
     24          7           0       -9.267328    0.859026   -0.325369
     25          6           0       -9.941718    2.124996   -0.344678
     26          6           0      -11.314981    1.903043   -0.894967
     27          6           0      -11.405100    0.519360   -1.194999
     28          6           0      -10.124231   -0.065198   -0.700790
     29          6           0      -12.341195    3.007054   -0.973340
     30          6           0      -12.743759   -0.170397   -1.572170
     31          6           0      -12.695088   -0.705813   -3.014844
     32          7           0       -7.547052   -1.236620   -0.122187
     33          6           0       -8.623208   -2.018011   -0.571251
     34          6           0       -8.244771   -3.338698   -0.641972
     35          6           0       -6.949788   -3.401946   -0.216282
     36          6           0       -6.423877   -2.087700   -0.089625
     37          6           0       -9.157545   -4.513126   -0.820104
     38          6           0       -5.764882   -4.284788    0.055316
     39          8           0       -5.637694   -5.493746    0.002174
     40          6           0       -4.615319   -3.357243    0.478170
     41          6           0       -3.944752   -3.810081    1.790388
     42          8           0       -4.036282   -3.336814    2.898465
     43          8           0       -3.098658   -4.813510    1.496195
     44          6           0       -2.597043   -5.496785    2.532044
     45          6           0        2.677533   -1.040965   -1.109137
     46          6           0        3.941649   -0.765768   -0.506290
     47          6           0        4.993937   -0.022642   -0.983168
     48          6           0        5.084651    0.639909   -2.304677
     49          6           0        6.420065    0.206719   -0.277037
     50          6           0        7.542031   -0.544310   -0.951880
     51          6           0        8.872537   -0.278358   -0.174915
     52          6           0       10.200183   -0.821533   -0.885663
     53          6           0       10.032835   -2.307060   -1.048844
     54          6           0       11.367103   -0.275586   -0.001437
     55          6           0       12.684454   -0.551067   -0.644399
     56          6           0       13.853414   -0.104189    0.176602
     57          6           0       15.330314   -0.251230   -0.321736
     58          6           0       15.791691   -1.695410   -0.552866
     59          6           0       16.322026    0.728569    0.479004
     60          6           0       17.828355    0.843536   -0.138649
     61          6           0       18.676299    1.635840    0.796938
     62          6           0       20.139194    1.739610    0.217251
     63          6           0       20.183747    2.376269   -1.181118
     64          6           0       21.072802    2.507933    1.229309
     65          1           0       -4.022042    3.528295    1.562368
     66          1           0      -10.112417    4.304606   -0.268748
     67          1           0      -10.763345   -2.089614   -1.289549
     68          1           0       -2.886694   -1.258394    1.917397
     69          1           0       -2.321876    1.462367    1.253331
     70          1           0       -1.978258    0.674289    3.457948
     71          1           0       -3.297644    1.980024    3.426443
     72          1           0       -3.610724    0.183260    3.724722
     73          1           0       -2.258039   -1.716848   -0.467697
     74          1           0       -2.246539   -0.045214   -0.816566
     75          1           0       -0.209871    0.062385    0.904761
     76          1           0       -0.553091   -1.638041    1.293913
     77          1           0       -4.387998    6.130447    0.211329
     78          1           0       -5.886451    6.752437    1.586924
     79          1           0       -4.706084    5.498502    2.141851
     80          1           0       -7.670753    7.185946    1.081775
     81          1           0       -9.782604    6.096312   -1.292196
     82          1           0       -9.600108    7.709447   -0.353861
     83          1           0      -12.377322    3.571647    0.055070
     84          1           0      -11.935543    3.786865   -1.769508
     85          1           0      -13.378028    2.615029   -1.268287
     86          1           0      -13.112628   -0.848997   -0.861358
     87          1           0      -13.684915    0.473474   -1.503791
     88          1           0      -12.652504    0.261918   -3.378320
     89          1           0      -11.783037   -1.447459   -2.974503
     90          1           0      -13.754132   -1.219810   -3.350773
     91          1           0      -10.084280   -4.263955   -0.169714
     92          1           0       -9.528906   -4.595328   -1.996402
     93          1           0       -8.579688   -5.346455   -0.517952
     94          1           0       -4.015957   -3.551477   -0.368859
     95          1           0       -1.953591   -6.208806    2.180088
     96          1           0       -1.753275   -4.886549    3.188839
     97          1           0       -3.270491   -5.741115    3.476083
     98          1           0        2.730953   -2.020556   -1.546495
     99          1           0        2.594553   -0.484059   -2.049278
    100          1           0        3.936867   -1.408038    0.424705
    101          1           0        5.492973    1.671312   -2.199782
    102          1           0        5.696309    0.179159   -3.168656
    103          1           0        4.112120    0.843778   -3.034809
    104          1           0        6.724472    1.362108   -0.155937
    105          1           0        6.323618   -0.194067    0.644266
    106          1           0        7.237342   -1.767710   -0.897750
    107          1           0        7.684053   -0.389740   -1.995919
    108          1           0        9.097857    0.800346   -0.171802
    109          1           0        8.690547   -0.544613    0.884549
    110          1           0       10.236815   -0.419909   -1.957895
    111          1           0        9.087281   -2.715486   -1.589944
    112          1           0       10.924001   -2.759190   -1.743295
    113          1           0       10.220037   -2.694871    0.044521
    114          1           0       11.354850    0.902955    0.141538
    115          1           0       11.226408   -0.917497    0.944170
    116          1           0       12.889885   -1.521914   -0.862770
    117          1           0       12.799468   -0.193342   -1.605534
    118          1           0       13.787212    1.015598    0.396307
    119          1           0       13.832711   -0.733826    1.190252
    120          1           0       15.423177    0.268487   -1.275448
    121          1           0       15.137924   -2.163897   -1.305016
    122          1           0       16.772025   -1.751477   -1.121048
    123          1           0       15.636988   -2.392987    0.398627
    124          1           0       16.009620    1.647606    0.471535
    125          1           0       16.451497    0.448934    1.665413
    126          1           0       17.955650   -0.379046   -0.267202
    127          1           0       17.697521    1.301194   -1.090427
    128          1           0       18.122840    2.647772    0.930307
    129          1           0       18.763323    1.223073    1.833967
    130          1           0       20.449518    0.644898    0.199855
    131          1           0       19.637528    3.360562   -1.073270
    132          1           0       21.239668    2.469295   -1.418116
    133          1           0       19.543098    1.802976   -1.891003
    134          1           0       20.736764    2.053701    2.075952
    135          1           0       22.064761    2.281578    0.874233
    136          1           0       20.926552    3.635146    1.061656
    137          1           0       -7.034960    1.678148    0.356729
    138          1           0       -7.407624   -0.057706   -0.161190
 ---------------------------------------------------------------------

 SCF Done:  E(RB3LYP) =  -2733.09130269     A.U. after   17 cycles

 Excitation energies and oscillator strengths:

 Excited State   1:      Singlet-A      2.0940 eV  592.10 nm  f=0.1707  <S**2>=0.000
     235 -> 238       -0.30139
     236 -> 237        0.62637
 This state for optimization and/or second-order correction.
 Total Energy, E(TD-HF/TD-DFT) =  -2733.01435090
 Copying the excited state density for this state as the 1-particle RhoCI density.

 The electronic state is 1-A.
 Alpha  occ. eigenvalues --  -19.19017 -19.18767 -19.13749 -19.12263 -19.11845
 Alpha  occ. eigenvalues --  -14.37737 -14.36678 -14.33306 -14.29982 -10.32810
 Alpha  occ. eigenvalues --  -10.31643 -10.28129 -10.24883 -10.24214 -10.24162
 Alpha  occ. eigenvalues --  -10.24035 -10.23674 -10.23591 -10.22960 -10.22827
 Alpha  occ. eigenvalues --  -10.22701 -10.22518 -10.21812 -10.21636 -10.21320
 Alpha  occ. eigenvalues --  -10.21192 -10.21144 -10.21093 -10.21072 -10.20986
 Alpha  occ. eigenvalues --  -10.20968 -10.20727 -10.20492 -10.20348 -10.20220
 Alpha  occ. eigenvalues --  -10.20131 -10.20081 -10.20080 -10.20016 -10.19993
 Alpha  occ. eigenvalues --  -10.19974 -10.19904 -10.19876 -10.19782 -10.19575
 Alpha  occ. eigenvalues --  -10.19357 -10.19341 -10.19217 -10.19186 -10.19181
 Alpha  occ. eigenvalues --  -10.19031 -10.18947 -10.18886 -10.18879 -10.18862
 Alpha  occ. eigenvalues --  -10.18819 -10.18739 -10.18737 -10.18555 -10.18494
 Alpha  occ. eigenvalues --  -10.18029 -10.17935 -10.17239 -10.16317  -1.12340
 Alpha  occ. eigenvalues --   -1.11219  -1.02739  -1.02468  -0.99785  -0.98376
 Alpha  occ. eigenvalues --   -0.96581  -0.94688  -0.92341  -0.85868  -0.82711
 Alpha  occ. eigenvalues --   -0.82195  -0.82032  -0.81714  -0.81215  -0.80593
 Alpha  occ. eigenvalues --   -0.80187  -0.79543  -0.78574  -0.78355  -0.78269
 Alpha  occ. eigenvalues --   -0.76993  -0.76436  -0.75766  -0.75286  -0.74633
 Alpha  occ. eigenvalues --   -0.74064  -0.73535  -0.72868  -0.72207  -0.70324
 Alpha  occ. eigenvalues --   -0.70041  -0.69486  -0.68079  -0.67607  -0.67034
 Alpha  occ. eigenvalues --   -0.66861  -0.66719  -0.66284  -0.65764  -0.65437
 Alpha  occ. eigenvalues --   -0.64171  -0.63004  -0.61839  -0.61323  -0.60877
 Alpha  occ. eigenvalues --   -0.60033  -0.58874  -0.58575  -0.58033  -0.57801
 Alpha  occ. eigenvalues --   -0.57667  -0.57138  -0.56495  -0.55333  -0.55024
 Alpha  occ. eigenvalues --   -0.54689  -0.54280  -0.53944  -0.53734  -0.53416
 Alpha  occ. eigenvalues --   -0.53030  -0.52371  -0.51537  -0.50991  -0.50783
 Alpha  occ. eigenvalues --   -0.50368  -0.49676  -0.49097  -0.48770  -0.48668
 Alpha  occ. eigenvalues --   -0.48318  -0.48182  -0.47558  -0.47219  -0.47159
 Alpha  occ. eigenvalues --   -0.46685  -0.46296  -0.45956  -0.45716  -0.45676
 Alpha  occ. eigenvalues --   -0.45380  -0.45185  -0.45110  -0.44925  -0.44747
 Alpha  occ. eigenvalues --   -0.44669  -0.44334  -0.44091  -0.43994  -0.43711
 Alpha  occ. eigenvalues --   -0.43393  -0.43243  -0.43043  -0.43021  -0.42581
 Alpha  occ. eigenvalues --   -0.42290  -0.42251  -0.41662  -0.41601  -0.41452
 Alpha  occ. eigenvalues --   -0.41421  -0.40909  -0.40781  -0.40436  -0.40258
 Alpha  occ. eigenvalues --   -0.39997  -0.39857  -0.39723  -0.39490  -0.39220
 Alpha  occ. eigenvalues --   -0.38990  -0.38981  -0.38762  -0.38583  -0.38478
 Alpha  occ. eigenvalues --   -0.38334  -0.38191  -0.38148  -0.37792  -0.37718
 Alpha  occ. eigenvalues --   -0.37566  -0.37319  -0.37257  -0.36966  -0.36924
 Alpha  occ. eigenvalues --   -0.36562  -0.36386  -0.36258  -0.36057  -0.35869
 Alpha  occ. eigenvalues --   -0.35712  -0.35650  -0.35378  -0.35137  -0.34975
 Alpha  occ. eigenvalues --   -0.34632  -0.34187  -0.34095  -0.33706  -0.33541
 Alpha  occ. eigenvalues --   -0.33250  -0.33082  -0.32872  -0.32505  -0.32488
 Alpha  occ. eigenvalues --   -0.32265  -0.32101  -0.31998  -0.31927  -0.31635
 Alpha  occ. eigenvalues --   -0.31324  -0.31058  -0.31006  -0.30534  -0.29713
 Alpha  occ. eigenvalues --   -0.29626  -0.29290  -0.29068  -0.28234  -0.27716
 Alpha  occ. eigenvalues --   -0.27588  -0.27074  -0.26571  -0.25874  -0.25762
 Alpha  occ. eigenvalues --   -0.25112  -0.25021  -0.24908  -0.22300  -0.20280
 Alpha  occ. eigenvalues --   -0.18812
 Alpha virt. eigenvalues --   -0.10026  -0.07902  -0.04572  -0.01977  -0.01388
 Alpha virt. eigenvalues --   -0.01142   0.00140   0.00276   0.01738   0.02853
 Alpha virt. eigenvalues --    0.03408   0.03651   0.04228   0.04383   0.04626

 Mulliken charges:
               1
     1  C    0.022543
     2  C   -0.064718
     3  C   -0.156699
     4  C   -0.145757
     5  N   -0.176684
     6  C   -0.048525
     7  C    0.050095
     8  C   -0.093786
     9  C   -0.028941
    10  C    0.128770
    11  C    0.149792
    12  C   -0.024052
    13  C    0.169273
    14  O   -0.263874
    15  O   -0.265022
    16  N   -0.086699
    17  C    0.105145
    18  C   -0.138843
    19  C    0.011334
    20  C    0.147776
    21  C    0.022109
    22  C   -0.056103
    23  C   -0.073103
    24  N   -0.254748
    25  C    0.088569
    26  C   -0.131347
    27  C   -0.106498
    28  C    0.081218
    29  C    0.028790
    30  C    0.038643
    31  C   -0.027436
    32  N   -0.177950
    33  C    0.139039
    34  C   -0.185830
    35  C   -0.014189
    36  C    0.031323
    37  C    0.068205
    38  C    0.029072
    39  O   -0.167114
    40  C    0.058252
    41  C    0.211294
    42  O   -0.205596
    43  O   -0.230673
    44  C    0.151791
    45  C    0.309465
    46  C   -0.121211
    47  C   -0.056746
    48  C   -0.035064
    49  C    0.093736
    50  C   -0.022968
    51  C    0.024751
    52  C   -0.091695
    53  C   -0.036927
    54  C    0.020506
    55  C    0.173259
    56  C   -0.032310
    57  C   -0.041987
    58  C    0.013216
    59  C    0.023586
    60  C   -0.039029
    61  C    0.017627
    62  C   -0.169757
    63  C    0.037870
    64  C    0.099781
    65  H   -0.048133
    66  H    0.018558
    67  H    0.030069
    68  H   -0.044070
    69  H   -0.012381
    70  H    0.004328
    71  H    0.017726
    72  H    0.024197
    73  H   -0.024605
    74  H    0.011265
    75  H    0.027011
    76  H    0.044238
    77  H    0.079575
    78  H    0.024758
    79  H    0.036858
    80  H    0.047001
    81  H    0.063597
    82  H    0.029719
    83  H    0.046544
    84  H    0.037571
    85  H    0.030983
    86  H   -0.011480
    87  H   -0.012426
    88  H    0.013384
    89  H    0.041289
    90  H    0.025868
    91  H    0.046876
    92  H    0.047480
    93  H    0.033821
    94  H    0.041052
    95  H    0.005125
    96  H   -0.006764
    97  H    0.051674
    98  H    0.010566
    99  H   -0.014049
   100  H    0.000239
   101  H    0.020213
   102  H    0.047383
   103  H    0.021401
   104  H    0.028355
   105  H   -0.037624
   106  H    0.017561
   107  H   -0.008666
   108  H   -0.012241
   109  H   -0.001844
   110  H   -0.004575
   111  H    0.045040
   112  H    0.016602
   113  H    0.015145
   114  H    0.023363
   115  H    0.009914
   116  H   -0.059803
   117  H   -0.053302
   118  H   -0.005898
   119  H    0.001497
   120  H   -0.027235
   121  H   -0.001252
   122  H    0.021505
   123  H    0.027169
   124  H   -0.056692
   125  H   -0.000107
   126  H    0.027000
   127  H   -0.002062
   128  H   -0.000579
   129  H    0.000817
   130  H    0.000582
   131  H    0.006291
   132  H    0.011986
   133  H    0.018909
   134  H   -0.009859
   135  H    0.002637
   136  H    0.015449
   137  H    0.173930
   138  H    0.236579
 Sum of Mulliken charges =  -0.00000

 Dipole moment (field-independent basis, Debye):
    X=              2.9674    Y=              4.9814    Z=              0.2033  Tot=              5.8019
 Quadrupole moment (field-independent basis, Debye-Ang):
   XX=           -367.8516   YY=           -384.3534   ZZ=           -401.5897
   XY=            -30.4084   XZ=             -6.8192   YZ=             -1.5480

 Normal termination of Gaussian 16 at Sat Aug 10 15:21:15 2019.
