 Gaussian 16, Revision A.03,
 Gaussian 16:  ES64L-G16RevA.03 25-Dec-2016

 --------------------------
 # td=(NStates=1) B3LYP/SVP
 --------------------------

 --
 TD
 --
 Symbolic Z-matrix:
 Charge =  0 Multiplicity = 1

                         Standard orientation:
 ---------------------------------------------------------------------
 Center     Atomic      Atomic             Coordinates (Angstroms)
 Number     Number       Type             X           Y           Z
 ---------------------------------------------------------------------
      1          6           0       -5.096589   -1.887399    0.541318
      2          6           0       -4.677736    2.770943    1.501424
      3          6           0       -9.196995    3.527457   -0.199688
      4          6           0       -9.780658   -1.239845   -0.941268
      5          7           0       -5.237412    0.434101    0.902565
      6          6           0       -4.592365   -0.731824    0.919955
      7          6           0       -3.116107   -0.659759    1.381294
      8          6           0       -3.080224    0.814376    1.942750
      9          6           0       -4.456053    1.406939    1.445483
     10          6           0       -3.110119    0.774244    3.587927
     11          6           0       -1.998626   -0.812371    0.207523
     12          6           0       -0.598962   -0.746100    0.651650
     13          6           0        0.287746   -1.194985   -0.472737
     14          8           0       -0.079601   -1.658436   -1.504995
     15          8           0        1.657398   -1.231309   -0.024413
     16          7           0       -7.066154    2.850674    0.586085
     17          6           0       -5.887938    3.418237    1.064868
     18          6           0       -6.051273    4.863555    1.032514
     19          6           0       -7.302362    5.022340    0.285428
     20          6           0       -7.965402    3.849733    0.161438
     21          6           0       -5.005491    5.832515    1.586965
     22          6           0       -7.929779    6.376230    0.340127
     23          6           0       -8.775171    6.726454   -0.611130
     24          7           0       -9.169191    1.096416   -0.568707
     25          6           0       -9.772863    2.304053   -0.508550
     26          6           0      -11.157909    2.102158   -1.093401
     27          6           0      -11.273611    0.721819   -1.283966
     28          6           0      -10.019109    0.196117   -0.937398
     29          6           0      -12.181069    3.250384   -1.429737
     30          6           0      -12.570201    0.008501   -1.849054
     31          6           0      -12.447025   -0.329388   -3.284368
     32          7           0       -7.533438   -1.250253   -0.107866
     33          6           0       -8.625903   -1.920665   -0.548486
     34          6           0       -8.276356   -3.295142   -0.690970
     35          6           0       -6.972194   -3.356342   -0.256369
     36          6           0       -6.501893   -2.055883    0.112112
     37          6           0       -9.170204   -4.390961   -1.081761
     38          6           0       -5.826976   -4.338683    0.055467
     39          8           0       -5.791012   -5.475297   -0.156986
     40          6           0       -4.592862   -3.375628    0.604205
     41          6           0       -4.100142   -3.877227    1.889139
     42          8           0       -4.273931   -3.340259    2.919540
     43          8           0       -3.278927   -4.902979    1.664304
     44          6           0       -2.782352   -5.477177    2.937706
     45          6           0        2.680846   -1.596916   -1.018981
     46          6           0        4.048326   -1.246355   -0.552534
     47          6           0        4.938301   -0.479894   -1.314838
     48          6           0        4.903676    0.106372   -2.615870
     49          6           0        6.182377   -0.086373   -0.562497
     50          6           0        7.511463   -0.715167   -1.115969
     51          6           0        8.716565   -0.354056   -0.198762
     52          6           0        9.988606   -0.869414   -0.960884
     53          6           0       10.045225   -2.371014   -1.218806
     54          6           0       11.261362   -0.346211   -0.062994
     55          6           0       12.686150   -0.685650   -0.650314
     56          6           0       13.804230    0.007213    0.199951
     57          6           0       15.223699   -0.161358   -0.441989
     58          6           0       15.746121   -1.495871   -0.722053
     59          6           0       16.236040    0.765684    0.418893
     60          6           0       17.636378    0.978026   -0.130024
     61          6           0       18.511273    1.824873    0.743985
     62          6           0       20.057220    1.965314    0.349939
     63          6           0       20.280226    2.259182   -1.151700
     64          6           0       20.795556    3.055599    1.177108
     65          1           0       -4.016217    3.370781    1.823767
     66          1           0       -9.690992    4.322504   -0.587757
     67          1           0      -10.622720   -2.034680   -1.556854
     68          1           0       -2.859343   -1.295210    2.183386
     69          1           0       -2.171965    1.450781    1.621977
     70          1           0       -2.131143    0.192123    3.954064
     71          1           0       -3.089706    1.920134    3.847602
     72          1           0       -3.828312    0.097919    3.908717
     73          1           0       -2.188940   -1.914589   -0.363537
     74          1           0       -2.509395   -0.073139   -0.437929
     75          1           0       -0.069587    0.225026    0.787108
     76          1           0       -0.251170   -1.634310    1.325670
     77          1           0       -4.169651    5.834050    1.005450
     78          1           0       -5.166916    6.961245    1.594674
     79          1           0       -4.857572    5.602726    2.864300
     80          1           0       -7.578695    7.063196    1.016866
     81          1           0       -9.102694    5.875179   -1.436132
     82          1           0       -9.240251    7.664712   -0.713897
     83          1           0      -12.238036    3.819656   -0.555439
     84          1           0      -11.485967    3.740774   -2.313030
     85          1           0      -13.009539    2.666902   -2.021046
     86          1           0      -12.637038   -0.971795   -1.297981
     87          1           0      -13.321842    0.596613   -1.361198
     88          1           0      -12.402473    0.526707   -3.926434
     89          1           0      -11.618818   -0.807638   -3.624621
     90          1           0      -13.269153   -0.941558   -3.543635
     91          1           0       -9.970565   -4.312611   -0.374063
     92          1           0       -9.645671   -4.322347   -2.201030
     93          1           0       -8.874008   -5.497759   -0.690391
     94          1           0       -3.832766   -3.527531   -0.307122
     95          1           0       -2.024265   -6.247338    2.346497
     96          1           0       -2.260827   -4.741315    3.547282
     97          1           0       -3.597984   -6.046912    3.278106
     98          1           0        2.540022   -2.727361   -1.113652
     99          1           0        2.348191   -1.202901   -1.926886
    100          1           0        4.348910   -1.741973    0.313389
    101          1           0        5.093953    1.178451   -2.368268
    102          1           0        5.609231   -0.350066   -3.247117
    103          1           0        3.966274   -0.043598   -3.086634
    104          1           0        6.259030    1.003942   -0.504405
    105          1           0        6.002186   -0.449683    0.534631
    106          1           0        7.415701   -1.717250   -1.570452
    107          1           0        7.767312   -0.031881   -2.189192
    108          1           0        8.620874    0.547175    0.027721
    109          1           0        8.803709   -0.769461    0.927524
    110          1           0       10.230599   -0.302661   -1.902172
    111          1           0        9.112707   -2.907431   -1.738638
    112          1           0       10.913670   -2.705561   -1.842099
    113          1           0       10.084628   -3.132173   -0.288593
    114          1           0       11.161304    0.944689   -0.072438
    115          1           0       11.130015   -0.626612    0.932116
    116          1           0       12.917451   -1.848299   -0.975045
    117          1           0       12.682503   -0.387425   -1.530251
    118          1           0       13.615001    1.042650    0.450524
    119          1           0       13.775603   -0.589383    1.265622
    120          1           0       15.083206    0.338749   -1.447421
    121          1           0       14.963337   -1.898651   -1.613858
    122          1           0       16.739232   -1.556765   -1.209029
    123          1           0       15.740991   -2.218587    0.087743
    124          1           0       15.563698    1.690270    0.692327
    125          1           0       16.254149    0.179412    1.413766
    126          1           0       18.000096   -0.081347   -0.238956
    127          1           0       17.565149    0.972640   -1.236111
    128          1           0       18.173155    2.798307    0.940385
    129          1           0       18.317063    1.303915    1.867019
    130          1           0       20.502675    0.964303    0.615775
    131          1           0       19.508199    3.157746   -1.666905
    132          1           0       21.380269    2.551490   -1.358836
    133          1           0       20.352281    1.179065   -1.725947
    134          1           0       20.618110    2.853357    2.221088
    135          1           0       21.878457    3.101531    1.077481
    136          1           0       20.371005    4.185902    1.046568
    137          1           0       -7.062466    1.977665    0.438886
    138          1           0       -7.334509   -0.278774   -0.049550
 ---------------------------------------------------------------------

 SCF Done:  E(RB3LYP) =  -2732.90873219     A.U. after   17 cycles

 Excitation energies and oscillator strengths:

 Excited State   1:      Singlet-A      2.0947 eV  591.91 nm  f=0.1566  <S**2>=0.000
     235 -> 237       -0.28186
     235 -> 238        0.26226
     236 -> 237        0.56112
     236 -> 238        0.17780
 This state for optimization and/or second-order correction.
 Total Energy, E(TD-HF/TD-DFT) =  -2732.83175513
 Copying the excited state density for this state as the 1-particle RhoCI density.

 The electronic state is 1-A.
 Alpha  occ. eigenvalues --  -19.17282 -19.15332 -19.13658 -19.12800 -19.12125
 Alpha  occ. eigenvalues --  -14.36779 -14.34869 -14.31899 -14.28577 -10.30961
 Alpha  occ. eigenvalues --  -10.30521 -10.28794 -10.25326 -10.23690 -10.23424
 Alpha  occ. eigenvalues --  -10.23272 -10.23100 -10.22771 -10.22295 -10.22252
 Alpha  occ. eigenvalues --  -10.22012 -10.21868 -10.21838 -10.21363 -10.21353
 Alpha  occ. eigenvalues --  -10.21185 -10.21025 -10.20991 -10.20808 -10.20732
 Alpha  occ. eigenvalues --  -10.20726 -10.20526 -10.20517 -10.20476 -10.20474
 Alpha  occ. eigenvalues --  -10.20266 -10.20160 -10.20152 -10.20053 -10.19946
 Alpha  occ. eigenvalues --  -10.19874 -10.19712 -10.19557 -10.19541 -10.19444
 Alpha  occ. eigenvalues --  -10.19370 -10.19200 -10.19182 -10.19176 -10.18982
 Alpha  occ. eigenvalues --  -10.18977 -10.18948 -10.18841 -10.18604 -10.18562
 Alpha  occ. eigenvalues --  -10.18520 -10.18510 -10.18421 -10.18390 -10.18350
 Alpha  occ. eigenvalues --  -10.17988 -10.17881 -10.16966 -10.16596  -1.10169
 Alpha  occ. eigenvalues --   -1.07065  -1.06807  -1.01562  -1.00073  -0.99257
 Alpha  occ. eigenvalues --   -0.97536  -0.94313  -0.93949  -0.83192  -0.82882
 Alpha  occ. eigenvalues --   -0.82302  -0.81502  -0.81141  -0.80703  -0.80572
 Alpha  occ. eigenvalues --   -0.79970  -0.78867  -0.78756  -0.78336  -0.76731
 Alpha  occ. eigenvalues --   -0.76142  -0.76000  -0.75695  -0.74377  -0.74052
 Alpha  occ. eigenvalues --   -0.73408  -0.73352  -0.72971  -0.71835  -0.71398
 Alpha  occ. eigenvalues --   -0.69999  -0.69222  -0.68561  -0.67865  -0.66972
 Alpha  occ. eigenvalues --   -0.66724  -0.65996  -0.65917  -0.65404  -0.64283
 Alpha  occ. eigenvalues --   -0.63596  -0.62341  -0.62128  -0.61522  -0.61345
 Alpha  occ. eigenvalues --   -0.60736  -0.58575  -0.58281  -0.58000  -0.57812
 Alpha  occ. eigenvalues --   -0.57042  -0.56732  -0.56295  -0.55924  -0.54902
 Alpha  occ. eigenvalues --   -0.54892  -0.54553  -0.54291  -0.54124  -0.52605
 Alpha  occ. eigenvalues --   -0.52285  -0.52045  -0.51862  -0.50832  -0.50004
 Alpha  occ. eigenvalues --   -0.49707  -0.49227  -0.48873  -0.47997  -0.47825
 Alpha  occ. eigenvalues --   -0.47764  -0.47554  -0.47089  -0.46942  -0.46533
 Alpha  occ. eigenvalues --   -0.46484  -0.46251  -0.45815  -0.45736  -0.45433
 Alpha  occ. eigenvalues --   -0.45356  -0.45096  -0.44502  -0.44311  -0.44140
 Alpha  occ. eigenvalues --   -0.44076  -0.43937  -0.43903  -0.43720  -0.43590
 Alpha  occ. eigenvalues --   -0.43435  -0.43236  -0.43052  -0.42572  -0.42403
 Alpha  occ. eigenvalues --   -0.42296  -0.42189  -0.41979  -0.41737  -0.41711
 Alpha  occ. eigenvalues --   -0.41343  -0.41281  -0.41041  -0.40683  -0.40616
 Alpha  occ. eigenvalues --   -0.40539  -0.40074  -0.39964  -0.39848  -0.39649
 Alpha  occ. eigenvalues --   -0.39206  -0.38903  -0.38864  -0.38775  -0.38637
 Alpha  occ. eigenvalues --   -0.38113  -0.38064  -0.37817  -0.37594  -0.37386
 Alpha  occ. eigenvalues --   -0.37063  -0.36925  -0.36894  -0.36791  -0.36421
 Alpha  occ. eigenvalues --   -0.36220  -0.36158  -0.35855  -0.35689  -0.35589
 Alpha  occ. eigenvalues --   -0.35417  -0.35164  -0.35076  -0.34732  -0.34413
 Alpha  occ. eigenvalues --   -0.34193  -0.34163  -0.34062  -0.33505  -0.33083
 Alpha  occ. eigenvalues --   -0.32855  -0.32697  -0.32461  -0.32255  -0.32076
 Alpha  occ. eigenvalues --   -0.32002  -0.31568  -0.31159  -0.31087  -0.31025
 Alpha  occ. eigenvalues --   -0.30758  -0.30533  -0.30242  -0.30045  -0.29524
 Alpha  occ. eigenvalues --   -0.28916  -0.28773  -0.28495  -0.27718  -0.27699
 Alpha  occ. eigenvalues --   -0.27436  -0.26697  -0.26615  -0.26264  -0.25116
 Alpha  occ. eigenvalues --   -0.24938  -0.23733  -0.23567  -0.21666  -0.19779
 Alpha  occ. eigenvalues --   -0.19089
 Alpha virt. eigenvalues --   -0.10374  -0.07462  -0.03297  -0.01103  -0.00790
 Alpha virt. eigenvalues --    0.00379   0.00780   0.00985   0.02959   0.03094
 Alpha virt. eigenvalues --    0.03336   0.03660   0.03861   0.04216   0.04519

 Mulliken charges:
               1
     1  C    0.112257
     2  C    0.034236
     3  C    0.004350
     4  C   -0.137828
     5  N   -0.162418
     6  C   -0.125608
     7  C    0.024422
     8  C   -0.135205
     9  C    0.073741
    10  C    0.029538
    11  C   -0.022215
    12  C    0.085612
    13  C    0.144694
    14  O   -0.199618
    15  O   -0.411461
    16  N   -0.000013
    17  C    0.069465
    18  C   -0.142329
    19  C    0.005966
    20  C    0.125624
    21  C    0.041991
    22  C    0.018895
    23  C   -0.045454
    24  N   -0.140852
    25  C    0.043364
    26  C   -0.203101
    27  C   -0.155492
    28  C    0.024040
    29  C    0.082040
    30  C    0.087557
    31  C    0.128222
    32  N    0.041950
    33  C    0.060237
    34  C   -0.134048
    35  C   -0.021686
    36  C   -0.044866
    37  C    0.030388
    38  C    0.075226
    39  O   -0.086435
    40  C   -0.119093
    41  C    0.201877
    42  O   -0.198437
    43  O   -0.319120
    44  C    0.171831
    45  C    0.299050
    46  C   -0.050312
    47  C   -0.178708
    48  C    0.185173
    49  C    0.038855
    50  C   -0.070096
    51  C    0.167964
    52  C   -0.061292
    53  C   -0.038291
    54  C   -0.035703
    55  C    0.118993
    56  C    0.008089
    57  C   -0.093795
    58  C    0.012222
    59  C   -0.050054
    60  C    0.089378
    61  C    0.043593
    62  C   -0.079116
    63  C   -0.055387
    64  C    0.012039
    65  H   -0.135026
    66  H   -0.098340
    67  H    0.044241
    68  H   -0.020970
    69  H    0.015009
    70  H    0.020718
    71  H    0.039618
    72  H    0.020612
    73  H    0.047050
    74  H    0.022992
    75  H    0.045000
    76  H    0.062121
    77  H    0.018746
    78  H    0.019174
    79  H    0.059004
    80  H   -0.031574
    81  H    0.056622
    82  H    0.006104
    83  H    0.036490
    84  H    0.044617
    85  H    0.045701
    86  H   -0.014047
    87  H    0.003973
    88  H   -0.013922
    89  H   -0.025064
    90  H   -0.005651
    91  H    0.018207
    92  H    0.062581
    93  H    0.051145
    94  H    0.089991
    95  H    0.050074
    96  H    0.057393
    97  H    0.033902
    98  H    0.007166
    99  H   -0.015039
   100  H   -0.021908
   101  H    0.024117
   102  H    0.020325
   103  H   -0.014341
   104  H    0.008281
   105  H    0.006269
   106  H    0.020796
   107  H    0.002313
   108  H   -0.091580
   109  H    0.003655
   110  H    0.009124
   111  H    0.018898
   112  H    0.021064
   113  H    0.017581
   114  H    0.006119
   115  H   -0.013286
   116  H    0.014853
   117  H   -0.093161
   118  H   -0.001469
   119  H    0.004545
   120  H   -0.006730
   121  H    0.012297
   122  H    0.018114
   123  H    0.010800
   124  H   -0.000014
   125  H   -0.003842
   126  H   -0.025014
   127  H   -0.015703
   128  H   -0.015203
   129  H    0.008040
   130  H    0.007459
   131  H    0.049250
   132  H    0.018331
   133  H    0.018455
   134  H   -0.004493
   135  H    0.011976
   136  H    0.018592
   137  H    0.030362
   138  H    0.131664
 Sum of Mulliken charges =  -0.00000

 Dipole moment (field-independent basis, Debye):
    X=              3.1127    Y=              2.7282    Z=              0.0038  Tot=              4.1390
 Quadrupole moment (field-independent basis, Debye-Ang):
   XX=           -356.2206   YY=           -374.7595   ZZ=           -394.0803
   XY=            -13.7075   XZ=              4.3413   YZ=             -2.4403

 Normal termination of Gaussian 16 at Tue Aug 20 11:18:57 2019.
