 Gaussian 16, Revision A.03,
 Gaussian 16:  ES64L-G16RevA.03 25-Dec-2016

 --------------------------
 # td=(NStates=1) B3LYP/SVP
 --------------------------

 --
 TD
 --
 Symbolic Z-matrix:
 Charge =  0 Multiplicity = 1

                         Standard orientation:
 ---------------------------------------------------------------------
 Center     Atomic      Atomic             Coordinates (Angstroms)
 Number     Number       Type             X           Y           Z
 ---------------------------------------------------------------------
      1          6           0       -5.071249   -2.036095    0.402085
      2          6           0       -4.857199    2.733645    1.332126
      3          6           0       -9.419115    3.331483   -0.098012
      4          6           0       -9.761768   -1.412212   -0.905405
      5          7           0       -5.149271    0.321588    0.693015
      6          6           0       -4.431474   -0.829492    0.762806
      7          6           0       -3.027221   -0.604379    1.325934
      8          6           0       -3.145688    0.873319    1.920837
      9          6           0       -4.469870    1.443855    1.258886
     10          6           0       -3.083160    0.873281    3.460523
     11          6           0       -1.976516   -0.848373    0.153480
     12          6           0       -0.524671   -0.857444    0.676259
     13          6           0        0.392904   -0.880136   -0.702423
     14          8           0        0.065027   -1.016290   -1.885249
     15          8           0        1.681218   -0.839441   -0.235418
     16          7           0       -7.089084    2.763509    0.525112
     17          6           0       -6.038565    3.378160    1.018408
     18          6           0       -6.184192    4.816934    1.011481
     19          6           0       -7.453264    5.023980    0.613222
     20          6           0       -8.071820    3.616487    0.285721
     21          6           0       -5.240055    5.776669    1.527597
     22          6           0       -8.152648    6.279870    0.417386
     23          6           0       -9.086924    6.572937   -0.461250
     24          7           0       -9.261470    0.842567   -0.511200
     25          6           0       -9.875905    2.074568   -0.547056
     26          6           0      -11.368736    1.976568   -1.045919
     27          6           0      -11.489870    0.618642   -1.107898
     28          6           0      -10.186756   -0.078475   -0.770751
     29          6           0      -12.218403    3.034547   -1.194700
     30          6           0      -12.678849   -0.185289   -1.651221
     31          6           0      -12.629326   -0.536364   -3.171839
     32          7           0       -7.434239   -1.254644   -0.419634
     33          6           0       -8.537044   -2.015885   -0.692158
     34          6           0       -8.208132   -3.465907   -0.527989
     35          6           0       -6.882802   -3.415443   -0.289110
     36          6           0       -6.398043   -2.022726   -0.096711
     37          6           0       -9.048066   -4.653375   -0.888327
     38          6           0       -5.791701   -4.277478   -0.039911
     39          8           0       -5.773813   -5.444430   -0.089593
     40          6           0       -4.519342   -3.437810    0.432817
     41          6           0       -4.014450   -3.886169    1.835464
     42          8           0       -4.473022   -3.410249    2.890753
     43          8           0       -3.148086   -4.886155    1.664779
     44          6           0       -2.831851   -5.428932    2.964585
     45          6           0        2.734762   -1.060120   -1.259579
     46          6           0        4.015040   -0.598126   -0.597459
     47          6           0        5.045203    0.137161   -1.073055
     48          6           0        4.900158    0.758104   -2.533422
     49          6           0        6.311177    0.289254   -0.455234
     50          6           0        7.574443   -0.303108   -1.089155
     51          6           0        8.808531   -0.079809   -0.208848
     52          6           0       10.073686   -0.485112   -0.960670
     53          6           0        9.987387   -2.039095   -1.345352
     54          6           0       11.354454   -0.222564   -0.100393
     55          6           0       12.758837   -0.451888   -0.666633
     56          6           0       13.887437   -0.032593    0.195106
     57          6           0       15.296866   -0.172877   -0.494511
     58          6           0       15.704567   -1.610061   -0.884652
     59          6           0       16.383002    0.451384    0.516273
     60          6           0       17.797924    0.593413    0.046435
     61          6           0       18.708843    1.360111    0.850130
     62          6           0       20.142497    1.538528    0.329737
     63          6           0       20.285683    2.206588   -1.016040
     64          6           0       20.987399    2.230389    1.316677
     65          1           0       -4.014833    3.472993    1.555347
     66          1           0      -10.215725    3.917945   -0.161618
     67          1           0      -10.572852   -2.122547   -1.138341
     68          1           0       -2.985412   -1.378322    2.106713
     69          1           0       -2.086070    1.288557    1.418105
     70          1           0       -1.966392    0.525124    3.812376
     71          1           0       -3.273180    2.039020    3.745296
     72          1           0       -3.902917    0.298417    3.983587
     73          1           0       -2.283343   -1.782419   -0.243313
     74          1           0       -2.185804    0.045503   -0.491892
     75          1           0       -0.195387    0.033403    1.153575
     76          1           0       -0.372796   -1.760974    1.134509
     77          1           0       -4.479147    6.096924    0.783355
     78          1           0       -5.709214    6.684493    1.877736
     79          1           0       -4.730835    5.379433    2.556199
     80          1           0       -7.528336    7.201523    0.755058
     81          1           0       -9.688627    5.839343   -1.160719
     82          1           0       -9.520034    7.767697   -0.647038
     83          1           0      -12.339244    3.512333   -0.216610
     84          1           0      -12.062769    3.572672   -2.043720
     85          1           0      -13.280941    2.398040   -1.427380
     86          1           0      -12.956747   -1.031711   -0.940147
     87          1           0      -13.701067    0.504888   -1.695385
     88          1           0      -12.585938    0.272406   -3.737976
     89          1           0      -11.637266   -1.159946   -3.481351
     90          1           0      -13.513319   -1.198905   -3.268826
     91          1           0       -9.686242   -4.949076   -0.128532
     92          1           0       -9.469575   -4.909028   -1.815453
     93          1           0       -8.394519   -5.496919   -0.681943
     94          1           0       -3.515760   -3.531662   -0.260435
     95          1           0       -1.888543   -6.016148    2.819874
     96          1           0       -2.421579   -4.642587    3.666209
     97          1           0       -3.719253   -6.091682    3.342175
     98          1           0        2.766275   -2.199174   -1.436150
     99          1           0        2.482631   -0.505392   -2.181258
    100          1           0        4.200411   -1.400111    0.289689
    101          1           0        5.465951    1.718914   -2.384408
    102          1           0        5.446940    0.046665   -3.311361
    103          1           0        3.857290    0.896962   -2.913021
    104          1           0        6.652590    1.175428   -0.155298
    105          1           0        6.302214   -0.388877    0.561724
    106          1           0        7.408835   -1.294998   -1.329136
    107          1           0        7.572556    0.116659   -2.085914
    108          1           0        8.896604    0.963298    0.153703
    109          1           0        8.610823   -0.689832    0.553192
    110          1           0       10.260449    0.115841   -1.832116
    111          1           0        8.992906   -2.128014   -1.992527
    112          1           0       10.750392   -2.489726   -1.802866
    113          1           0        9.597580   -2.457028   -0.388092
    114          1           0       11.246559    0.764328    0.395878
    115          1           0       11.062905   -0.787956    0.905181
    116          1           0       12.612626   -1.616090   -0.887937
    117          1           0       12.874566   -0.167237   -1.811809
    118          1           0       13.746874    1.101318    0.627292
    119          1           0       14.014812   -0.586838    1.223015
    120          1           0       15.302876    0.545351   -1.374782
    121          1           0       15.271508   -1.905482   -1.643922
    122          1           0       16.856508   -1.708536   -1.205245
    123          1           0       15.708704   -2.169747    0.061353
    124          1           0       16.033242    1.550807    0.804222
    125          1           0       16.352868    0.024943    1.538946
    126          1           0       18.116732   -0.395362   -0.032834
    127          1           0       17.760516    1.069580   -0.969761
    128          1           0       18.185519    2.488014    0.829165
    129          1           0       18.783011    1.040393    1.951805
    130          1           0       20.601729    0.493913    0.164107
    131          1           0       19.681248    2.962111   -1.232619
    132          1           0       21.202656    2.367818   -1.221631
    133          1           0       19.806207    1.380428   -1.706757
    134          1           0       21.001763    1.688256    2.311684
    135          1           0       22.086557    2.525582    1.159734
    136          1           0       20.761434    3.278462    1.587991
    137          1           0       -7.141854    1.749532    0.414759
    138          1           0       -7.439231   -0.266874   -0.246398
 ---------------------------------------------------------------------

 SCF Done:  E(RB3LYP) =  -2733.01884413     A.U. after   17 cycles

 Excitation energies and oscillator strengths:

 Excited State   1:      Singlet-A      2.0357 eV  609.05 nm  f=0.1807  <S**2>=0.000
     235 -> 238        0.30564
     236 -> 237        0.63280
 This state for optimization and/or second-order correction.
 Total Energy, E(TD-HF/TD-DFT) =  -2732.94403382
 Copying the excited state density for this state as the 1-particle RhoCI density.

 The electronic state is 1-A.
 Alpha  occ. eigenvalues --  -19.19779 -19.17520 -19.13160 -19.12818 -19.12009
 Alpha  occ. eigenvalues --  -14.38244 -14.37252 -14.31858 -14.29841 -10.32166
 Alpha  occ. eigenvalues --  -10.31905 -10.27046 -10.25908 -10.25549 -10.24269
 Alpha  occ. eigenvalues --  -10.23501 -10.23401 -10.23013 -10.22724 -10.22323
 Alpha  occ. eigenvalues --  -10.21863 -10.21843 -10.21521 -10.21492 -10.21309
 Alpha  occ. eigenvalues --  -10.21116 -10.20932 -10.20893 -10.20884 -10.20704
 Alpha  occ. eigenvalues --  -10.20643 -10.20643 -10.20575 -10.20345 -10.20335
 Alpha  occ. eigenvalues --  -10.20292 -10.20141 -10.20091 -10.19864 -10.19779
 Alpha  occ. eigenvalues --  -10.19463 -10.19423 -10.19382 -10.19305 -10.19241
 Alpha  occ. eigenvalues --  -10.19175 -10.19151 -10.19043 -10.18987 -10.18891
 Alpha  occ. eigenvalues --  -10.18740 -10.18701 -10.18587 -10.18414 -10.18393
 Alpha  occ. eigenvalues --  -10.18393 -10.18326 -10.18235 -10.18183 -10.17950
 Alpha  occ. eigenvalues --  -10.17724 -10.17575 -10.17000 -10.15764  -1.10485
 Alpha  occ. eigenvalues --   -1.07416  -1.05353  -1.01050  -1.00064  -0.99451
 Alpha  occ. eigenvalues --   -0.99293  -0.92784  -0.91581  -0.84220  -0.83550
 Alpha  occ. eigenvalues --   -0.83016  -0.82347  -0.81370  -0.81187  -0.80706
 Alpha  occ. eigenvalues --   -0.80363  -0.79941  -0.79515  -0.78176  -0.77366
 Alpha  occ. eigenvalues --   -0.76659  -0.76131  -0.75876  -0.75168  -0.74611
 Alpha  occ. eigenvalues --   -0.73639  -0.73474  -0.72568  -0.71725  -0.70980
 Alpha  occ. eigenvalues --   -0.70435  -0.68931  -0.68736  -0.68045  -0.67927
 Alpha  occ. eigenvalues --   -0.67751  -0.67732  -0.66574  -0.66495  -0.65158
 Alpha  occ. eigenvalues --   -0.63490  -0.62606  -0.62267  -0.62224  -0.60814
 Alpha  occ. eigenvalues --   -0.60362  -0.59796  -0.58881  -0.58191  -0.57640
 Alpha  occ. eigenvalues --   -0.56949  -0.56672  -0.56078  -0.55879  -0.55420
 Alpha  occ. eigenvalues --   -0.55096  -0.54907  -0.54835  -0.53167  -0.52902
 Alpha  occ. eigenvalues --   -0.52140  -0.52044  -0.50890  -0.50196  -0.50004
 Alpha  occ. eigenvalues --   -0.49802  -0.49288  -0.49021  -0.48706  -0.48521
 Alpha  occ. eigenvalues --   -0.48325  -0.47805  -0.47571  -0.47375  -0.46948
 Alpha  occ. eigenvalues --   -0.46857  -0.46636  -0.46519  -0.46283  -0.46082
 Alpha  occ. eigenvalues --   -0.45876  -0.45390  -0.45254  -0.45136  -0.45109
 Alpha  occ. eigenvalues --   -0.44952  -0.44734  -0.44502  -0.44437  -0.43958
 Alpha  occ. eigenvalues --   -0.43525  -0.43340  -0.43130  -0.42956  -0.42845
 Alpha  occ. eigenvalues --   -0.42574  -0.42412  -0.42275  -0.42176  -0.41935
 Alpha  occ. eigenvalues --   -0.41836  -0.41393  -0.41102  -0.41030  -0.40639
 Alpha  occ. eigenvalues --   -0.40057  -0.39881  -0.39624  -0.39463  -0.39409
 Alpha  occ. eigenvalues --   -0.39257  -0.38925  -0.38823  -0.38780  -0.38601
 Alpha  occ. eigenvalues --   -0.38368  -0.38324  -0.38085  -0.37932  -0.37754
 Alpha  occ. eigenvalues --   -0.37549  -0.37315  -0.37285  -0.37164  -0.36883
 Alpha  occ. eigenvalues --   -0.36822  -0.36357  -0.36168  -0.35985  -0.35693
 Alpha  occ. eigenvalues --   -0.35649  -0.35566  -0.35008  -0.34885  -0.34544
 Alpha  occ. eigenvalues --   -0.34323  -0.33892  -0.33658  -0.33319  -0.33159
 Alpha  occ. eigenvalues --   -0.33015  -0.32944  -0.32280  -0.32226  -0.32066
 Alpha  occ. eigenvalues --   -0.31782  -0.31553  -0.31386  -0.31202  -0.31023
 Alpha  occ. eigenvalues --   -0.30849  -0.30554  -0.30492  -0.30469  -0.30225
 Alpha  occ. eigenvalues --   -0.30108  -0.29208  -0.28444  -0.28025  -0.27916
 Alpha  occ. eigenvalues --   -0.27441  -0.27288  -0.26545  -0.25916  -0.25460
 Alpha  occ. eigenvalues --   -0.24912  -0.24721  -0.24461  -0.22953  -0.19322
 Alpha  occ. eigenvalues --   -0.18086
 Alpha virt. eigenvalues --   -0.09508  -0.07193  -0.03699  -0.01892  -0.01159
 Alpha virt. eigenvalues --   -0.00738   0.00046   0.00697   0.02272   0.03439
 Alpha virt. eigenvalues --    0.03616   0.03719   0.04170   0.04570   0.04846

 Mulliken charges:
               1
     1  C   -0.013458
     2  C   -0.066439
     3  C    0.010553
     4  C   -0.062988
     5  N   -0.237875
     6  C   -0.093462
     7  C   -0.017420
     8  C   -0.090683
     9  C    0.026525
    10  C    0.001733
    11  C    0.054621
    12  C    0.104276
    13  C    0.184477
    14  O   -0.247740
    15  O   -0.337686
    16  N    0.064718
    17  C    0.032993
    18  C   -0.093629
    19  C    0.020701
    20  C    0.093835
    21  C    0.056584
    22  C   -0.010993
    23  C   -0.144146
    24  N   -0.231799
    25  C   -0.019777
    26  C   -0.155497
    27  C   -0.045035
    28  C    0.044758
    29  C    0.115568
    30  C   -0.054260
    31  C    0.047851
    32  N    0.042245
    33  C    0.049285
    34  C   -0.147460
    35  C    0.032083
    36  C    0.071968
    37  C    0.185648
    38  C    0.035426
    39  O   -0.121694
    40  C   -0.086092
    41  C    0.208634
    42  O   -0.257432
    43  O   -0.268719
    44  C    0.138609
    45  C    0.233576
    46  C   -0.116312
    47  C   -0.075276
    48  C   -0.003622
    49  C    0.087405
    50  C    0.011029
    51  C    0.095575
    52  C   -0.065618
    53  C    0.038359
    54  C   -0.007473
    55  C    0.043754
    56  C   -0.011372
    57  C   -0.080081
    58  C    0.132940
    59  C   -0.046337
    60  C    0.126674
    61  C   -0.033106
    62  C   -0.074540
    63  C    0.151261
    64  C    0.005708
    65  H    0.001828
    66  H   -0.111916
    67  H   -0.022719
    68  H    0.000759
    69  H    0.012736
    70  H    0.039328
    71  H    0.022343
    72  H    0.047701
    73  H   -0.005986
    74  H    0.025518
    75  H    0.028010
    76  H    0.008285
    77  H    0.036486
    78  H    0.010282
    79  H    0.045694
    80  H    0.015101
    81  H    0.054618
    82  H    0.048401
    83  H    0.052854
    84  H    0.007599
    85  H    0.016456
    86  H    0.024171
    87  H    0.006308
    88  H   -0.015551
    89  H    0.017677
    90  H    0.023910
    91  H   -0.020255
    92  H    0.029857
    93  H   -0.005974
    94  H    0.080481
    95  H    0.026691
    96  H    0.046312
    97  H    0.072270
    98  H    0.040980
    99  H    0.028941
   100  H    0.015154
   101  H    0.029597
   102  H    0.053516
   103  H    0.034608
   104  H   -0.035906
   105  H   -0.002950
   106  H   -0.022213
   107  H   -0.024579
   108  H    0.002777
   109  H   -0.040871
   110  H   -0.014706
   111  H    0.014135
   112  H   -0.002232
   113  H    0.003930
   114  H   -0.028833
   115  H   -0.018681
   116  H    0.010112
   117  H    0.010005
   118  H    0.018590
   119  H    0.008923
   120  H   -0.001308
   121  H   -0.057277
   122  H    0.008700
   123  H    0.010987
   124  H   -0.017270
   125  H   -0.016211
   126  H   -0.030829
   127  H   -0.007083
   128  H   -0.003059
   129  H    0.001992
   130  H   -0.002642
   131  H   -0.033460
   132  H   -0.042721
   133  H   -0.000459
   134  H    0.000559
   135  H   -0.000550
   136  H   -0.010773
   137  H    0.145790
   138  H    0.124692
 Sum of Mulliken charges =  -0.00000

 Dipole moment (field-independent basis, Debye):
    X=              3.0879    Y=              2.4128    Z=              0.4189  Tot=              3.9411
 Quadrupole moment (field-independent basis, Debye-Ang):
   XX=           -357.2917   YY=           -376.4115   ZZ=           -397.0323
   XY=            -21.4247   XZ=              1.9577   YZ=             -4.8935

 Normal termination of Gaussian 16 at Fri Aug  9 22:38:56 2019.
