 Gaussian 16, Revision A.03,
 Gaussian 16:  ES64L-G16RevA.03 25-Dec-2016

 --------------------------
 # td=(NStates=1) B3LYP/SVP
 --------------------------

 --
 TD
 --
 Symbolic Z-matrix:
 Charge =  0 Multiplicity = 1

                         Standard orientation:
 ---------------------------------------------------------------------
 Center     Atomic      Atomic             Coordinates (Angstroms)
 Number     Number       Type             X           Y           Z
 ---------------------------------------------------------------------
      1          6           0       -5.136387   -1.958831    0.535038
      2          6           0       -4.751955    2.698998    1.313883
      3          6           0       -9.244294    3.333764   -0.130256
      4          6           0       -9.793610   -1.409965   -0.965827
      5          7           0       -5.231272    0.442743    0.709094
      6          6           0       -4.586203   -0.826693    0.841910
      7          6           0       -3.102131   -0.584252    1.211148
      8          6           0       -3.128743    0.859602    1.764385
      9          6           0       -4.457862    1.337004    1.256654
     10          6           0       -3.036635    0.896055    3.326723
     11          6           0       -2.015439   -0.819032    0.097123
     12          6           0       -0.587701   -0.685837    0.477451
     13          6           0        0.367632   -1.078285   -0.609721
     14          8           0        0.129008   -1.595702   -1.605066
     15          8           0        1.611853   -0.514757   -0.352842
     16          7           0       -7.065095    2.835367    0.447557
     17          6           0       -5.936739    3.374858    1.057077
     18          6           0       -6.187303    4.802524    1.020031
     19          6           0       -7.461664    4.967043    0.423551
     20          6           0       -7.994536    3.727001    0.161007
     21          6           0       -5.149864    5.837015    1.485995
     22          6           0       -8.096189    6.358941    0.370444
     23          6           0       -9.182063    6.642880   -0.510696
     24          7           0       -9.201606    0.922734   -0.426446
     25          6           0       -9.799512    2.135228   -0.484449
     26          6           0      -11.225641    1.907083   -0.919098
     27          6           0      -11.386779    0.553350   -1.120123
     28          6           0      -10.123247   -0.040381   -0.805072
     29          6           0      -12.253648    3.031025   -1.156717
     30          6           0      -12.618102   -0.192944   -1.635304
     31          6           0      -12.617416   -0.669159   -3.111644
     32          7           0       -7.464806   -1.310221   -0.171834
     33          6           0       -8.522634   -1.984706   -0.679900
     34          6           0       -8.178110   -3.435384   -0.710027
     35          6           0       -6.864032   -3.404691   -0.324157
     36          6           0       -6.364529   -2.129923   -0.065421
     37          6           0       -9.019865   -4.576764   -0.994875
     38          6           0       -5.720546   -4.385797    0.105856
     39          8           0       -5.701855   -5.504280    0.043260
     40          6           0       -4.489968   -3.471748    0.540983
     41          6           0       -3.899660   -3.874711    1.785612
     42          8           0       -4.038826   -3.406857    2.931340
     43          8           0       -3.012697   -4.812490    1.503000
     44          6           0       -2.255034   -5.408478    2.572525
     45          6           0        2.665782   -1.073881   -1.186115
     46          6           0        3.943689   -0.711066   -0.674826
     47          6           0        4.979740    0.054176   -1.109719
     48          6           0        4.973559    0.743885   -2.420462
     49          6           0        6.269760    0.125082   -0.299193
     50          6           0        7.478519   -0.404755   -0.928824
     51          6           0        8.746491   -0.092644   -0.094338
     52          6           0       10.052374   -0.713167   -0.824592
     53          6           0       10.027774   -2.169501   -0.956369
     54          6           0       11.298145   -0.428871    0.116485
     55          6           0       12.584131   -0.575415   -0.729163
     56          6           0       13.720871   -0.093821    0.200895
     57          6           0       15.156714   -0.196799   -0.274969
     58          6           0       15.629243   -1.656018   -0.526146
     59          6           0       16.164209    0.603961    0.479051
     60          6           0       17.556176    0.908549   -0.236871
     61          6           0       18.565945    1.526279    0.680293
     62          6           0       19.942674    1.655545    0.202940
     63          6           0       20.121117    2.291932   -1.294818
     64          6           0       20.823130    2.533591    1.115030
     65          1           0       -4.022072    3.286137    1.882772
     66          1           0      -10.000516    4.027519   -0.185646
     67          1           0      -10.458032   -2.193748   -1.277945
     68          1           0       -2.778565   -1.222005    2.018509
     69          1           0       -2.472577    1.471511    1.200494
     70          1           0       -2.137740    0.449468    3.761000
     71          1           0       -3.116170    1.965081    3.624162
     72          1           0       -3.817019    0.188751    3.602140
     73          1           0       -2.020722   -1.848513   -0.248981
     74          1           0       -2.269328   -0.069537   -0.564267
     75          1           0       -0.280710    0.363599    0.919319
     76          1           0       -0.584298   -1.216264    1.300243
     77          1           0       -4.294219    5.655194    1.016569
     78          1           0       -5.695483    6.900780    1.546949
     79          1           0       -4.721461    5.534450    2.458441
     80          1           0       -7.630761    7.185325    0.787686
     81          1           0       -9.938773    5.946564   -1.012836
     82          1           0       -9.629985    7.599797   -0.608224
     83          1           0      -12.394845    3.696686   -0.254654
     84          1           0      -11.981421    3.549096   -1.913583
     85          1           0      -13.185651    2.613470   -1.157779
     86          1           0      -12.507025   -0.973632   -0.942551
     87          1           0      -13.632136    0.502958   -1.497484
     88          1           0      -12.509669    0.223462   -3.730120
     89          1           0      -11.746618   -1.118904   -3.365933
     90          1           0      -13.586504   -1.119630   -3.318269
     91          1           0      -10.094093   -4.208689   -0.474389
     92          1           0       -8.903830   -4.979473   -2.161183
     93          1           0       -8.338232   -5.390956   -0.385735
     94          1           0       -3.585106   -3.630075   -0.186838
     95          1           0       -1.644990   -6.119251    2.118503
     96          1           0       -1.838892   -4.650396    3.133645
     97          1           0       -2.840000   -5.788091    3.325319
     98          1           0        2.456365   -2.217419   -1.137223
     99          1           0        2.384810   -0.927175   -2.428351
    100          1           0        4.120115   -1.226864    0.231297
    101          1           0        5.602307    1.748878   -2.133444
    102          1           0        5.529300    0.350714   -3.339348
    103          1           0        3.817115    1.044564   -2.721620
    104          1           0        6.354742    1.249573   -0.148729
    105          1           0        6.154787   -0.422976    0.691083
    106          1           0        7.426906   -1.448662   -1.210932
    107          1           0        7.542564    0.032855   -1.815671
    108          1           0        8.867686    0.916691    0.268726
    109          1           0        8.527006   -0.774390    0.814907
    110          1           0       10.208200   -0.123103   -1.661098
    111          1           0        9.348828   -2.568548   -1.686390
    112          1           0       10.873461   -2.689035   -1.422518
    113          1           0       10.003482   -2.938786    0.032066
    114          1           0       10.867718    0.579971    0.447487
    115          1           0       11.306605   -0.981770    1.065068
    116          1           0       12.935837   -1.714737   -0.876685
    117          1           0       12.394923   -0.088696   -1.727459
    118          1           0       13.488184    1.093402    0.448419
    119          1           0       13.597870   -0.654660    1.095679
    120          1           0       15.195893    0.461066   -1.226916
    121          1           0       15.006430   -2.349426   -1.093532
    122          1           0       16.548411   -1.812855   -1.110354
    123          1           0       15.746693   -2.173866    0.373896
    124          1           0       15.681486    1.592781    0.694903
    125          1           0       16.370814    0.148020    1.439043
    126          1           0       17.836359   -0.111669   -0.577693
    127          1           0       17.243786    1.471813   -1.153327
    128          1           0       18.244471    2.629041    1.056168
    129          1           0       18.743127    0.983267    1.691828
    130          1           0       20.244230    0.643976   -0.107410
    131          1           0       19.605182    3.236843   -1.497178
    132          1           0       21.255106    2.408504   -1.570047
    133          1           0       19.714096    1.613871   -2.130558
    134          1           0       20.743842    2.136572    2.252454
    135          1           0       21.918272    2.372597    1.079502
    136          1           0       20.742193    3.677459    1.131531
    137          1           0       -7.054410    1.728353    0.273771
    138          1           0       -7.375547   -0.199642    0.038771
 ---------------------------------------------------------------------

 SCF Done:  E(RB3LYP) =  -2733.03299760     A.U. after   17 cycles

 Excitation energies and oscillator strengths:

 Excited State   1:      Singlet-A      2.1056 eV  588.83 nm  f=0.2013  <S**2>=0.000
     235 -> 237       -0.21930
     235 -> 238        0.24195
     236 -> 237        0.60355
     236 -> 238        0.15769
 This state for optimization and/or second-order correction.
 Total Energy, E(TD-HF/TD-DFT) =  -2732.95561825
 Copying the excited state density for this state as the 1-particle RhoCI density.

 The electronic state is 1-A.
 Alpha  occ. eigenvalues --  -19.18166 -19.16259 -19.14030 -19.13476 -19.11872
 Alpha  occ. eigenvalues --  -14.36945 -14.36105 -14.32564 -14.29269 -10.31342
 Alpha  occ. eigenvalues --  -10.31143 -10.28746 -10.25489 -10.23274 -10.23254
 Alpha  occ. eigenvalues --  -10.23153 -10.22852 -10.22349 -10.22278 -10.22257
 Alpha  occ. eigenvalues --  -10.22248 -10.22138 -10.21598 -10.21372 -10.21138
 Alpha  occ. eigenvalues --  -10.20810 -10.20671 -10.20620 -10.20428 -10.20381
 Alpha  occ. eigenvalues --  -10.20374 -10.20202 -10.20198 -10.20032 -10.19757
 Alpha  occ. eigenvalues --  -10.19723 -10.19653 -10.19588 -10.19412 -10.19393
 Alpha  occ. eigenvalues --  -10.19385 -10.19262 -10.19202 -10.19196 -10.19060
 Alpha  occ. eigenvalues --  -10.19053 -10.18902 -10.18849 -10.18788 -10.18721
 Alpha  occ. eigenvalues --  -10.18593 -10.18572 -10.18466 -10.18375 -10.18323
 Alpha  occ. eigenvalues --  -10.18312 -10.17935 -10.17872 -10.17798 -10.17615
 Alpha  occ. eigenvalues --  -10.17534 -10.17348 -10.17093 -10.16957  -1.10703
 Alpha  occ. eigenvalues --   -1.10320  -1.09475  -1.01605  -0.98984  -0.98675
 Alpha  occ. eigenvalues --   -0.97924  -0.94478  -0.92395  -0.84358  -0.83080
 Alpha  occ. eigenvalues --   -0.82189  -0.81915  -0.81377  -0.80948  -0.80393
 Alpha  occ. eigenvalues --   -0.80272  -0.79741  -0.79058  -0.78446  -0.78356
 Alpha  occ. eigenvalues --   -0.77799  -0.77040  -0.75392  -0.74667  -0.74425
 Alpha  occ. eigenvalues --   -0.74172  -0.73186  -0.72754  -0.71678  -0.70960
 Alpha  occ. eigenvalues --   -0.70367  -0.69927  -0.69288  -0.67949  -0.67763
 Alpha  occ. eigenvalues --   -0.67336  -0.66296  -0.65996  -0.65963  -0.64965
 Alpha  occ. eigenvalues --   -0.64499  -0.62927  -0.62159  -0.61758  -0.61520
 Alpha  occ. eigenvalues --   -0.61167  -0.59481  -0.58826  -0.58192  -0.57659
 Alpha  occ. eigenvalues --   -0.57422  -0.56880  -0.56836  -0.55874  -0.55475
 Alpha  occ. eigenvalues --   -0.54919  -0.54632  -0.53966  -0.53684  -0.53388
 Alpha  occ. eigenvalues --   -0.52500  -0.52054  -0.51733  -0.51073  -0.50560
 Alpha  occ. eigenvalues --   -0.50065  -0.49388  -0.49167  -0.48907  -0.48774
 Alpha  occ. eigenvalues --   -0.48083  -0.48006  -0.47875  -0.47617  -0.47199
 Alpha  occ. eigenvalues --   -0.46992  -0.46750  -0.46265  -0.45954  -0.45896
 Alpha  occ. eigenvalues --   -0.45810  -0.45645  -0.45350  -0.45028  -0.44863
 Alpha  occ. eigenvalues --   -0.44779  -0.44636  -0.44387  -0.44059  -0.43991
 Alpha  occ. eigenvalues --   -0.43518  -0.43435  -0.43164  -0.43106  -0.42837
 Alpha  occ. eigenvalues --   -0.42656  -0.42521  -0.42310  -0.41917  -0.41722
 Alpha  occ. eigenvalues --   -0.41636  -0.41493  -0.41087  -0.40825  -0.40634
 Alpha  occ. eigenvalues --   -0.40191  -0.40030  -0.39673  -0.39425  -0.39082
 Alpha  occ. eigenvalues --   -0.38950  -0.38831  -0.38621  -0.38479  -0.38321
 Alpha  occ. eigenvalues --   -0.38134  -0.38046  -0.37857  -0.37656  -0.37616
 Alpha  occ. eigenvalues --   -0.37355  -0.37201  -0.37089  -0.36928  -0.36807
 Alpha  occ. eigenvalues --   -0.36711  -0.36478  -0.36343  -0.36251  -0.35752
 Alpha  occ. eigenvalues --   -0.35739  -0.35486  -0.35134  -0.34976  -0.34853
 Alpha  occ. eigenvalues --   -0.34806  -0.34657  -0.34323  -0.34118  -0.33985
 Alpha  occ. eigenvalues --   -0.33584  -0.33506  -0.33317  -0.32905  -0.32641
 Alpha  occ. eigenvalues --   -0.32557  -0.32241  -0.32163  -0.31651  -0.31558
 Alpha  occ. eigenvalues --   -0.30987  -0.30377  -0.30265  -0.29918  -0.29528
 Alpha  occ. eigenvalues --   -0.29383  -0.29028  -0.28609  -0.28261  -0.27909
 Alpha  occ. eigenvalues --   -0.27584  -0.27360  -0.26689  -0.25904  -0.25504
 Alpha  occ. eigenvalues --   -0.25008  -0.24636  -0.22944  -0.22318  -0.19933
 Alpha  occ. eigenvalues --   -0.18683
 Alpha virt. eigenvalues --   -0.10083  -0.07317  -0.03386  -0.02197  -0.01200
 Alpha virt. eigenvalues --   -0.00843   0.00437   0.00848   0.02260   0.03706
 Alpha virt. eigenvalues --    0.04071   0.04172   0.04387   0.04568   0.04924

 Mulliken charges:
               1
     1  C    0.046750
     2  C   -0.053156
     3  C   -0.047246
     4  C   -0.074277
     5  N   -0.206554
     6  C   -0.034802
     7  C   -0.031071
     8  C   -0.012006
     9  C   -0.044974
    10  C    0.090173
    11  C    0.095842
    12  C    0.063018
    13  C    0.173109
    14  O   -0.150373
    15  O   -0.344819
    16  N   -0.118674
    17  C    0.098044
    18  C   -0.170818
    19  C    0.009606
    20  C    0.173829
    21  C    0.178220
    22  C    0.024096
    23  C   -0.070074
    24  N   -0.246432
    25  C    0.007704
    26  C   -0.183004
    27  C   -0.088999
    28  C    0.093527
    29  C    0.240969
    30  C    0.021628
    31  C    0.094417
    32  N   -0.097795
    33  C    0.034074
    34  C   -0.135627
    35  C   -0.052759
    36  C    0.051793
    37  C   -0.063708
    38  C    0.083369
    39  O   -0.054016
    40  C   -0.079245
    41  C    0.194354
    42  O   -0.267110
    43  O   -0.305190
    44  C    0.300988
    45  C    0.179410
    46  C   -0.025043
    47  C   -0.115900
    48  C   -0.038484
    49  C    0.058305
    50  C    0.114176
    51  C    0.000368
    52  C   -0.020347
    53  C    0.025404
    54  C   -0.001645
    55  C    0.014046
    56  C   -0.002086
    57  C   -0.003135
    58  C    0.052299
    59  C    0.005371
    60  C    0.041781
    61  C    0.020626
    62  C   -0.058245
    63  C   -0.054506
    64  C   -0.007870
    65  H   -0.037138
    66  H   -0.093280
    67  H   -0.034374
    68  H   -0.019687
    69  H   -0.019888
    70  H    0.013602
    71  H    0.020174
    72  H    0.031774
    73  H    0.008904
    74  H   -0.017384
    75  H    0.039493
    76  H   -0.037409
    77  H   -0.022709
    78  H    0.053625
    79  H    0.002334
    80  H   -0.025985
    81  H    0.040805
    82  H    0.010039
    83  H    0.008885
    84  H   -0.023951
    85  H   -0.034066
    86  H    0.001027
    87  H    0.021619
    88  H   -0.007588
    89  H   -0.020274
    90  H    0.023332
    91  H    0.071573
    92  H    0.077171
    93  H    0.071760
    94  H    0.091569
    95  H    0.026683
    96  H   -0.009907
    97  H   -0.007105
    98  H    0.017911
    99  H    0.035421
   100  H   -0.031137
   101  H    0.016031
   102  H    0.059292
   103  H    0.055721
   104  H    0.008350
   105  H   -0.001152
   106  H   -0.009024
   107  H   -0.069848
   108  H    0.000992
   109  H   -0.002265
   110  H   -0.024986
   111  H   -0.016722
   112  H   -0.013486
   113  H    0.020981
   114  H   -0.008544
   115  H   -0.006814
   116  H    0.025248
   117  H    0.007922
   118  H    0.005991
   119  H   -0.017226
   120  H   -0.020770
   121  H   -0.006153
   122  H    0.004510
   123  H   -0.015403
   124  H   -0.010637
   125  H   -0.026383
   126  H   -0.009276
   127  H    0.007705
   128  H    0.002596
   129  H    0.009133
   130  H   -0.001276
   131  H    0.006219
   132  H    0.020384
   133  H    0.010203
   134  H    0.001579
   135  H    0.003980
   136  H    0.036309
   137  H    0.195190
   138  H    0.208504
 Sum of Mulliken charges =  -0.00000

 Dipole moment (field-independent basis, Debye):
    X=              3.2819    Y=              1.5819    Z=              0.2134  Tot=              3.6495
 Quadrupole moment (field-independent basis, Debye-Ang):
   XX=           -365.2658   YY=           -375.9416   ZZ=           -396.5956
   XY=            -26.1788   XZ=              7.4877   YZ=              0.7273

 Normal termination of Gaussian 16 at Sun Aug 11 17:02:49 2019.
