 Gaussian 16, Revision A.03,
 Gaussian 16:  ES64L-G16RevA.03 25-Dec-2016

 --------------------------
 # td=(NStates=1) B3LYP/SVP
 --------------------------

 --
 TD
 --
 Symbolic Z-matrix:
 Charge =  0 Multiplicity = 1

                         Standard orientation:
 ---------------------------------------------------------------------
 Center     Atomic      Atomic             Coordinates (Angstroms)
 Number     Number       Type             X           Y           Z
 ---------------------------------------------------------------------
      1          6           0       -5.061522   -2.024047    0.425586
      2          6           0       -4.832728    2.773142    1.556820
      3          6           0       -9.375938    3.390268   -0.250313
      4          6           0       -9.859852   -1.398724   -0.916518
      5          7           0       -5.236685    0.362198    0.918761
      6          6           0       -4.471703   -0.806156    0.848589
      7          6           0       -3.045123   -0.570506    1.318809
      8          6           0       -3.202551    0.824488    2.000000
      9          6           0       -4.509607    1.397422    1.447173
     10          6           0       -3.136479    0.834195    3.475122
     11          6           0       -2.070606   -0.602796    0.160677
     12          6           0       -0.581595   -0.719057    0.707288
     13          6           0        0.368246   -0.843699   -0.553475
     14          8           0       -0.023383   -1.125806   -1.669377
     15          8           0        1.608822   -0.764842   -0.202090
     16          7           0       -7.042249    2.848394    0.461436
     17          6           0       -5.971956    3.413347    1.076066
     18          6           0       -6.284031    4.856447    1.116601
     19          6           0       -7.503794    5.022204    0.525546
     20          6           0       -8.080590    3.654033    0.270994
     21          6           0       -5.274574    5.853405    1.669256
     22          6           0       -8.163837    6.347590    0.289489
     23          6           0       -8.952569    6.636088   -0.717168
     24          7           0       -9.214169    0.937404   -0.625015
     25          6           0       -9.838767    2.082499   -0.670606
     26          6           0      -11.249062    1.840662   -1.053625
     27          6           0      -11.370722    0.546310   -1.393316
     28          6           0      -10.044214   -0.020257   -0.974584
     29          6           0      -12.305509    2.956253   -1.411200
     30          6           0      -12.550711   -0.249117   -1.715850
     31          6           0      -12.520484   -0.771883   -3.079509
     32          7           0       -7.511430   -1.241235   -0.164689
     33          6           0       -8.545680   -2.015373   -0.680932
     34          6           0       -8.160749   -3.315983   -0.480343
     35          6           0       -6.880050   -3.362010   -0.137721
     36          6           0       -6.453903   -2.110855   -0.036761
     37          6           0       -9.116319   -4.455804   -0.942717
     38          6           0       -5.678994   -4.302788    0.016952
     39          8           0       -5.657556   -5.490380   -0.041483
     40          6           0       -4.487849   -3.330345    0.383313
     41          6           0       -3.928328   -3.759540    1.729843
     42          8           0       -4.288939   -3.477742    2.788903
     43          8           0       -3.095425   -4.927856    1.502308
     44          6           0       -2.549609   -5.567904    2.685910
     45          6           0        2.729523   -1.056706   -1.165279
     46          6           0        4.006183   -0.711311   -0.481665
     47          6           0        5.038711    0.010220   -0.936318
     48          6           0        4.860823    0.653881   -2.338592
     49          6           0        6.295412    0.145340   -0.281302
     50          6           0        7.424355   -0.498100   -1.074571
     51          6           0        8.838509   -0.319118   -0.366890
     52          6           0       10.160183   -0.895536   -0.941050
     53          6           0       10.095535   -2.331268   -1.058751
     54          6           0       11.236500   -0.282316   -0.058822
     55          6           0       12.722172   -0.672168   -0.547603
     56          6           0       13.834966    0.102336    0.163620
     57          6           0       15.273060   -0.121575   -0.409527
     58          6           0       15.683871   -1.645875   -0.573996
     59          6           0       16.307516    0.610929    0.445743
     60          6           0       17.660391    0.797806   -0.312007
     61          6           0       18.621738    1.685261    0.627276
     62          6           0       20.034352    1.701612    0.258483
     63          6           0       20.366199    2.131049   -1.178181
     64          6           0       21.016723    2.483218    1.132238
     65          1           0       -4.134642    3.329574    2.191465
     66          1           0      -10.146181    4.199783   -0.454275
     67          1           0      -10.604664   -2.151560   -1.065909
     68          1           0       -2.896472   -1.376159    2.172464
     69          1           0       -2.467642    1.569736    1.695939
     70          1           0       -2.177408    0.551589    3.702123
     71          1           0       -3.351966    1.927045    3.835380
     72          1           0       -3.973140    0.084690    3.897966
     73          1           0       -2.271019   -1.531664   -0.623260
     74          1           0       -2.186278    0.198172   -0.590799
     75          1           0       -0.273949    0.160820    1.327614
     76          1           0       -0.115724   -1.520202    1.375501
     77          1           0       -4.241186    5.390724    1.304966
     78          1           0       -5.467384    7.036569    1.307755
     79          1           0       -5.513565    5.834564    2.785565
     80          1           0       -7.912514    7.218364    0.862997
     81          1           0       -9.426153    5.994731   -1.584950
     82          1           0       -9.523824    7.747264   -0.777363
     83          1           0      -12.376837    3.419614   -0.403222
     84          1           0      -11.995184    3.858885   -2.025369
     85          1           0      -13.329913    2.459098   -1.756371
     86          1           0      -12.776506   -1.095668   -0.795849
     87          1           0      -13.541813    0.305413   -1.569061
     88          1           0      -12.645034    0.018588   -3.921542
     89          1           0      -11.731911   -1.276700   -3.198484
     90          1           0      -13.352316   -1.890861   -3.142050
     91          1           0       -9.832369   -4.624949   -0.344696
     92          1           0       -9.498596   -4.330241   -1.826267
     93          1           0       -8.593135   -5.506536   -0.983956
     94          1           0       -3.667290   -3.191634   -0.355395
     95          1           0       -1.859802   -6.490281    2.315942
     96          1           0       -1.743501   -4.861590    2.997141
     97          1           0       -3.364287   -6.175392    3.223305
     98          1           0        2.603358   -2.075386   -1.527202
     99          1           0        2.294549   -0.637025   -2.109721
    100          1           0        4.036074   -1.058429    0.601065
    101          1           0        5.489236    1.525699   -2.288361
    102          1           0        5.203926   -0.208393   -3.275235
    103          1           0        3.683203    1.287625   -2.670089
    104          1           0        6.820083    1.260783    0.096037
    105          1           0        6.530253   -0.345079    0.789877
    106          1           0        7.382136   -1.621799   -1.152105
    107          1           0        7.490835   -0.093057   -2.018806
    108          1           0        8.991614    0.782386   -0.305751
    109          1           0        8.740215   -0.744347    0.701911
    110          1           0       10.140265   -0.397441   -2.009547
    111          1           0        9.195246   -2.519549   -1.505196
    112          1           0       11.059893   -2.612492   -1.452859
    113          1           0        9.858571   -2.682544    0.035401
    114          1           0       11.189618    0.820904    0.083804
    115          1           0       11.131463   -0.849754    0.904932
    116          1           0       12.764451   -1.757545   -0.297667
    117          1           0       12.765932   -0.594301   -1.863263
    118          1           0       13.705742    1.186118   -0.017870
    119          1           0       13.873428    0.001899    1.356503
    120          1           0       15.153896    0.385257   -1.248642
    121          1           0       14.929245   -2.105726   -1.083361
    122          1           0       16.736901   -1.766547   -0.987627
    123          1           0       15.451378   -2.291284    0.402729
    124          1           0       15.964373    1.674259    0.575944
    125          1           0       16.264473    0.288380    1.380919
    126          1           0       18.157253   -0.030133   -0.390825
    127          1           0       17.501749    1.198519   -1.223942
    128          1           0       18.301478    2.829765    0.600558
    129          1           0       18.468514    1.332151    1.746151
    130          1           0       20.375135    0.571915    0.352766
    131          1           0       20.092913    3.065351   -1.450346
    132          1           0       21.559304    1.878594   -1.404799
    133          1           0       19.808767    1.276893   -1.961017
    134          1           0       20.996662    2.255588    2.251853
    135          1           0       21.980794    2.347988    0.655287
    136          1           0       20.781319    3.532082    1.144813
    137          1           0       -7.148766    1.796712    0.470938
    138          1           0       -7.739466   -0.179258   -0.197294
 ---------------------------------------------------------------------

 SCF Done:  E(RB3LYP) =  -2732.91691081     A.U. after   18 cycles

 Excitation energies and oscillator strengths:

 Excited State   1:      Singlet-A      2.1075 eV  588.31 nm  f=0.1612  <S**2>=0.000
     235 -> 238        0.31012
     236 -> 237        0.62759
 This state for optimization and/or second-order correction.
 Total Energy, E(TD-HF/TD-DFT) =  -2732.83946261
 Copying the excited state density for this state as the 1-particle RhoCI density.

 The electronic state is 1-A.
 Alpha  occ. eigenvalues --  -19.17767 -19.15083 -19.13899 -19.13102 -19.11531
 Alpha  occ. eigenvalues --  -14.37977 -14.35671 -14.32175 -14.30515 -10.31536
 Alpha  occ. eigenvalues --  -10.31025 -10.28758 -10.25951 -10.25129 -10.24844
 Alpha  occ. eigenvalues --  -10.24492 -10.23403 -10.22941 -10.22899 -10.22696
 Alpha  occ. eigenvalues --  -10.22219 -10.22077 -10.21971 -10.21552 -10.21514
 Alpha  occ. eigenvalues --  -10.21411 -10.21383 -10.21381 -10.21370 -10.21330
 Alpha  occ. eigenvalues --  -10.21059 -10.20931 -10.20893 -10.20885 -10.20864
 Alpha  occ. eigenvalues --  -10.20706 -10.20473 -10.20402 -10.20375 -10.20346
 Alpha  occ. eigenvalues --  -10.20291 -10.20245 -10.19888 -10.19460 -10.19392
 Alpha  occ. eigenvalues --  -10.19384 -10.19375 -10.19331 -10.19237 -10.19230
 Alpha  occ. eigenvalues --  -10.19191 -10.19102 -10.19033 -10.19029 -10.18693
 Alpha  occ. eigenvalues --  -10.18305 -10.17865 -10.17836 -10.17734 -10.17582
 Alpha  occ. eigenvalues --  -10.17279 -10.16833 -10.16734 -10.16507  -1.09847
 Alpha  occ. eigenvalues --   -1.09384  -1.04491  -0.99902  -0.99805  -0.99557
 Alpha  occ. eigenvalues --   -0.98158  -0.96082  -0.92771  -0.85681  -0.83924
 Alpha  occ. eigenvalues --   -0.82526  -0.81748  -0.81639  -0.81089  -0.80463
 Alpha  occ. eigenvalues --   -0.80254  -0.80081  -0.79900  -0.78551  -0.78112
 Alpha  occ. eigenvalues --   -0.77123  -0.75936  -0.75529  -0.75309  -0.74512
 Alpha  occ. eigenvalues --   -0.73723  -0.72789  -0.72081  -0.71716  -0.70287
 Alpha  occ. eigenvalues --   -0.69811  -0.68592  -0.68108  -0.67851  -0.67302
 Alpha  occ. eigenvalues --   -0.67144  -0.66669  -0.66282  -0.66174  -0.65556
 Alpha  occ. eigenvalues --   -0.63672  -0.62913  -0.61924  -0.61596  -0.61271
 Alpha  occ. eigenvalues --   -0.61080  -0.60363  -0.58667  -0.58030  -0.57891
 Alpha  occ. eigenvalues --   -0.56992  -0.56374  -0.55175  -0.55070  -0.54599
 Alpha  occ. eigenvalues --   -0.54338  -0.54143  -0.53917  -0.53765  -0.53258
 Alpha  occ. eigenvalues --   -0.52635  -0.52447  -0.51229  -0.50934  -0.50059
 Alpha  occ. eigenvalues --   -0.49378  -0.49257  -0.48602  -0.48504  -0.48200
 Alpha  occ. eigenvalues --   -0.48061  -0.47605  -0.47570  -0.47309  -0.47027
 Alpha  occ. eigenvalues --   -0.46800  -0.46683  -0.46580  -0.46328  -0.45970
 Alpha  occ. eigenvalues --   -0.45601  -0.45305  -0.45170  -0.44912  -0.44574
 Alpha  occ. eigenvalues --   -0.44411  -0.44186  -0.44051  -0.43875  -0.43805
 Alpha  occ. eigenvalues --   -0.43549  -0.43423  -0.43407  -0.43095  -0.42517
 Alpha  occ. eigenvalues --   -0.42469  -0.42260  -0.41969  -0.41856  -0.41719
 Alpha  occ. eigenvalues --   -0.41641  -0.41385  -0.40957  -0.40857  -0.40785
 Alpha  occ. eigenvalues --   -0.40542  -0.40449  -0.40120  -0.39912  -0.39566
 Alpha  occ. eigenvalues --   -0.39347  -0.39205  -0.39078  -0.38847  -0.38625
 Alpha  occ. eigenvalues --   -0.38505  -0.38287  -0.38148  -0.37973  -0.37779
 Alpha  occ. eigenvalues --   -0.37550  -0.37270  -0.37087  -0.36571  -0.36481
 Alpha  occ. eigenvalues --   -0.36225  -0.36215  -0.36005  -0.35826  -0.35623
 Alpha  occ. eigenvalues --   -0.35494  -0.35316  -0.35248  -0.34700  -0.34607
 Alpha  occ. eigenvalues --   -0.33926  -0.33785  -0.33695  -0.33645  -0.33350
 Alpha  occ. eigenvalues --   -0.32756  -0.32664  -0.32455  -0.32306  -0.32075
 Alpha  occ. eigenvalues --   -0.31774  -0.31660  -0.31633  -0.31454  -0.31272
 Alpha  occ. eigenvalues --   -0.31007  -0.31000  -0.30496  -0.30268  -0.30134
 Alpha  occ. eigenvalues --   -0.29779  -0.29305  -0.28708  -0.28431  -0.27972
 Alpha  occ. eigenvalues --   -0.27309  -0.27029  -0.26338  -0.25922  -0.25665
 Alpha  occ. eigenvalues --   -0.25616  -0.25340  -0.24819  -0.23686  -0.19711
 Alpha  occ. eigenvalues --   -0.18975
 Alpha virt. eigenvalues --   -0.10082  -0.07444  -0.03802  -0.02531  -0.02035
 Alpha virt. eigenvalues --   -0.00409   0.00642   0.01450   0.01804   0.02046
 Alpha virt. eigenvalues --    0.02641   0.03674   0.03694   0.04084   0.04418

 Mulliken charges:
               1
     1  C   -0.036154
     2  C   -0.082724
     3  C   -0.096559
     4  C   -0.070077
     5  N   -0.197445
     6  C   -0.090371
     7  C   -0.009908
     8  C   -0.050858
     9  C   -0.009325
    10  C    0.074176
    11  C    0.035860
    12  C   -0.013211
    13  C    0.154675
    14  O   -0.261775
    15  O   -0.296104
    16  N   -0.027828
    17  C    0.103209
    18  C   -0.127311
    19  C    0.013902
    20  C    0.100037
    21  C    0.000842
    22  C    0.014302
    23  C   -0.134822
    24  N   -0.153331
    25  C    0.002057
    26  C   -0.153266
    27  C   -0.046719
    28  C    0.075607
    29  C    0.021980
    30  C   -0.022278
    31  C    0.058450
    32  N   -0.103520
    33  C    0.019654
    34  C   -0.226461
    35  C    0.017412
    36  C    0.109726
    37  C    0.221119
    38  C    0.109393
    39  O   -0.114289
    40  C    0.011496
    41  C    0.187187
    42  O   -0.140487
    43  O   -0.383482
    44  C    0.143096
    45  C    0.255300
    46  C   -0.060311
    47  C   -0.018619
    48  C   -0.069474
    49  C   -0.048930
    50  C    0.067345
    51  C   -0.093671
    52  C   -0.102633
    53  C    0.138791
    54  C    0.033736
    55  C   -0.054165
    56  C   -0.000590
    57  C   -0.003979
    58  C    0.045079
    59  C    0.053267
    60  C    0.172338
    61  C   -0.024897
    62  C   -0.108673
    63  C   -0.039199
    64  C    0.066096
    65  H   -0.013565
    66  H    0.003907
    67  H   -0.019829
    68  H    0.039048
    69  H   -0.022297
    70  H   -0.004398
    71  H    0.017071
    72  H    0.044193
    73  H    0.049219
    74  H    0.023522
    75  H    0.020536
    76  H    0.041389
    77  H    0.066698
    78  H    0.052781
    79  H    0.054361
    80  H   -0.003416
    81  H    0.053027
    82  H    0.036816
    83  H    0.022989
    84  H    0.037057
    85  H    0.041467
    86  H    0.035147
    87  H    0.006183
    88  H    0.042814
    89  H   -0.047001
    90  H   -0.005824
    91  H   -0.051390
    92  H   -0.025579
    93  H    0.024332
    94  H    0.058094
    95  H    0.025636
    96  H    0.036949
    97  H    0.062879
    98  H    0.021878
    99  H    0.026199
   100  H    0.014604
   101  H    0.026722
   102  H    0.070745
   103  H    0.058203
   104  H    0.029071
   105  H    0.015447
   106  H    0.007954
   107  H   -0.018987
   108  H   -0.005955
   109  H   -0.005809
   110  H   -0.007722
   111  H   -0.021971
   112  H    0.024088
   113  H   -0.009017
   114  H    0.006657
   115  H   -0.003547
   116  H    0.015471
   117  H    0.021069
   118  H   -0.008106
   119  H    0.008713
   120  H   -0.059758
   121  H   -0.022496
   122  H    0.035097
   123  H    0.002291
   124  H   -0.026081
   125  H   -0.055022
   126  H   -0.050592
   127  H   -0.027498
   128  H   -0.005564
   129  H    0.013958
   130  H   -0.002407
   131  H    0.000556
   132  H    0.032404
   133  H    0.018514
   134  H    0.007578
   135  H    0.003099
   136  H   -0.013399
   137  H    0.172757
   138  H    0.175352
 Sum of Mulliken charges =  -0.00000

 Dipole moment (field-independent basis, Debye):
    X=              4.2761    Y=              4.9969    Z=              1.1190  Tot=              6.6713
 Quadrupole moment (field-independent basis, Debye-Ang):
   XX=           -372.5559   YY=           -386.5803   ZZ=           -397.5256
   XY=            -30.1796   XZ=              0.5905   YZ=              0.0372

 Normal termination of Gaussian 16 at Sat Aug 17 10:17:34 2019.
