 Gaussian 16, Revision A.03,
 Gaussian 16:  ES64L-G16RevA.03 25-Dec-2016

 --------------------------
 # td=(NStates=1) B3LYP/SVP
 --------------------------

 --
 TD
 --
 Symbolic Z-matrix:
 Charge =  0 Multiplicity = 1

                         Standard orientation:
 ---------------------------------------------------------------------
 Center     Atomic      Atomic             Coordinates (Angstroms)
 Number     Number       Type             X           Y           Z
 ---------------------------------------------------------------------
      1          6           0       -5.095641   -1.897598    0.414325
      2          6           0       -4.828379    2.827425    1.470084
      3          6           0       -9.396535    3.290139   -0.126498
      4          6           0       -9.805430   -1.493723   -1.076124
      5          7           0       -5.130803    0.535326    0.696795
      6          6           0       -4.508420   -0.714473    0.849444
      7          6           0       -3.016232   -0.558302    1.241044
      8          6           0       -3.133383    0.856373    1.928331
      9          6           0       -4.359567    1.422723    1.331189
     10          6           0       -3.081984    0.972385    3.508797
     11          6           0       -1.990479   -0.651893    0.131333
     12          6           0       -0.525827   -0.646620    0.631968
     13          6           0        0.399893   -0.922956   -0.659330
     14          8           0        0.032120   -1.463759   -1.625903
     15          8           0        1.627537   -0.543891   -0.349528
     16          7           0       -7.098032    2.722440    0.514099
     17          6           0       -6.001695    3.393626    1.079585
     18          6           0       -6.276209    4.808354    1.066382
     19          6           0       -7.565793    4.974799    0.610750
     20          6           0       -8.086389    3.613566    0.263300
     21          6           0       -5.334473    5.791789    1.680911
     22          6           0       -8.303988    6.279704    0.383846
     23          6           0       -9.115237    6.603988   -0.675660
     24          7           0       -9.226993    0.759822   -0.434519
     25          6           0       -9.897694    1.972771   -0.508195
     26          6           0      -11.275936    1.739572   -0.948482
     27          6           0      -11.350188    0.474100   -1.239848
     28          6           0      -10.058579   -0.134429   -0.916004
     29          6           0      -12.252715    2.871493   -1.131777
     30          6           0      -12.524155   -0.346641   -1.834913
     31          6           0      -12.295784   -0.506971   -3.433139
     32          7           0       -7.437634   -1.290641   -0.228248
     33          6           0       -8.517305   -2.031012   -0.813181
     34          6           0       -8.059547   -3.506313   -0.674106
     35          6           0       -6.730943   -3.442688   -0.252698
     36          6           0       -6.402346   -2.079439   -0.064656
     37          6           0       -8.853442   -4.676681   -1.043857
     38          6           0       -5.656726   -4.361306   -0.003893
     39          8           0       -5.527488   -5.552604   -0.126721
     40          6           0       -4.534493   -3.343754    0.471492
     41          6           0       -3.997262   -3.814736    1.834869
     42          8           0       -4.167223   -3.316930    2.893325
     43          8           0       -3.135949   -4.857669    1.780436
     44          6           0       -2.637450   -5.387339    3.044705
     45          6           0        2.613779   -0.929753   -1.305617
     46          6           0        3.934301   -0.557649   -0.608740
     47          6           0        5.017294    0.070175   -1.185783
     48          6           0        4.988249    0.679633   -2.630174
     49          6           0        6.293558    0.408085   -0.383720
     50          6           0        7.483711   -0.325308   -0.926537
     51          6           0        8.804671   -0.091011   -0.094086
     52          6           0       10.097072   -0.620539   -0.731540
     53          6           0       10.026571   -2.140286   -0.927026
     54          6           0       11.248808   -0.186757    0.081019
     55          6           0       12.652887   -0.511301   -0.505700
     56          6           0       13.836673   -0.007905    0.302015
     57          6           0       15.248780   -0.368327   -0.261422
     58          6           0       15.504701   -1.829991   -0.332088
     59          6           0       16.277980    0.471639    0.437867
     60          6           0       17.624605    0.468188   -0.182086
     61          6           0       18.618664    1.529479    0.420482
     62          6           0       20.092476    1.580379    0.118888
     63          6           0       20.162599    2.057220   -1.321613
     64          6           0       20.718115    2.645756    0.943893
     65          1           0       -4.129291    3.453052    2.212794
     66          1           0       -9.977569    4.042574   -0.148108
     67          1           0      -10.682417   -2.173526   -1.346040
     68          1           0       -2.964104   -1.266686    2.069917
     69          1           0       -2.430512    1.500186    1.634116
     70          1           0       -2.302579    0.486732    3.872032
     71          1           0       -3.304602    1.997565    3.775382
     72          1           0       -4.034593    0.339219    3.902497
     73          1           0       -2.263151   -1.867510   -0.301885
     74          1           0       -2.083688    0.031841   -0.816501
     75          1           0       -0.296454    0.303916    1.100380
     76          1           0       -0.345046   -1.312903    1.399478
     77          1           0       -4.439229    5.846434    0.936456
     78          1           0       -5.727092    6.883412    1.980272
     79          1           0       -5.028300    5.207730    2.590095
     80          1           0       -8.011334    7.128202    1.001181
     81          1           0       -9.345652    6.095334   -1.551721
     82          1           0       -9.479579    7.600078   -0.675190
     83          1           0      -12.702940    3.243475   -0.092211
     84          1           0      -11.836138    3.650664   -1.777249
     85          1           0      -13.167281    2.424056   -1.658810
     86          1           0      -12.717129   -1.364181   -1.270777
     87          1           0      -13.466679    0.302721   -1.746317
     88          1           0      -11.820513    0.543571   -3.912789
     89          1           0      -11.418269   -1.105467   -3.900489
     90          1           0      -13.307500   -0.652644   -4.009059
     91          1           0       -9.822582   -4.669409   -0.497301
     92          1           0       -9.430205   -4.758173   -2.199600
     93          1           0       -8.182048   -5.523122   -0.877379
     94          1           0       -3.697627   -3.508496   -0.027619
     95          1           0       -2.087325   -6.133887    2.706719
     96          1           0       -2.227580   -4.588542    3.676690
     97          1           0       -3.682076   -5.840053    3.626735
     98          1           0        2.636475   -2.042331   -1.369458
     99          1           0        2.160249   -0.363154   -2.144527
    100          1           0        3.734484   -0.914242    0.489773
    101          1           0        5.233696    1.684214   -2.762883
    102          1           0        5.671722    0.070917   -3.316481
    103          1           0        4.014858    0.704475   -3.336488
    104          1           0        6.529848    1.505736   -0.229621
    105          1           0        6.080076    0.017394    0.690845
    106          1           0        7.396766   -1.363439   -1.251891
    107          1           0        7.802407    0.187551   -1.767695
    108          1           0        9.125713    0.944920    0.051469
    109          1           0        8.863034   -0.556095    0.901628
    110          1           0       10.133312   -0.113771   -1.751941
    111          1           0        9.187020   -2.489342   -1.640239
    112          1           0       11.057546   -2.696721   -1.419984
    113          1           0        9.958888   -2.639312   -0.000144
    114          1           0       11.286310    0.776594    0.498228
    115          1           0       11.248513   -0.760276    1.067732
    116          1           0       12.892742   -1.667352   -0.575055
    117          1           0       12.794547   -0.060633   -1.515015
    118          1           0       13.754180    1.096272    0.106871
    119          1           0       13.509873   -0.272945    1.400691
    120          1           0       15.135897   -0.105681   -1.401844
    121          1           0       14.676194   -2.280730   -0.833632
    122          1           0       16.490172   -1.763762   -0.905176
    123          1           0       15.710035   -2.088309    0.674485
    124          1           0       15.871360    1.570199    0.410644
    125          1           0       16.618328    0.306028    1.456995
    126          1           0       17.877685   -0.587029   -0.220704
    127          1           0       17.518144    0.741629   -1.271700
    128          1           0       18.250757    2.526962    0.395122
    129          1           0       18.598198    1.256874    1.622644
    130          1           0       20.546463    0.610485    0.463465
    131          1           0       19.747449    2.952370   -1.472273
    132          1           0       21.240828    2.261732   -1.503447
    133          1           0       19.734831    1.433610   -2.014326
    134          1           0       20.716450    2.432922    2.016285
    135          1           0       21.912489    2.671794    0.764909
    136          1           0       20.143945    3.663133    0.780727
    137          1           0       -7.152348    1.781914    0.250775
    138          1           0       -7.726757   -0.264504   -0.112357
 ---------------------------------------------------------------------

 SCF Done:  E(RB3LYP) =  -2733.09225788     A.U. after   16 cycles

 Excitation energies and oscillator strengths:

 Excited State   1:      Singlet-A      2.0457 eV  606.07 nm  f=0.1888  <S**2>=0.000
     235 -> 237       -0.13521
     235 -> 238       -0.26646
     236 -> 237        0.62261
     236 -> 238       -0.14800
 This state for optimization and/or second-order correction.
 Total Energy, E(TD-HF/TD-DFT) =  -2733.01707972
 Copying the excited state density for this state as the 1-particle RhoCI density.

 The electronic state is 1-A.
 Alpha  occ. eigenvalues --  -19.17890 -19.16173 -19.13157 -19.12398 -19.11370
 Alpha  occ. eigenvalues --  -14.36854 -14.36601 -14.32242 -14.30259 -10.31463
 Alpha  occ. eigenvalues --  -10.30508 -10.27684 -10.25195 -10.24625 -10.23894
 Alpha  occ. eigenvalues --  -10.23799 -10.23513 -10.23167 -10.23129 -10.22757
 Alpha  occ. eigenvalues --  -10.21912 -10.21830 -10.21829 -10.21819 -10.21731
 Alpha  occ. eigenvalues --  -10.21643 -10.21588 -10.21096 -10.21021 -10.20776
 Alpha  occ. eigenvalues --  -10.20699 -10.20597 -10.20588 -10.20411 -10.20402
 Alpha  occ. eigenvalues --  -10.20395 -10.20364 -10.20256 -10.20169 -10.20139
 Alpha  occ. eigenvalues --  -10.20011 -10.19692 -10.19490 -10.19296 -10.19277
 Alpha  occ. eigenvalues --  -10.19196 -10.19162 -10.19035 -10.19033 -10.18790
 Alpha  occ. eigenvalues --  -10.18699 -10.18643 -10.18498 -10.18434 -10.18351
 Alpha  occ. eigenvalues --  -10.18291 -10.18290 -10.18205 -10.18154 -10.17945
 Alpha  occ. eigenvalues --  -10.17719 -10.17604 -10.17314 -10.15969  -1.11684
 Alpha  occ. eigenvalues --   -1.09262  -1.03430  -1.03166  -0.99571  -0.98028
 Alpha  occ. eigenvalues --   -0.97706  -0.94465  -0.93762  -0.84645  -0.83074
 Alpha  occ. eigenvalues --   -0.82486  -0.82026  -0.81396  -0.80825  -0.80529
 Alpha  occ. eigenvalues --   -0.80194  -0.79635  -0.79291  -0.78225  -0.77755
 Alpha  occ. eigenvalues --   -0.76827  -0.76082  -0.75532  -0.75069  -0.73965
 Alpha  occ. eigenvalues --   -0.73306  -0.73021  -0.72187  -0.71888  -0.70574
 Alpha  occ. eigenvalues --   -0.69833  -0.69292  -0.68287  -0.68054  -0.67624
 Alpha  occ. eigenvalues --   -0.67361  -0.67121  -0.66559  -0.65556  -0.65015
 Alpha  occ. eigenvalues --   -0.64129  -0.63193  -0.62674  -0.61878  -0.61082
 Alpha  occ. eigenvalues --   -0.60476  -0.59506  -0.58279  -0.57947  -0.57089
 Alpha  occ. eigenvalues --   -0.56219  -0.56045  -0.55995  -0.55804  -0.55567
 Alpha  occ. eigenvalues --   -0.54678  -0.54511  -0.54239  -0.53794  -0.53436
 Alpha  occ. eigenvalues --   -0.52256  -0.52046  -0.51483  -0.50790  -0.50671
 Alpha  occ. eigenvalues --   -0.50239  -0.49256  -0.48831  -0.48445  -0.48136
 Alpha  occ. eigenvalues --   -0.47921  -0.47618  -0.47298  -0.47170  -0.46964
 Alpha  occ. eigenvalues --   -0.46687  -0.46491  -0.46103  -0.45964  -0.45692
 Alpha  occ. eigenvalues --   -0.45599  -0.45289  -0.45133  -0.44922  -0.44753
 Alpha  occ. eigenvalues --   -0.44705  -0.44449  -0.44315  -0.43827  -0.43735
 Alpha  occ. eigenvalues --   -0.43454  -0.43434  -0.43264  -0.42911  -0.42831
 Alpha  occ. eigenvalues --   -0.42654  -0.42421  -0.42229  -0.42127  -0.41568
 Alpha  occ. eigenvalues --   -0.41308  -0.41088  -0.41000  -0.40520  -0.40328
 Alpha  occ. eigenvalues --   -0.40195  -0.39910  -0.39900  -0.39429  -0.39295
 Alpha  occ. eigenvalues --   -0.38996  -0.38813  -0.38710  -0.38695  -0.38461
 Alpha  occ. eigenvalues --   -0.38307  -0.38219  -0.37948  -0.37878  -0.37493
 Alpha  occ. eigenvalues --   -0.37405  -0.37333  -0.37091  -0.37067  -0.36777
 Alpha  occ. eigenvalues --   -0.36629  -0.36444  -0.36274  -0.35886  -0.35672
 Alpha  occ. eigenvalues --   -0.35572  -0.35499  -0.35225  -0.35104  -0.34993
 Alpha  occ. eigenvalues --   -0.34863  -0.34527  -0.34259  -0.34060  -0.33310
 Alpha  occ. eigenvalues --   -0.33240  -0.32985  -0.32858  -0.32563  -0.32267
 Alpha  occ. eigenvalues --   -0.31933  -0.31663  -0.31484  -0.31409  -0.31265
 Alpha  occ. eigenvalues --   -0.30784  -0.30684  -0.30469  -0.30149  -0.29924
 Alpha  occ. eigenvalues --   -0.29258  -0.29176  -0.28914  -0.28646  -0.28140
 Alpha  occ. eigenvalues --   -0.27350  -0.27082  -0.26879  -0.26005  -0.25570
 Alpha  occ. eigenvalues --   -0.25176  -0.24945  -0.24350  -0.23703  -0.20038
 Alpha  occ. eigenvalues --   -0.18071
 Alpha virt. eigenvalues --   -0.09642  -0.07611  -0.04500  -0.02138  -0.00546
 Alpha virt. eigenvalues --    0.00669   0.01330   0.01482   0.01758   0.03780
 Alpha virt. eigenvalues --    0.03913   0.04037   0.04482   0.04540   0.04767

 Mulliken charges:
               1
     1  C    0.073560
     2  C   -0.133427
     3  C    0.027727
     4  C   -0.100098
     5  N   -0.180595
     6  C   -0.117243
     7  C    0.021125
     8  C    0.019919
     9  C   -0.054568
    10  C    0.107893
    11  C   -0.014384
    12  C    0.072423
    13  C    0.144425
    14  O   -0.181770
    15  O   -0.296641
    16  N   -0.026385
    17  C    0.143963
    18  C   -0.108451
    19  C    0.012225
    20  C    0.049755
    21  C    0.031254
    22  C   -0.037290
    23  C    0.001357
    24  N   -0.239569
    25  C    0.066171
    26  C   -0.134230
    27  C   -0.081686
    28  C    0.044891
    29  C    0.074428
    30  C    0.041225
    31  C   -0.102794
    32  N   -0.055948
    33  C    0.068040
    34  C   -0.105896
    35  C   -0.032631
    36  C    0.092894
    37  C    0.010280
    38  C    0.081579
    39  O   -0.148545
    40  C    0.017684
    41  C    0.149891
    42  O   -0.211148
    43  O   -0.326313
    44  C    0.194711
    45  C    0.242295
    46  C   -0.130082
    47  C   -0.069840
    48  C    0.010685
    49  C    0.062698
    50  C    0.085424
    51  C    0.011567
    52  C   -0.055879
    53  C   -0.018830
    54  C    0.062619
    55  C   -0.032425
    56  C   -0.000722
    57  C   -0.111360
    58  C    0.092968
    59  C    0.024040
    60  C    0.062881
    61  C   -0.030388
    62  C   -0.050980
    63  C    0.154996
    64  C   -0.025696
    65  H    0.009253
    66  H   -0.139405
    67  H    0.011669
    68  H   -0.002267
    69  H   -0.054548
    70  H   -0.011693
    71  H    0.012820
    72  H    0.028017
    73  H    0.042850
    74  H    0.043324
    75  H    0.009024
    76  H   -0.000599
    77  H    0.048281
    78  H    0.050826
    79  H    0.047122
    80  H    0.000746
    81  H    0.011564
    82  H    0.014209
    83  H    0.041708
    84  H    0.032193
    85  H    0.007357
    86  H    0.039754
    87  H    0.013646
    88  H    0.020501
    89  H    0.041072
    90  H    0.037761
    91  H    0.030684
    92  H    0.045572
    93  H    0.050570
    94  H   -0.020097
    95  H    0.007654
    96  H    0.045561
    97  H    0.044840
    98  H    0.036017
    99  H    0.032864
   100  H    0.031166
   101  H    0.011333
   102  H    0.031121
   103  H    0.017988
   104  H    0.018518
   105  H    0.005426
   106  H    0.006105
   107  H   -0.029160
   108  H   -0.011928
   109  H   -0.019363
   110  H   -0.008790
   111  H    0.027119
   112  H    0.022227
   113  H   -0.004329
   114  H   -0.030106
   115  H   -0.019392
   116  H    0.011475
   117  H   -0.010082
   118  H   -0.010055
   119  H    0.004723
   120  H   -0.009110
   121  H    0.013292
   122  H    0.014307
   123  H   -0.006150
   124  H   -0.006117
   125  H   -0.009631
   126  H   -0.011911
   127  H   -0.021129
   128  H   -0.021734
   129  H   -0.017479
   130  H   -0.000243
   131  H   -0.046111
   132  H   -0.009815
   133  H   -0.013313
   134  H   -0.001391
   135  H    0.020912
   136  H    0.020390
   137  H    0.112882
   138  H    0.177728
 Sum of Mulliken charges =  -0.00000

 Dipole moment (field-independent basis, Debye):
    X=              2.8543    Y=              5.2755    Z=              0.6841  Tot=              6.0370
 Quadrupole moment (field-independent basis, Debye-Ang):
   XX=           -361.4323   YY=           -385.4243   ZZ=           -392.7849
   XY=            -24.5125   XZ=              7.2894   YZ=             -4.2935

 Normal termination of Gaussian 16 at Wed Aug 28 00:24:47 2019.
