 Gaussian 16, Revision A.03,
 Gaussian 16:  ES64L-G16RevA.03 25-Dec-2016

 --------------------------
 # td=(NStates=1) B3LYP/SVP
 --------------------------

 --
 TD
 --
 Symbolic Z-matrix:
 Charge =  0 Multiplicity = 1

                         Standard orientation:
 ---------------------------------------------------------------------
 Center     Atomic      Atomic             Coordinates (Angstroms)
 Number     Number       Type             X           Y           Z
 ---------------------------------------------------------------------
      1          6           0       -5.158395   -1.937335    0.509072
      2          6           0       -4.799849    2.867784    1.450475
      3          6           0       -9.340147    3.315610   -0.255953
      4          6           0       -9.908673   -1.373085   -0.896898
      5          7           0       -5.244730    0.513680    0.885964
      6          6           0       -4.509221   -0.677656    0.857601
      7          6           0       -3.059168   -0.514858    1.274498
      8          6           0       -3.028234    0.962162    1.791739
      9          6           0       -4.392229    1.528309    1.449085
     10          6           0       -2.825574    1.163733    3.363805
     11          6           0       -2.019908   -0.770022    0.133240
     12          6           0       -0.535116   -0.837609    0.587016
     13          6           0        0.377696   -1.144417   -0.381685
     14          8           0        0.206776   -1.408268   -1.571155
     15          8           0        1.663965   -0.996964    0.037428
     16          7           0       -7.091449    2.738117    0.551852
     17          6           0       -5.915460    3.404594    0.956814
     18          6           0       -6.270615    4.782176    1.027695
     19          6           0       -7.539636    5.001756    0.491814
     20          6           0       -8.067624    3.595987    0.265594
     21          6           0       -5.318140    5.929630    1.452397
     22          6           0       -8.249701    6.248801    0.173855
     23          6           0       -9.188443    6.536602   -0.761996
     24          7           0       -9.199935    0.949607   -0.437190
     25          6           0       -9.872900    2.029250   -0.546630
     26          6           0      -11.266060    1.946643   -1.031308
     27          6           0      -11.356520    0.577828   -1.211684
     28          6           0      -10.100241   -0.047883   -0.853399
     29          6           0      -12.314740    2.974085   -1.228365
     30          6           0      -12.517966   -0.127117   -1.822855
     31          6           0      -12.411423   -0.640456   -3.267074
     32          7           0       -7.504055   -1.280974   -0.358423
     33          6           0       -8.599229   -2.032827   -0.619818
     34          6           0       -8.223870   -3.433681   -0.608801
     35          6           0       -6.889636   -3.419192   -0.174790
     36          6           0       -6.506752   -2.076940    0.143855
     37          6           0       -9.002293   -4.603290   -1.032479
     38          6           0       -5.755208   -4.242592   -0.040485
     39          8           0       -5.709066   -5.448988   -0.099725
     40          6           0       -4.571521   -3.320949    0.584093
     41          6           0       -3.982450   -3.869627    1.866356
     42          8           0       -4.199109   -3.442468    2.982929
     43          8           0       -3.075603   -4.814541    1.503247
     44          6           0       -2.506483   -5.375277    2.713719
     45          6           0        2.627881   -1.165958   -0.955023
     46          6           0        4.027199   -0.781257   -0.389709
     47          6           0        4.957442   -0.139882   -1.021373
     48          6           0        4.808974    0.485410   -2.362966
     49          6           0        6.298067    0.194118   -0.350124
     50          6           0        7.441402   -0.458529   -1.068208
     51          6           0        8.769677   -0.449465   -0.301334
     52          6           0       10.124735   -0.857825   -0.928327
     53          6           0       10.122336   -2.409845   -0.964283
     54          6           0       11.273389   -0.256328   -0.103826
     55          6           0       12.675228   -0.673643   -0.577476
     56          6           0       13.908105    0.009436    0.174526
     57          6           0       15.238075   -0.162900   -0.462374
     58          6           0       15.722212   -1.761107   -0.605365
     59          6           0       16.267423    0.585374    0.432504
     60          6           0       17.643730    0.906571   -0.288184
     61          6           0       18.469353    1.879769    0.625413
     62          6           0       19.987713    1.847972    0.263483
     63          6           0       20.300596    2.142514   -1.247761
     64          6           0       20.717854    2.765603    1.257225
     65          1           0       -3.923682    3.587334    1.867093
     66          1           0      -10.098707    4.303704   -0.340918
     67          1           0      -10.460088   -2.172012   -1.065615
     68          1           0       -2.719328   -1.194951    2.187581
     69          1           0       -2.159772    1.526464    1.293275
     70          1           0       -1.737397    0.659325    3.602476
     71          1           0       -2.432735    2.468912    3.559549
     72          1           0       -3.724753    0.946090    3.915183
     73          1           0       -2.358955   -1.693336   -0.599677
     74          1           0       -2.151647    0.113835   -0.592529
     75          1           0       -0.200912    0.045495    1.066846
     76          1           0       -0.394346   -1.678859    1.350882
     77          1           0       -4.709773    6.169126    0.546595
     78          1           0       -5.948809    6.784464    1.785229
     79          1           0       -4.890341    5.619507    2.254651
     80          1           0       -8.072732    7.063747    0.863766
     81          1           0       -9.636596    5.760116   -1.348683
     82          1           0       -9.597005    7.601498   -1.119460
     83          1           0      -12.516502    3.538363   -0.334230
     84          1           0      -12.271934    3.579227   -2.023721
     85          1           0      -13.130025    2.290070   -1.544611
     86          1           0      -12.648278   -1.059384   -0.719537
     87          1           0      -13.428972    0.567471   -1.608971
     88          1           0      -11.994853    0.327157   -4.017810
     89          1           0      -11.674282   -1.431167   -3.191361
     90          1           0      -13.537127   -1.110551   -3.900424
     91          1           0       -9.807219   -4.740313   -0.276860
     92          1           0       -9.312156   -4.713671   -2.155728
     93          1           0       -8.358405   -5.505450   -0.847904
     94          1           0       -3.744562   -3.228359   -0.184858
     95          1           0       -2.049491   -6.432510    2.358660
     96          1           0       -1.791650   -4.719015    3.012027
     97          1           0       -3.298085   -5.650033    3.606644
     98          1           0        2.754659   -2.347445   -1.198939
     99          1           0        2.320013   -0.650078   -1.924765
    100          1           0        4.218240   -1.020230    0.811576
    101          1           0        5.097913    1.572573   -2.315102
    102          1           0        5.611354    0.011385   -3.233412
    103          1           0        3.753965    0.343732   -2.970485
    104          1           0        6.481528    1.233316   -0.451394
    105          1           0        6.318693   -0.245116    0.618967
    106          1           0        7.225355   -1.685517   -1.357056
    107          1           0        7.845503   -0.030170   -2.127514
    108          1           0        8.999333    0.710701    0.004889
    109          1           0        8.597022   -0.755669    0.835717
    110          1           0       10.104929   -0.350074   -1.819250
    111          1           0        9.358020   -2.745198   -1.472057
    112          1           0       10.851453   -2.942493   -1.621473
    113          1           0       10.192692   -2.915930   -0.038471
    114          1           0       11.103152    0.658423    0.084431
    115          1           0       11.307761   -0.792975    0.995563
    116          1           0       12.888281   -1.844969   -0.634606
    117          1           0       12.916563   -0.278066   -1.654214
    118          1           0       13.893529    1.190770    0.173888
    119          1           0       13.934635   -0.444298    1.208559
    120          1           0       15.155603    0.397097   -1.566928
    121          1           0       15.011836   -2.292679   -1.230452
    122          1           0       16.772474   -1.791315   -1.346008
    123          1           0       15.746607   -2.039432    0.483478
    124          1           0       15.640165    1.545060    0.617048
    125          1           0       16.379660    0.004969    1.285682
    126          1           0       17.996691   -0.244857   -0.430580
    127          1           0       17.575288    1.521181   -1.287749
    128          1           0       18.042699    2.933220    0.508704
    129          1           0       18.318260    1.404457    1.713917
    130          1           0       20.548075    0.898763    0.353822
    131          1           0       20.008584    3.205896   -1.835188
    132          1           0       21.487103    2.017483   -1.544857
    133          1           0       19.965735    1.306202   -2.018615
    134          1           0       20.678198    2.549039    2.267497
    135          1           0       21.737913    2.701033    0.906846
    136          1           0       20.290050    3.795645    1.072567
    137          1           0       -7.076546    1.696271    0.649577
    138          1           0       -7.620383   -0.177170   -0.140310
 ---------------------------------------------------------------------

 SCF Done:  E(RB3LYP) =  -2732.91425885     A.U. after   17 cycles

 Excitation energies and oscillator strengths:

 Excited State   1:      Singlet-A      2.0270 eV  611.66 nm  f=0.2101  <S**2>=0.000
     235 -> 237       -0.14787
     235 -> 238        0.26505
     236 -> 237        0.62942
     236 -> 238        0.11227
 This state for optimization and/or second-order correction.
 Total Energy, E(TD-HF/TD-DFT) =  -2732.83976772
 Copying the excited state density for this state as the 1-particle RhoCI density.

 The electronic state is 1-A.
 Alpha  occ. eigenvalues --  -19.18564 -19.17586 -19.13040 -19.12063 -19.11650
 Alpha  occ. eigenvalues --  -14.37400 -14.37105 -14.33872 -14.30428 -10.31934
 Alpha  occ. eigenvalues --  -10.31251 -10.27126 -10.25648 -10.25462 -10.24278
 Alpha  occ. eigenvalues --  -10.24054 -10.23853 -10.23758 -10.23375 -10.23232
 Alpha  occ. eigenvalues --  -10.23047 -10.22814 -10.22677 -10.22438 -10.22174
 Alpha  occ. eigenvalues --  -10.22169 -10.21547 -10.21481 -10.21452 -10.21427
 Alpha  occ. eigenvalues --  -10.21287 -10.21267 -10.21168 -10.21162 -10.21110
 Alpha  occ. eigenvalues --  -10.20968 -10.20954 -10.20904 -10.20854 -10.20667
 Alpha  occ. eigenvalues --  -10.20292 -10.20127 -10.19962 -10.19873 -10.19753
 Alpha  occ. eigenvalues --  -10.19739 -10.19717 -10.19699 -10.19696 -10.19649
 Alpha  occ. eigenvalues --  -10.19519 -10.19368 -10.19308 -10.19054 -10.18951
 Alpha  occ. eigenvalues --  -10.18929 -10.18893 -10.18798 -10.18441 -10.18298
 Alpha  occ. eigenvalues --  -10.18064 -10.18000 -10.16897 -10.16327  -1.10385
 Alpha  occ. eigenvalues --   -1.09547  -1.02544  -1.00999  -0.99751  -0.98465
 Alpha  occ. eigenvalues --   -0.98115  -0.95329  -0.92316  -0.84735  -0.83154
 Alpha  occ. eigenvalues --   -0.82476  -0.81904  -0.81312  -0.81220  -0.80511
 Alpha  occ. eigenvalues --   -0.80293  -0.79858  -0.79365  -0.78971  -0.78392
 Alpha  occ. eigenvalues --   -0.76720  -0.75974  -0.75396  -0.74581  -0.73868
 Alpha  occ. eigenvalues --   -0.73605  -0.72986  -0.71698  -0.71170  -0.71113
 Alpha  occ. eigenvalues --   -0.70020  -0.69586  -0.68200  -0.67974  -0.67857
 Alpha  occ. eigenvalues --   -0.66502  -0.66289  -0.65832  -0.65625  -0.65255
 Alpha  occ. eigenvalues --   -0.64219  -0.62805  -0.62347  -0.61816  -0.61058
 Alpha  occ. eigenvalues --   -0.61046  -0.58504  -0.58168  -0.58054  -0.56830
 Alpha  occ. eigenvalues --   -0.56073  -0.55937  -0.55445  -0.54949  -0.54939
 Alpha  occ. eigenvalues --   -0.54665  -0.54093  -0.53960  -0.53409  -0.52978
 Alpha  occ. eigenvalues --   -0.52716  -0.51687  -0.51440  -0.51030  -0.50890
 Alpha  occ. eigenvalues --   -0.50541  -0.49303  -0.49205  -0.48466  -0.48272
 Alpha  occ. eigenvalues --   -0.47986  -0.47605  -0.47425  -0.47267  -0.46780
 Alpha  occ. eigenvalues --   -0.46604  -0.46557  -0.46368  -0.46056  -0.45710
 Alpha  occ. eigenvalues --   -0.45547  -0.45274  -0.45091  -0.44623  -0.44310
 Alpha  occ. eigenvalues --   -0.44152  -0.43986  -0.43704  -0.43448  -0.43248
 Alpha  occ. eigenvalues --   -0.43201  -0.42784  -0.42757  -0.42653  -0.42551
 Alpha  occ. eigenvalues --   -0.42261  -0.42064  -0.41918  -0.41908  -0.41512
 Alpha  occ. eigenvalues --   -0.41489  -0.40873  -0.40422  -0.40245  -0.40107
 Alpha  occ. eigenvalues --   -0.40010  -0.39706  -0.39600  -0.39501  -0.39460
 Alpha  occ. eigenvalues --   -0.39087  -0.38836  -0.38728  -0.38546  -0.38304
 Alpha  occ. eigenvalues --   -0.37969  -0.37871  -0.37676  -0.37651  -0.37484
 Alpha  occ. eigenvalues --   -0.37397  -0.37110  -0.37035  -0.36781  -0.36379
 Alpha  occ. eigenvalues --   -0.36264  -0.36026  -0.36002  -0.35874  -0.35738
 Alpha  occ. eigenvalues --   -0.35470  -0.35233  -0.35115  -0.34896  -0.34756
 Alpha  occ. eigenvalues --   -0.34723  -0.34442  -0.34295  -0.33719  -0.33514
 Alpha  occ. eigenvalues --   -0.32598  -0.32472  -0.32337  -0.32216  -0.32063
 Alpha  occ. eigenvalues --   -0.31864  -0.31541  -0.31314  -0.31266  -0.30808
 Alpha  occ. eigenvalues --   -0.30745  -0.30445  -0.30159  -0.29976  -0.29827
 Alpha  occ. eigenvalues --   -0.29454  -0.28867  -0.28753  -0.28496  -0.28454
 Alpha  occ. eigenvalues --   -0.27752  -0.27633  -0.27567  -0.26330  -0.25881
 Alpha  occ. eigenvalues --   -0.25180  -0.24495  -0.24206  -0.23267  -0.20292
 Alpha  occ. eigenvalues --   -0.18719
 Alpha virt. eigenvalues --   -0.10483  -0.07895  -0.04764  -0.02467  -0.01088
 Alpha virt. eigenvalues --   -0.00603   0.00141   0.00756   0.01382   0.01702
 Alpha virt. eigenvalues --    0.02363   0.03375   0.03542   0.03611   0.04123

 Mulliken charges:
               1
     1  C   -0.031840
     2  C   -0.119783
     3  C   -0.173814
     4  C   -0.038598
     5  N   -0.248999
     6  C   -0.001259
     7  C   -0.014913
     8  C   -0.052174
     9  C    0.008711
    10  C   -0.038524
    11  C   -0.045706
    12  C    0.108623
    13  C    0.151960
    14  O   -0.254325
    15  O   -0.304998
    16  N   -0.057415
    17  C    0.154380
    18  C   -0.202183
    19  C    0.049361
    20  C    0.082563
    21  C    0.197315
    22  C   -0.035822
    23  C   -0.080125
    24  N   -0.188385
    25  C    0.035310
    26  C   -0.169869
    27  C   -0.067802
    28  C    0.239322
    29  C    0.207419
    30  C   -0.065060
    31  C   -0.051767
    32  N   -0.090010
    33  C   -0.065440
    34  C   -0.135182
    35  C    0.031313
    36  C    0.066311
    37  C    0.055460
    38  C    0.020464
    39  O   -0.168392
    40  C   -0.034197
    41  C    0.230010
    42  O   -0.225212
    43  O   -0.300408
    44  C    0.146364
    45  C    0.198435
    46  C   -0.131434
    47  C   -0.093091
    48  C   -0.045967
    49  C    0.203747
    50  C   -0.079471
    51  C   -0.096991
    52  C    0.035799
    53  C    0.138064
    54  C    0.115378
    55  C   -0.022004
    56  C    0.000752
    57  C   -0.158790
    58  C   -0.038521
    59  C    0.046258
    60  C   -0.029348
    61  C    0.011412
    62  C   -0.070470
    63  C   -0.119982
    64  C    0.087365
    65  H    0.021061
    66  H    0.037048
    67  H   -0.097253
    68  H    0.034418
    69  H    0.020741
    70  H    0.045094
    71  H    0.023180
    72  H    0.054418
    73  H    0.061112
    74  H    0.025246
    75  H    0.024038
    76  H    0.047065
    77  H    0.052248
    78  H    0.006749
    79  H   -0.029170
    80  H    0.003929
    81  H    0.016213
    82  H    0.053806
    83  H    0.027833
    84  H   -0.018332
    85  H   -0.021821
    86  H    0.016614
    87  H    0.033957
    88  H    0.052038
    89  H    0.035670
    90  H    0.049640
    91  H    0.032354
    92  H    0.055577
    93  H    0.031162
    94  H    0.054560
    95  H    0.053175
    96  H    0.008161
    97  H    0.070538
    98  H    0.035543
    99  H    0.042995
   100  H    0.023264
   101  H    0.031372
   102  H    0.041737
   103  H    0.040649
   104  H   -0.005206
   105  H   -0.015044
   106  H    0.022375
   107  H    0.014738
   108  H   -0.019848
   109  H   -0.004707
   110  H   -0.040010
   111  H   -0.056853
   112  H   -0.011806
   113  H   -0.003388
   114  H   -0.077237
   115  H   -0.003395
   116  H    0.031293
   117  H   -0.009799
   118  H    0.016503
   119  H   -0.004515
   120  H    0.006116
   121  H    0.023527
   122  H    0.041918
   123  H    0.029563
   124  H   -0.006415
   125  H   -0.019429
   126  H    0.024460
   127  H    0.023280
   128  H    0.022579
   129  H    0.014865
   130  H    0.000226
   131  H    0.029509
   132  H    0.015593
   133  H    0.033193
   134  H   -0.003647
   135  H   -0.006731
   136  H    0.001376
   137  H    0.159715
   138  H    0.206746
 Sum of Mulliken charges =  -0.00000

 Dipole moment (field-independent basis, Debye):
    X=              0.9558    Y=              4.9521    Z=              1.0960  Tot=              5.1612
 Quadrupole moment (field-independent basis, Debye-Ang):
   XX=           -373.8100   YY=           -386.7289   ZZ=           -396.7484
   XY=            -34.5154   XZ=             12.6900   YZ=             -3.4269

 Normal termination of Gaussian 16 at Sat Aug 17 09:23:18 2019.
