 Gaussian 16, Revision A.03,
 Gaussian 16:  ES64L-G16RevA.03 25-Dec-2016

 --------------------------
 # td=(NStates=1) B3LYP/SVP
 --------------------------

 --
 TD
 --
 Symbolic Z-matrix:
 Charge =  0 Multiplicity = 1

                         Standard orientation:
 ---------------------------------------------------------------------
 Center     Atomic      Atomic             Coordinates (Angstroms)
 Number     Number       Type             X           Y           Z
 ---------------------------------------------------------------------
      1          6           0       -5.136934   -1.945688    0.508229
      2          6           0       -4.609849    2.763248    1.406040
      3          6           0       -9.239789    3.394715   -0.097162
      4          6           0       -9.828280   -1.288063   -1.102924
      5          7           0       -5.216052    0.453883    0.910378
      6          6           0       -4.564934   -0.781651    0.943354
      7          6           0       -3.067144   -0.633505    1.354049
      8          6           0       -3.055546    0.826798    1.975783
      9          6           0       -4.289473    1.334827    1.507459
     10          6           0       -3.060286    0.854610    3.529004
     11          6           0       -2.080744   -0.797967    0.166334
     12          6           0       -0.614166   -0.952825    0.745263
     13          6           0        0.310256   -1.082048   -0.441740
     14          8           0       -0.006137   -1.390138   -1.600674
     15          8           0        1.597270   -1.016248   -0.024629
     16          7           0       -6.923305    2.702912    0.462776
     17          6           0       -5.816835    3.390009    1.043921
     18          6           0       -6.022510    4.771212    1.062232
     19          6           0       -7.432855    4.979262    0.499162
     20          6           0       -7.903213    3.685727    0.280508
     21          6           0       -5.100004    5.788429    1.473260
     22          6           0       -7.970755    6.303385    0.372213
     23          6           0       -8.920423    6.789146   -0.487325
     24          7           0       -9.071464    1.047118   -0.582189
     25          6           0       -9.741951    2.208029   -0.495748
     26          6           0      -11.159680    2.092760   -1.082776
     27          6           0      -11.343556    0.752033   -1.435305
     28          6           0      -10.103777    0.097656   -0.998735
     29          6           0      -12.136536    3.141981   -1.111352
     30          6           0      -12.572456   -0.001409   -1.996069
     31          6           0      -12.467460   -0.251187   -3.486458
     32          7           0       -7.450961   -1.252560   -0.122591
     33          6           0       -8.612470   -1.940165   -0.641967
     34          6           0       -8.277403   -3.350277   -0.661577
     35          6           0       -6.909348   -3.406483   -0.205552
     36          6           0       -6.500696   -2.031235    0.080209
     37          6           0       -9.191903   -4.470473   -1.122183
     38          6           0       -5.830686   -4.355115    0.071433
     39          8           0       -5.744878   -5.579418   -0.015907
     40          6           0       -4.597393   -3.457375    0.462374
     41          6           0       -4.006624   -3.949572    1.721925
     42          8           0       -4.301018   -3.508636    2.789971
     43          8           0       -3.183607   -4.985950    1.580600
     44          6           0       -2.597286   -5.509456    2.769028
     45          6           0        2.679077   -1.350190   -0.962784
     46          6           0        3.930788   -0.938779   -0.334451
     47          6           0        4.922849   -0.306254   -0.989584
     48          6           0        4.814745    0.402713   -2.327522
     49          6           0        6.256771   -0.046551   -0.247044
     50          6           0        7.457668   -0.529609   -1.049110
     51          6           0        8.742816   -0.173167   -0.250875
     52          6           0       10.063547   -0.809111   -0.920935
     53          6           0        9.942048   -2.347527   -1.148667
     54          6           0       11.323038   -0.402360   -0.064578
     55          6           0       12.653298   -0.654487   -0.746166
     56          6           0       13.909438   -0.147135    0.105734
     57          6           0       15.236255   -0.194846   -0.473927
     58          6           0       15.761369   -1.635347   -0.748971
     59          6           0       16.282316    0.565053    0.439355
     60          6           0       17.652172    0.837704   -0.102238
     61          6           0       18.574304    1.712132    0.774411
     62          6           0       19.945088    2.005979    0.025717
     63          6           0       19.852141    2.662835   -1.253384
     64          6           0       20.781494    2.640375    1.099591
     65          1           0       -3.843061    3.403602    2.003952
     66          1           0       -9.716435    4.385642    0.003978
     67          1           0      -10.753556   -1.969057   -1.321812
     68          1           0       -2.820167   -1.428699    2.033923
     69          1           0       -2.309493    1.425354    1.676586
     70          1           0       -2.034520    0.423669    3.864316
     71          1           0       -3.022043    2.128549    3.869030
     72          1           0       -3.812070    0.350593    3.959198
     73          1           0       -2.612900   -1.544831   -0.543597
     74          1           0       -2.081901    0.071200   -0.491367
     75          1           0       -0.290590   -0.178089    1.318979
     76          1           0       -0.433428   -1.997239    1.349718
     77          1           0       -4.498216    6.058056    0.464526
     78          1           0       -5.652532    6.846838    2.144678
     79          1           0       -4.363658    5.499332    2.451290
     80          1           0       -7.562958    7.029922    0.968160
     81          1           0       -9.343938    6.210754   -1.227609
     82          1           0       -9.261210    7.880000   -0.180587
     83          1           0      -12.422758    3.578454    0.011071
     84          1           0      -11.687491    4.235737   -1.506742
     85          1           0      -13.016617    2.773768   -1.650697
     86          1           0      -12.718281   -1.050828   -1.698759
     87          1           0      -13.628835    0.458907   -1.721459
     88          1           0      -12.293324    0.816544   -4.123752
     89          1           0      -11.584558   -0.814676   -3.737278
     90          1           0      -13.225380   -0.667325   -4.121570
     91          1           0      -10.077531   -4.517416   -0.575316
     92          1           0       -9.198909   -4.062108   -2.386943
     93          1           0       -8.672081   -5.431662   -1.224869
     94          1           0       -3.960991   -3.448424   -0.455243
     95          1           0       -2.003498   -6.269666    2.416920
     96          1           0       -1.913418   -4.740574    3.150520
     97          1           0       -3.326371   -5.797989    3.471022
     98          1           0        2.553802   -2.499450   -1.053743
     99          1           0        2.584056   -0.974075   -1.918246
    100          1           0        4.205875   -1.319378    0.573654
    101          1           0        5.276306    1.436089   -2.228790
    102          1           0        5.437739    0.017061   -3.245005
    103          1           0        3.858935    0.500029   -2.773588
    104          1           0        6.277468    1.030624   -0.147851
    105          1           0        6.146559   -0.492601    0.789877
    106          1           0        7.350779   -1.420584   -1.631642
    107          1           0        7.715243   -0.106555   -2.043097
    108          1           0        8.890971    0.865646   -0.225715
    109          1           0        8.756770   -0.760529    0.863397
    110          1           0       10.371805   -0.526993   -1.861704
    111          1           0        9.222519   -2.276386   -1.971855
    112          1           0       11.059761   -2.843364   -1.537183
    113          1           0        9.512384   -2.753279   -0.192050
    114          1           0       11.348545    0.663587    0.348785
    115          1           0       11.204612   -1.064558    0.947275
    116          1           0       12.804845   -1.816692   -0.941954
    117          1           0       12.707579   -0.278291   -1.825756
    118          1           0       13.755194    0.793095    0.291881
    119          1           0       13.614446   -0.609447    1.216610
    120          1           0       15.218816    0.165612   -1.362817
    121          1           0       15.114137   -2.233204   -1.360343
    122          1           0       16.690945   -1.515538   -1.285087
    123          1           0       15.805321   -1.921124    0.282518
    124          1           0       15.622559    1.485655    0.739530
    125          1           0       16.265432   -0.050165    1.323591
    126          1           0       18.240749   -0.191869   -0.318420
    127          1           0       17.392560    1.211770   -1.180741
    128          1           0       17.897186    2.656271    1.094338
    129          1           0       18.813562    1.207413    1.783956
    130          1           0       20.283128    0.893041   -0.169634
    131          1           0       19.318705    3.538663   -1.199519
    132          1           0       20.904876    2.819334   -1.606334
    133          1           0       19.130753    2.177403   -2.026443
    134          1           0       20.599322    2.307219    2.051775
    135          1           0       21.770388    2.523171    0.990233
    136          1           0       20.774912    3.829192    1.078530
    137          1           0       -7.122596    1.786564    0.388892
    138          1           0       -7.465878   -0.292624    0.062001
 ---------------------------------------------------------------------

 SCF Done:  E(RB3LYP) =  -2732.99767012     A.U. after   17 cycles

 Excitation energies and oscillator strengths:

 Excited State   1:      Singlet-A      1.9070 eV  650.15 nm  f=0.1884  <S**2>=0.000
     235 -> 237       -0.30683
     235 -> 238       -0.21387
     236 -> 237        0.57502
     236 -> 238       -0.15141
 This state for optimization and/or second-order correction.
 Total Energy, E(TD-HF/TD-DFT) =  -2732.92758866
 Copying the excited state density for this state as the 1-particle RhoCI density.

 The electronic state is 1-A.
 Alpha  occ. eigenvalues --  -19.17228 -19.16977 -19.11960 -19.11623 -19.11424
 Alpha  occ. eigenvalues --  -14.37461 -14.35708 -14.32804 -14.30782 -10.31361
 Alpha  occ. eigenvalues --  -10.30644 -10.27606 -10.24630 -10.24214 -10.24105
 Alpha  occ. eigenvalues --  -10.23922 -10.23391 -10.23233 -10.23224 -10.23194
 Alpha  occ. eigenvalues --  -10.22754 -10.22364 -10.22310 -10.21830 -10.21753
 Alpha  occ. eigenvalues --  -10.21561 -10.21437 -10.21327 -10.21242 -10.20995
 Alpha  occ. eigenvalues --  -10.20969 -10.20916 -10.20881 -10.20792 -10.20587
 Alpha  occ. eigenvalues --  -10.20453 -10.20412 -10.20273 -10.20246 -10.20190
 Alpha  occ. eigenvalues --  -10.20085 -10.20005 -10.19939 -10.19935 -10.19723
 Alpha  occ. eigenvalues --  -10.19695 -10.19687 -10.19656 -10.19612 -10.19476
 Alpha  occ. eigenvalues --  -10.19413 -10.19378 -10.19316 -10.19132 -10.19111
 Alpha  occ. eigenvalues --  -10.18912 -10.18779 -10.18181 -10.18050 -10.17573
 Alpha  occ. eigenvalues --  -10.17557 -10.16781 -10.16693 -10.16315  -1.09989
 Alpha  occ. eigenvalues --   -1.07890  -1.01257  -1.00691  -1.00190  -0.98818
 Alpha  occ. eigenvalues --   -0.96572  -0.92968  -0.91848  -0.83411  -0.82963
 Alpha  occ. eigenvalues --   -0.82345  -0.81890  -0.81307  -0.81024  -0.80879
 Alpha  occ. eigenvalues --   -0.80335  -0.80140  -0.79401  -0.78853  -0.77796
 Alpha  occ. eigenvalues --   -0.77089  -0.75748  -0.75634  -0.75171  -0.74782
 Alpha  occ. eigenvalues --   -0.73745  -0.73056  -0.72436  -0.71701  -0.70814
 Alpha  occ. eigenvalues --   -0.70365  -0.69625  -0.69470  -0.68850  -0.68206
 Alpha  occ. eigenvalues --   -0.67349  -0.66999  -0.65978  -0.65894  -0.65216
 Alpha  occ. eigenvalues --   -0.63802  -0.63111  -0.62984  -0.62153  -0.61317
 Alpha  occ. eigenvalues --   -0.61158  -0.59353  -0.58703  -0.57478  -0.56887
 Alpha  occ. eigenvalues --   -0.56624  -0.56521  -0.56393  -0.55944  -0.55265
 Alpha  occ. eigenvalues --   -0.54957  -0.54946  -0.54772  -0.54739  -0.53652
 Alpha  occ. eigenvalues --   -0.52680  -0.52356  -0.51726  -0.51175  -0.50918
 Alpha  occ. eigenvalues --   -0.49873  -0.49238  -0.49030  -0.48706  -0.47956
 Alpha  occ. eigenvalues --   -0.47642  -0.47528  -0.47333  -0.47056  -0.46923
 Alpha  occ. eigenvalues --   -0.46594  -0.46346  -0.46240  -0.46006  -0.45741
 Alpha  occ. eigenvalues --   -0.45506  -0.45203  -0.45120  -0.44790  -0.44696
 Alpha  occ. eigenvalues --   -0.44627  -0.44396  -0.44043  -0.43723  -0.43518
 Alpha  occ. eigenvalues --   -0.43377  -0.43148  -0.42778  -0.42715  -0.42566
 Alpha  occ. eigenvalues --   -0.42355  -0.42109  -0.42032  -0.41900  -0.41872
 Alpha  occ. eigenvalues --   -0.41261  -0.41153  -0.41017  -0.40539  -0.40337
 Alpha  occ. eigenvalues --   -0.39924  -0.39875  -0.39677  -0.39186  -0.39112
 Alpha  occ. eigenvalues --   -0.38909  -0.38863  -0.38789  -0.38742  -0.38347
 Alpha  occ. eigenvalues --   -0.38055  -0.37961  -0.37893  -0.37635  -0.37412
 Alpha  occ. eigenvalues --   -0.37165  -0.37045  -0.36916  -0.36896  -0.36589
 Alpha  occ. eigenvalues --   -0.36503  -0.36455  -0.36232  -0.35993  -0.35938
 Alpha  occ. eigenvalues --   -0.35818  -0.35428  -0.35347  -0.35148  -0.34794
 Alpha  occ. eigenvalues --   -0.34692  -0.34337  -0.34086  -0.34007  -0.33896
 Alpha  occ. eigenvalues --   -0.33781  -0.33131  -0.32889  -0.32237  -0.32050
 Alpha  occ. eigenvalues --   -0.32032  -0.31669  -0.31517  -0.31337  -0.30608
 Alpha  occ. eigenvalues --   -0.30339  -0.30338  -0.30260  -0.30041  -0.29880
 Alpha  occ. eigenvalues --   -0.29659  -0.29119  -0.28520  -0.28204  -0.27631
 Alpha  occ. eigenvalues --   -0.27500  -0.27430  -0.27225  -0.26450  -0.25856
 Alpha  occ. eigenvalues --   -0.25348  -0.24620  -0.23212  -0.22726  -0.19403
 Alpha  occ. eigenvalues --   -0.18795
 Alpha virt. eigenvalues --   -0.11047  -0.07391  -0.04323  -0.02391  -0.00863
 Alpha virt. eigenvalues --   -0.00659  -0.00530   0.01125   0.01592   0.02128
 Alpha virt. eigenvalues --    0.03162   0.03459   0.03519   0.04428   0.04551

 Mulliken charges:
               1
     1  C   -0.010644
     2  C   -0.102505
     3  C   -0.111176
     4  C   -0.082250
     5  N   -0.231403
     6  C   -0.065827
     7  C   -0.011312
     8  C    0.070403
     9  C   -0.007992
    10  C    0.040859
    11  C    0.047203
    12  C    0.058430
    13  C    0.173875
    14  O   -0.266090
    15  O   -0.336080
    16  N   -0.032579
    17  C    0.164282
    18  C   -0.072014
    19  C    0.076832
    20  C    0.012400
    21  C   -0.113413
    22  C   -0.044310
    23  C   -0.018827
    24  N   -0.284447
    25  C    0.189896
    26  C   -0.115420
    27  C   -0.031353
    28  C    0.061697
    29  C   -0.000941
    30  C    0.050512
    31  C   -0.042407
    32  N    0.096182
    33  C    0.061939
    34  C   -0.137060
    35  C   -0.036030
    36  C   -0.009042
    37  C    0.063568
    38  C    0.057067
    39  O   -0.186585
    40  C   -0.007183
    41  C    0.192607
    42  O   -0.224566
    43  O   -0.293649
    44  C    0.252020
    45  C    0.322380
    46  C   -0.045485
    47  C   -0.130002
    48  C    0.035577
    49  C    0.118441
    50  C   -0.011106
    51  C    0.045325
    52  C   -0.072441
    53  C   -0.026519
    54  C   -0.010501
    55  C   -0.034693
    56  C    0.067388
    57  C    0.022718
    58  C    0.052322
    59  C    0.004151
    60  C   -0.011388
    61  C   -0.027234
    62  C   -0.121669
    63  C    0.081326
    64  C    0.138234
    65  H   -0.010122
    66  H   -0.028020
    67  H    0.021590
    68  H   -0.012172
    69  H   -0.047564
    70  H    0.026457
    71  H    0.026657
    72  H    0.010719
    73  H    0.035949
    74  H    0.001405
    75  H    0.001128
    76  H    0.067612
    77  H    0.080032
    78  H    0.054243
    79  H    0.060682
    80  H   -0.042617
    81  H    0.003261
    82  H    0.044378
    83  H    0.041994
    84  H    0.033932
    85  H    0.029590
    86  H    0.006585
    87  H    0.026093
    88  H    0.006487
    89  H    0.009287
    90  H    0.011847
    91  H    0.038542
    92  H    0.057982
    93  H    0.044660
    94  H    0.063293
    95  H    0.005388
    96  H    0.009249
    97  H    0.028180
    98  H    0.026416
    99  H   -0.010727
   100  H   -0.049466
   101  H    0.020105
   102  H    0.028392
   103  H    0.008982
   104  H    0.004751
   105  H    0.011269
   106  H   -0.009776
   107  H   -0.016277
   108  H    0.002119
   109  H    0.023440
   110  H   -0.039403
   111  H    0.017277
   112  H    0.045135
   113  H    0.022707
   114  H    0.002164
   115  H    0.000512
   116  H    0.011090
   117  H   -0.002366
   118  H   -0.068032
   119  H   -0.001789
   120  H   -0.082778
   121  H   -0.000521
   122  H   -0.000459
   123  H   -0.003667
   124  H   -0.002235
   125  H   -0.020453
   126  H    0.016112
   127  H    0.010877
   128  H    0.009256
   129  H    0.012689
   130  H    0.001175
   131  H   -0.026455
   132  H    0.019998
   133  H    0.011965
   134  H   -0.023150
   135  H   -0.042661
   136  H    0.003216
   137  H    0.078599
   138  H    0.113748
 Sum of Mulliken charges =  -0.00000

 Dipole moment (field-independent basis, Debye):
    X=              3.1047    Y=              4.3619    Z=              0.6785  Tot=              5.3968
 Quadrupole moment (field-independent basis, Debye-Ang):
   XX=           -348.5318   YY=           -391.4561   ZZ=           -393.6260
   XY=             -9.7184   XZ=             -0.7521   YZ=              2.0175

 Normal termination of Gaussian 16 at Sun Aug 11 19:03:24 2019.
