 Gaussian 16, Revision A.03,
 Gaussian 16:  ES64L-G16RevA.03 25-Dec-2016

 --------------------------
 # td=(NStates=1) B3LYP/SVP
 --------------------------

 --
 TD
 --
 Symbolic Z-matrix:
 Charge =  0 Multiplicity = 1

                         Standard orientation:
 ---------------------------------------------------------------------
 Center     Atomic      Atomic             Coordinates (Angstroms)
 Number     Number       Type             X           Y           Z
 ---------------------------------------------------------------------
      1          6           0       -5.012851   -1.931328    0.283635
      2          6           0       -4.668859    2.659195    1.395924
      3          6           0       -9.323684    3.380161   -0.250844
      4          6           0       -9.832638   -1.325586   -0.892311
      5          7           0       -5.122022    0.369357    0.918738
      6          6           0       -4.433001   -0.755328    0.789108
      7          6           0       -3.083814   -0.596861    1.334939
      8          6           0       -3.011816    0.857360    1.865953
      9          6           0       -4.368939    1.321837    1.441144
     10          6           0       -2.850581    0.956653    3.389216
     11          6           0       -2.156935   -0.822015    0.133444
     12          6           0       -0.707790   -0.891043    0.619040
     13          6           0        0.298441   -1.192367   -0.490187
     14          8           0        0.090140   -1.633910   -1.618280
     15          8           0        1.590114   -0.718467   -0.115134
     16          7           0       -6.918921    2.783813    0.548096
     17          6           0       -5.896793    3.384751    1.020635
     18          6           0       -6.129556    4.831567    1.019394
     19          6           0       -7.383967    4.959893    0.479871
     20          6           0       -7.987733    3.645547    0.240863
     21          6           0       -5.123178    5.798663    1.398894
     22          6           0       -8.016697    6.217372    0.362146
     23          6           0       -8.975561    6.587099   -0.620072
     24          7           0       -9.158155    0.929867   -0.457201
     25          6           0       -9.859461    2.090839   -0.493593
     26          6           0      -11.284257    1.935827   -0.905374
     27          6           0      -11.416251    0.633043   -1.070816
     28          6           0      -10.047814    0.034262   -0.856403
     29          6           0      -12.208287    3.068382   -0.999871
     30          6           0      -12.656374   -0.250918   -1.583261
     31          6           0      -12.684542   -0.395351   -3.094169
     32          7           0       -7.459010   -1.305819   -0.279360
     33          6           0       -8.554023   -1.921388   -0.703842
     34          6           0       -8.160312   -3.356036   -0.684660
     35          6           0       -6.790038   -3.401703   -0.289479
     36          6           0       -6.423918   -1.995914   -0.038929
     37          6           0       -9.124603   -4.580362   -0.934758
     38          6           0       -5.707364   -4.317803   -0.085534
     39          8           0       -5.672860   -5.460831   -0.180498
     40          6           0       -4.479190   -3.296008    0.312283
     41          6           0       -3.863290   -3.794367    1.700757
     42          8           0       -4.100478   -3.430940    2.812290
     43          8           0       -3.042844   -4.857486    1.482721
     44          6           0       -2.581488   -5.585892    2.609339
     45          6           0        2.583843   -1.033479   -1.137706
     46          6           0        3.891413   -0.708752   -0.584140
     47          6           0        4.850264    0.100576   -1.068502
     48          6           0        4.731660    0.901490   -2.438977
     49          6           0        6.107150    0.291176   -0.414807
     50          6           0        7.412149   -0.524988   -0.979625
     51          6           0        8.739459   -0.369292   -0.140785
     52          6           0       10.014127   -0.815949   -0.781584
     53          6           0       10.099866   -2.264612   -0.947581
     54          6           0       11.247433   -0.382255    0.095310
     55          6           0       12.636952   -0.588818   -0.592825
     56          6           0       13.817463    0.036993    0.174202
     57          6           0       15.247971   -0.283128   -0.350535
     58          6           0       15.679790   -1.789707   -0.336508
     59          6           0       16.213059    0.685885    0.449456
     60          6           0       17.642587    0.756712   -0.145324
     61          6           0       18.521847    1.666764    0.655243
     62          6           0       19.986894    1.756703    0.079464
     63          6           0       20.060078    2.128493   -1.365515
     64          6           0       20.862932    2.679374    1.029175
     65          1           0       -3.956524    3.396373    1.921958
     66          1           0      -10.073168    4.225457   -0.211403
     67          1           0      -10.537971   -2.168238   -1.317109
     68          1           0       -2.779569   -1.457011    2.065414
     69          1           0       -2.239317    1.431519    1.316852
     70          1           0       -1.638422    0.731031    3.745925
     71          1           0       -2.953929    1.979916    3.822774
     72          1           0       -3.558428    0.084505    3.820570
     73          1           0       -2.384505   -1.896925   -0.430707
     74          1           0       -2.296026   -0.007986   -0.569718
     75          1           0       -0.418730   -0.051408    1.133649
     76          1           0       -0.573498   -1.881249    1.324266
     77          1           0       -4.331276    5.615096    0.725619
     78          1           0       -5.452654    6.816883    1.331345
     79          1           0       -5.044617    5.767314    2.432970
     80          1           0       -7.728253    7.125873    0.910868
     81          1           0       -9.323986    5.980499   -1.350528
     82          1           0       -9.498488    7.638907   -0.717877
     83          1           0      -12.312216    3.594483   -0.022867
     84          1           0      -11.560196    4.080781   -1.416434
     85          1           0      -13.152879    3.020808   -1.584142
     86          1           0      -12.392878   -1.205946   -1.186895
     87          1           0      -13.487532    0.345720   -1.284197
     88          1           0      -12.784416    0.551881   -3.638485
     89          1           0      -11.852335   -0.858299   -3.650267
     90          1           0      -13.728777   -0.764754   -3.475166
     91          1           0       -9.591243   -4.678942    0.045948
     92          1           0       -9.671834   -4.502059   -1.857450
     93          1           0       -8.429076   -5.515601   -1.146440
     94          1           0       -3.685348   -3.605692   -0.436475
     95          1           0       -2.119129   -6.515635    2.046336
     96          1           0       -1.815513   -5.109291    3.258339
     97          1           0       -3.376500   -6.198677    3.185409
     98          1           0        2.530901   -2.111736   -1.430442
     99          1           0        2.283649   -0.424626   -2.027420
    100          1           0        4.138651   -1.176880    0.307897
    101          1           0        5.093528    2.011697   -2.231726
    102          1           0        5.262379    0.351340   -3.295829
    103          1           0        3.603711    0.962825   -2.809619
    104          1           0        6.543795    1.372529   -0.415439
    105          1           0        6.317541    0.045108    0.698902
    106          1           0        7.045054   -1.565615   -1.189307
    107          1           0        7.695699   -0.044790   -2.048060
    108          1           0        8.819118    0.644824    0.207863
    109          1           0        8.493322   -1.064437    0.747693
    110          1           0       10.127729   -0.291217   -1.598218
    111          1           0        9.203954   -2.740052   -1.527085
    112          1           0       11.109037   -2.468570   -1.542467
    113          1           0        9.745936   -2.861027   -0.017009
    114          1           0       11.125680    0.801850    0.333033
    115          1           0       11.106169   -0.903225    1.046668
    116          1           0       12.718832   -1.672488   -0.668796
    117          1           0       12.520581   -0.042228   -1.486760
    118          1           0       13.791201    1.289308    0.256687
    119          1           0       13.706263   -0.330200    1.186827
    120          1           0       15.061906    0.054745   -1.435980
    121          1           0       15.127069   -2.532532   -1.059805
    122          1           0       16.657414   -1.656722   -0.801687
    123          1           0       15.769250   -2.177039    0.685331
    124          1           0       15.541952    1.594813    0.179063
    125          1           0       16.286484    0.096661    1.420370
    126          1           0       17.886892   -0.397176   -0.244655
    127          1           0       17.819567    0.829191   -1.287237
    128          1           0       18.205211    2.725997    0.683385
    129          1           0       18.692490    1.501126    1.757171
    130          1           0       20.420337    0.864121    0.041367
    131          1           0       19.482021    3.127744   -1.704508
    132          1           0       21.132307    2.320748   -1.684713
    133          1           0       19.648647    1.301752   -1.958817
    134          1           0       21.043114    2.531073    2.159737
    135          1           0       21.929584    2.869135    0.757128
    136          1           0       20.488480    3.804095    1.121466
    137          1           0       -7.258991    1.853046    0.511416
    138          1           0       -7.511688   -0.262176   -0.194717
 ---------------------------------------------------------------------

 SCF Done:  E(RB3LYP) =  -2733.10057412     A.U. after   16 cycles

 Excitation energies and oscillator strengths:

 Excited State   1:      Singlet-A      2.0669 eV  599.85 nm  f=0.2147  <S**2>=0.000
     235 -> 237       -0.12811
     235 -> 238        0.28160
     236 -> 237        0.63222
 This state for optimization and/or second-order correction.
 Total Energy, E(TD-HF/TD-DFT) =  -2733.02461620
 Copying the excited state density for this state as the 1-particle RhoCI density.

 The electronic state is 1-A.
 Alpha  occ. eigenvalues --  -19.17451 -19.16679 -19.13088 -19.12920 -19.12534
 Alpha  occ. eigenvalues --  -14.37806 -14.37657 -14.31327 -14.31153 -10.31740
 Alpha  occ. eigenvalues --  -10.31525 -10.27711 -10.25379 -10.24210 -10.24147
 Alpha  occ. eigenvalues --  -10.24007 -10.23545 -10.23519 -10.22404 -10.22186
 Alpha  occ. eigenvalues --  -10.22171 -10.21946 -10.21666 -10.21598 -10.21548
 Alpha  occ. eigenvalues --  -10.21189 -10.21173 -10.21141 -10.21121 -10.21067
 Alpha  occ. eigenvalues --  -10.20990 -10.20537 -10.20499 -10.20474 -10.20431
 Alpha  occ. eigenvalues --  -10.20218 -10.20108 -10.20042 -10.20033 -10.19968
 Alpha  occ. eigenvalues --  -10.19932 -10.19855 -10.19719 -10.19703 -10.19555
 Alpha  occ. eigenvalues --  -10.19425 -10.19407 -10.19236 -10.19019 -10.18837
 Alpha  occ. eigenvalues --  -10.18822 -10.18813 -10.18800 -10.18756 -10.18737
 Alpha  occ. eigenvalues --  -10.18676 -10.18651 -10.18638 -10.18615 -10.18470
 Alpha  occ. eigenvalues --  -10.18462 -10.17961 -10.17814 -10.17266  -1.09555
 Alpha  occ. eigenvalues --   -1.06930  -1.06792  -1.01672  -1.00789  -1.00469
 Alpha  occ. eigenvalues --   -0.99141  -0.96237  -0.95333  -0.84607  -0.83040
 Alpha  occ. eigenvalues --   -0.82525  -0.81765  -0.81335  -0.81067  -0.80757
 Alpha  occ. eigenvalues --   -0.80186  -0.79501  -0.79376  -0.79230  -0.77339
 Alpha  occ. eigenvalues --   -0.76366  -0.75818  -0.75535  -0.74821  -0.74164
 Alpha  occ. eigenvalues --   -0.72960  -0.72605  -0.72226  -0.71871  -0.70858
 Alpha  occ. eigenvalues --   -0.70045  -0.69435  -0.68595  -0.68239  -0.67098
 Alpha  occ. eigenvalues --   -0.66787  -0.66614  -0.66572  -0.65500  -0.64510
 Alpha  occ. eigenvalues --   -0.63689  -0.63509  -0.62589  -0.62093  -0.61804
 Alpha  occ. eigenvalues --   -0.60836  -0.59278  -0.58518  -0.58173  -0.57528
 Alpha  occ. eigenvalues --   -0.57398  -0.56339  -0.56246  -0.55838  -0.55648
 Alpha  occ. eigenvalues --   -0.55076  -0.54813  -0.54194  -0.53883  -0.53159
 Alpha  occ. eigenvalues --   -0.53056  -0.52332  -0.51414  -0.51049  -0.50231
 Alpha  occ. eigenvalues --   -0.49971  -0.49556  -0.48820  -0.48581  -0.48182
 Alpha  occ. eigenvalues --   -0.47969  -0.47624  -0.47564  -0.47071  -0.46886
 Alpha  occ. eigenvalues --   -0.46733  -0.46503  -0.46382  -0.46181  -0.46018
 Alpha  occ. eigenvalues --   -0.45767  -0.45752  -0.45572  -0.44981  -0.44730
 Alpha  occ. eigenvalues --   -0.44502  -0.44286  -0.44035  -0.43990  -0.43758
 Alpha  occ. eigenvalues --   -0.43595  -0.43389  -0.43374  -0.43100  -0.42901
 Alpha  occ. eigenvalues --   -0.42443  -0.42230  -0.42057  -0.41887  -0.41470
 Alpha  occ. eigenvalues --   -0.41387  -0.41009  -0.40791  -0.40577  -0.40368
 Alpha  occ. eigenvalues --   -0.40171  -0.39944  -0.39683  -0.39576  -0.39458
 Alpha  occ. eigenvalues --   -0.39307  -0.39048  -0.38995  -0.38731  -0.38411
 Alpha  occ. eigenvalues --   -0.38362  -0.38215  -0.37862  -0.37746  -0.37666
 Alpha  occ. eigenvalues --   -0.37024  -0.36638  -0.36585  -0.36251  -0.36158
 Alpha  occ. eigenvalues --   -0.36070  -0.35852  -0.35786  -0.35572  -0.35468
 Alpha  occ. eigenvalues --   -0.35315  -0.35117  -0.35042  -0.34881  -0.34755
 Alpha  occ. eigenvalues --   -0.34442  -0.34178  -0.33999  -0.33842  -0.33804
 Alpha  occ. eigenvalues --   -0.33704  -0.33313  -0.33172  -0.32653  -0.32523
 Alpha  occ. eigenvalues --   -0.32123  -0.31976  -0.31706  -0.31264  -0.31162
 Alpha  occ. eigenvalues --   -0.30758  -0.30539  -0.30261  -0.30136  -0.29909
 Alpha  occ. eigenvalues --   -0.29766  -0.29217  -0.28493  -0.28362  -0.28220
 Alpha  occ. eigenvalues --   -0.27914  -0.27381  -0.26490  -0.26430  -0.26252
 Alpha  occ. eigenvalues --   -0.25064  -0.24349  -0.24063  -0.23455  -0.19726
 Alpha  occ. eigenvalues --   -0.18994
 Alpha virt. eigenvalues --   -0.10510  -0.07052  -0.03905  -0.02699  -0.00862
 Alpha virt. eigenvalues --   -0.00419  -0.00123   0.00782   0.02736   0.03665
 Alpha virt. eigenvalues --    0.03845   0.04047   0.04572   0.04693   0.05119

 Mulliken charges:
               1
     1  C    0.041825
     2  C   -0.055846
     3  C   -0.098842
     4  C   -0.101445
     5  N   -0.121356
     6  C   -0.036500
     7  C   -0.066578
     8  C    0.029615
     9  C   -0.027056
    10  C   -0.027925
    11  C   -0.045917
    12  C    0.072793
    13  C    0.195792
    14  O   -0.240543
    15  O   -0.369505
    16  N    0.053005
    17  C   -0.015161
    18  C   -0.183558
    19  C    0.105168
    20  C    0.040044
    21  C    0.226959
    22  C   -0.104193
    23  C   -0.065132
    24  N   -0.213611
    25  C    0.043353
    26  C   -0.069094
    27  C   -0.166368
    28  C    0.085517
    29  C    0.037444
    30  C    0.176656
    31  C   -0.024483
    32  N    0.106017
    33  C   -0.033663
    34  C   -0.173480
    35  C   -0.053400
    36  C    0.010219
    37  C    0.073913
    38  C    0.053132
    39  O   -0.081726
    40  C   -0.140623
    41  C    0.188053
    42  O   -0.204495
    43  O   -0.298731
    44  C    0.128817
    45  C    0.297159
    46  C   -0.055271
    47  C   -0.069875
    48  C   -0.018968
    49  C    0.005410
    50  C   -0.065288
    51  C    0.032851
    52  C    0.055019
    53  C   -0.016879
    54  C   -0.069398
    55  C    0.102559
    56  C   -0.009127
    57  C   -0.150069
    58  C    0.026278
    59  C    0.044500
    60  C   -0.027218
    61  C    0.079280
    62  C    0.007170
    63  C   -0.028383
    64  C   -0.049486
    65  H   -0.009904
    66  H    0.010406
    67  H    0.028062
    68  H    0.033920
    69  H    0.007974
    70  H    0.022949
    71  H    0.028155
    72  H    0.065820
    73  H    0.058959
    74  H    0.010051
    75  H    0.004720
    76  H    0.053607
    77  H    0.035529
    78  H   -0.020925
    79  H    0.003736
    80  H    0.004589
    81  H   -0.003243
    82  H    0.039315
    83  H    0.023779
    84  H    0.019581
    85  H    0.036306
    86  H    0.002427
    87  H   -0.003822
    88  H   -0.010660
    89  H    0.020848
    90  H    0.011245
    91  H    0.051473
    92  H    0.031838
    93  H    0.047634
    94  H    0.063818
    95  H    0.033186
    96  H    0.046260
    97  H    0.044106
    98  H    0.030272
    99  H    0.010382
   100  H   -0.042357
   101  H    0.042057
   102  H    0.052406
   103  H    0.027230
   104  H    0.005170
   105  H    0.008267
   106  H    0.014111
   107  H    0.002193
   108  H   -0.014226
   109  H   -0.002191
   110  H   -0.067443
   111  H    0.001389
   112  H    0.041718
   113  H    0.009795
   114  H   -0.001489
   115  H   -0.011345
   116  H    0.012036
   117  H   -0.019345
   118  H    0.006414
   119  H   -0.022284
   120  H   -0.006891
   121  H    0.029162
   122  H    0.005425
   123  H    0.016289
   124  H    0.028094
   125  H    0.023256
   126  H   -0.012023
   127  H    0.001094
   128  H   -0.005816
   129  H    0.000291
   130  H   -0.039396
   131  H    0.014721
   132  H    0.014471
   133  H    0.016516
   134  H    0.011923
   135  H    0.000544
   136  H    0.003305
   137  H    0.130514
   138  H    0.154664
 Sum of Mulliken charges =  -0.00000

 Dipole moment (field-independent basis, Debye):
    X=              0.3777    Y=              3.6486    Z=              0.3358  Tot=              3.6834
 Quadrupole moment (field-independent basis, Debye-Ang):
   XX=           -341.0471   YY=           -380.9038   ZZ=           -397.8726
   XY=            -31.8877   XZ=              6.4521   YZ=              0.0699

 Normal termination of Gaussian 16 at Wed Aug 14 15:55:49 2019.
