 Gaussian 16, Revision A.03,
 Gaussian 16:  ES64L-G16RevA.03 25-Dec-2016

 --------------------------
 # td=(NStates=1) B3LYP/SVP
 --------------------------

 --
 TD
 --
 Symbolic Z-matrix:
 Charge =  0 Multiplicity = 1

                         Standard orientation:
 ---------------------------------------------------------------------
 Center     Atomic      Atomic             Coordinates (Angstroms)
 Number     Number       Type             X           Y           Z
 ---------------------------------------------------------------------
      1          6           0       -5.177853   -1.953931    0.423873
      2          6           0       -4.714306    2.636289    1.551593
      3          6           0       -9.274364    3.475635   -0.200077
      4          6           0       -9.845596   -1.264982   -1.111592
      5          7           0       -5.140703    0.379000    0.771782
      6          6           0       -4.549410   -0.788954    0.833031
      7          6           0       -3.076854   -0.626467    1.267044
      8          6           0       -3.155090    0.787322    1.957531
      9          6           0       -4.422396    1.275101    1.391032
     10          6           0       -3.227446    0.689234    3.514615
     11          6           0       -2.078679   -0.912069    0.143776
     12          6           0       -0.609573   -0.952406    0.695515
     13          6           0        0.374597   -1.242349   -0.478199
     14          8           0        0.040901   -1.817679   -1.554800
     15          8           0        1.619576   -0.821387   -0.123898
     16          7           0       -7.021325    2.807372    0.501147
     17          6           0       -5.942646    3.346011    1.254483
     18          6           0       -6.066963    4.737307    1.257807
     19          6           0       -7.323609    5.042594    0.673517
     20          6           0       -7.990339    3.661017    0.348518
     21          6           0       -5.106395    5.772446    1.731071
     22          6           0       -7.957712    6.341648    0.387893
     23          6           0       -8.840992    6.740602   -0.470525
     24          7           0       -9.132056    0.998089   -0.535327
     25          6           0       -9.785364    2.228270   -0.611248
     26          6           0      -11.231768    2.126659   -1.101895
     27          6           0      -11.398180    0.805331   -1.269622
     28          6           0      -10.090785    0.091879   -0.975936
     29          6           0      -12.163653    3.264225   -1.295689
     30          6           0      -12.555673   -0.035798   -1.783369
     31          6           0      -12.734622   -0.274703   -3.281126
     32          7           0       -7.564201   -1.247333   -0.322539
     33          6           0       -8.568870   -1.857088   -0.850067
     34          6           0       -8.235584   -3.326548   -0.840820
     35          6           0       -6.899054   -3.322586   -0.418482
     36          6           0       -6.458633   -2.026396   -0.097549
     37          6           0       -9.179624   -4.389528   -1.139072
     38          6           0       -5.770332   -4.345102   -0.058979
     39          8           0       -5.799401   -5.504137   -0.061453
     40          6           0       -4.577235   -3.423776    0.449554
     41          6           0       -4.055457   -3.965570    1.717007
     42          8           0       -4.541302   -3.570816    2.831296
     43          8           0       -3.145401   -4.913232    1.562799
     44          6           0       -2.718807   -5.663548    2.724818
     45          6           0        2.616578   -1.133536   -1.098380
     46          6           0        3.991737   -0.761284   -0.585575
     47          6           0        5.001046   -0.200324   -1.134876
     48          6           0        5.124324    0.308705   -2.662801
     49          6           0        6.348736    0.065978   -0.291144
     50          6           0        7.595469   -0.530746   -0.931024
     51          6           0        8.815501   -0.236671   -0.103355
     52          6           0       10.144425   -0.874246   -0.662658
     53          6           0       10.093685   -2.472146   -0.611691
     54          6           0       11.295368   -0.208753    0.037613
     55          6           0       12.666036   -0.636482   -0.388445
     56          6           0       13.922111    0.105598    0.216058
     57          6           0       15.217094   -0.032480   -0.403298
     58          6           0       15.830931   -1.510138   -0.156653
     59          6           0       16.291451    0.984465    0.269721
     60          6           0       17.567985    1.015682   -0.270715
     61          6           0       18.606652    1.797013    0.475275
     62          6           0       20.024606    1.718654   -0.082639
     63          6           0       20.109374    2.037635   -1.534595
     64          6           0       20.887512    2.500580    0.884220
     65          1           0       -4.112457    3.235527    2.169151
     66          1           0       -9.781580    4.506750   -0.291042
     67          1           0      -10.680807   -2.042608   -1.594886
     68          1           0       -2.891859   -1.290095    2.061310
     69          1           0       -2.278005    1.397593    1.718373
     70          1           0       -2.231929    0.445129    4.082111
     71          1           0       -3.686127    1.735103    3.936529
     72          1           0       -3.961306   -0.088703    3.901046
     73          1           0       -2.425898   -1.715452   -0.477061
     74          1           0       -2.123720   -0.028175   -0.633957
     75          1           0       -0.253457    0.001335    1.144135
     76          1           0       -0.288629   -1.777710    1.156571
     77          1           0       -4.010308    5.509758    1.175906
     78          1           0       -5.375262    6.982374    1.431647
     79          1           0       -5.127500    5.837035    3.022064
     80          1           0       -7.592987    6.929577    1.099012
     81          1           0       -9.288923    6.072729   -1.199343
     82          1           0       -9.246947    7.736002   -0.449213
     83          1           0      -12.187200    4.094559   -0.489627
     84          1           0      -12.145859    3.673594   -2.372400
     85          1           0      -13.354171    2.686868   -1.224045
     86          1           0      -12.479648   -1.091989   -1.311881
     87          1           0      -13.348943    0.311097   -1.324659
     88          1           0      -12.844523    0.709686   -3.778616
     89          1           0      -11.627810   -0.584672   -3.809185
     90          1           0      -13.632229   -0.859071   -3.503746
     91          1           0       -9.918382   -4.311697   -0.649914
     92          1           0       -9.545651   -4.196030   -2.279541
     93          1           0       -8.629736   -5.391707   -1.176927
     94          1           0       -3.692208   -3.516915   -0.238144
     95          1           0       -1.526499   -6.107706    2.357821
     96          1           0       -2.580129   -4.685323    3.627515
     97          1           0       -3.519432   -6.597961    3.033962
     98          1           0        2.423583   -2.272483   -1.188560
     99          1           0        2.399018   -0.735297   -2.286323
    100          1           0        4.118273   -1.116611    0.416483
    101          1           0        5.373268    1.349424   -2.707312
    102          1           0        5.983754   -0.277824   -3.146351
    103          1           0        4.208287    0.436271   -3.200292
    104          1           0        6.536893    1.171571   -0.342401
    105          1           0        6.376780   -0.167727    0.785508
    106          1           0        7.439552   -1.734731   -0.868550
    107          1           0        7.815908   -0.300803   -1.996360
    108          1           0        9.064644    0.827026   -0.135443
    109          1           0        8.588576   -0.638621    0.849490
    110          1           0       10.356908   -0.619547   -1.630554
    111          1           0        9.169232   -2.992106   -0.784175
    112          1           0       10.956450   -2.841407   -1.164334
    113          1           0       10.161253   -2.608599    0.685578
    114          1           0       11.195890    0.979309   -0.210635
    115          1           0       11.225613   -0.224038    1.301401
    116          1           0       12.718707   -1.858480   -0.131973
    117          1           0       12.620345   -0.563625   -1.496316
    118          1           0       13.848773    1.392802    0.254144
    119          1           0       13.958313   -0.193251    1.467548
    120          1           0       14.899869    0.179667   -1.563555
    121          1           0       14.995589   -2.245366   -0.775724
    122          1           0       16.854981   -1.620816   -0.374846
    123          1           0       15.731965   -1.878337    0.849395
    124          1           0       15.764342    1.981748    0.330256
    125          1           0       16.358276    0.528610    1.332434
    126          1           0       18.216721    0.104737   -0.439526
    127          1           0       17.601961    1.421049   -1.322828
    128          1           0       18.502574    2.894731    0.331542
    129          1           0       18.414270    1.656746    1.732177
    130          1           0       20.244217    0.599813    0.125772
    131          1           0       19.809881    3.068805   -1.796195
    132          1           0       21.186743    2.067222   -1.641400
    133          1           0       19.484847    1.522832   -2.203321
    134          1           0       20.783344    2.224605    2.015597
    135          1           0       21.878831    2.525807    0.487786
    136          1           0       20.257832    3.413648    1.017698
    137          1           0       -7.328839    1.892292    0.383784
    138          1           0       -7.642407    0.006544   -0.030382
 ---------------------------------------------------------------------

 SCF Done:  E(RB3LYP) =  -2732.88121820     A.U. after   16 cycles

 Excitation energies and oscillator strengths:

 Excited State   1:      Singlet-A      2.0312 eV  610.39 nm  f=0.2022  <S**2>=0.000
     235 -> 238       -0.29418
     236 -> 237        0.64087
 This state for optimization and/or second-order correction.
 Total Energy, E(TD-HF/TD-DFT) =  -2732.80657205
 Copying the excited state density for this state as the 1-particle RhoCI density.

 The electronic state is 1-A.
 Alpha  occ. eigenvalues --  -19.19499 -19.19188 -19.13612 -19.12850 -19.11489
 Alpha  occ. eigenvalues --  -14.36798 -14.36622 -14.31753 -14.31620 -10.32194
 Alpha  occ. eigenvalues --  -10.31856 -10.29860 -10.28770 -10.26539 -10.24383
 Alpha  occ. eigenvalues --  -10.23913 -10.23289 -10.22935 -10.22664 -10.22343
 Alpha  occ. eigenvalues --  -10.22341 -10.22016 -10.21975 -10.21849 -10.21765
 Alpha  occ. eigenvalues --  -10.21269 -10.20920 -10.20843 -10.20773 -10.20709
 Alpha  occ. eigenvalues --  -10.20708 -10.20678 -10.20591 -10.20515 -10.20507
 Alpha  occ. eigenvalues --  -10.20397 -10.20393 -10.20365 -10.19989 -10.19887
 Alpha  occ. eigenvalues --  -10.19873 -10.19855 -10.19792 -10.19721 -10.19573
 Alpha  occ. eigenvalues --  -10.19411 -10.19169 -10.19113 -10.19086 -10.19042
 Alpha  occ. eigenvalues --  -10.18993 -10.18990 -10.18979 -10.18841 -10.18793
 Alpha  occ. eigenvalues --  -10.18691 -10.18650 -10.18607 -10.18544 -10.18353
 Alpha  occ. eigenvalues --  -10.18258 -10.17988 -10.17890 -10.17739  -1.09885
 Alpha  occ. eigenvalues --   -1.09350  -1.06701  -0.99094  -0.99083  -0.98607
 Alpha  occ. eigenvalues --   -0.97672  -0.96464  -0.92416  -0.84171  -0.83087
 Alpha  occ. eigenvalues --   -0.82440  -0.82306  -0.81308  -0.80647  -0.80406
 Alpha  occ. eigenvalues --   -0.80178  -0.79660  -0.79330  -0.78714  -0.77898
 Alpha  occ. eigenvalues --   -0.77402  -0.76387  -0.75944  -0.75512  -0.74569
 Alpha  occ. eigenvalues --   -0.73308  -0.72796  -0.72305  -0.71181  -0.70158
 Alpha  occ. eigenvalues --   -0.69226  -0.69217  -0.68645  -0.68450  -0.67733
 Alpha  occ. eigenvalues --   -0.67258  -0.66522  -0.66426  -0.65803  -0.65474
 Alpha  occ. eigenvalues --   -0.63597  -0.62957  -0.62262  -0.61785  -0.61516
 Alpha  occ. eigenvalues --   -0.60918  -0.58049  -0.57877  -0.57490  -0.57072
 Alpha  occ. eigenvalues --   -0.56880  -0.55778  -0.55715  -0.55004  -0.54703
 Alpha  occ. eigenvalues --   -0.54359  -0.53844  -0.53642  -0.53214  -0.52894
 Alpha  occ. eigenvalues --   -0.52305  -0.52010  -0.51019  -0.50474  -0.50155
 Alpha  occ. eigenvalues --   -0.49893  -0.49261  -0.48541  -0.48444  -0.47928
 Alpha  occ. eigenvalues --   -0.47862  -0.47737  -0.47558  -0.47463  -0.47264
 Alpha  occ. eigenvalues --   -0.47132  -0.46567  -0.46278  -0.46082  -0.45822
 Alpha  occ. eigenvalues --   -0.45507  -0.45396  -0.44932  -0.44892  -0.44394
 Alpha  occ. eigenvalues --   -0.44111  -0.44030  -0.43920  -0.43777  -0.43567
 Alpha  occ. eigenvalues --   -0.43472  -0.43284  -0.43055  -0.42819  -0.42500
 Alpha  occ. eigenvalues --   -0.42286  -0.42086  -0.41752  -0.41522  -0.41232
 Alpha  occ. eigenvalues --   -0.41106  -0.41072  -0.40743  -0.40639  -0.40506
 Alpha  occ. eigenvalues --   -0.40214  -0.40129  -0.39858  -0.39644  -0.39414
 Alpha  occ. eigenvalues --   -0.39248  -0.39165  -0.38990  -0.38619  -0.38469
 Alpha  occ. eigenvalues --   -0.38409  -0.38142  -0.37808  -0.37667  -0.37618
 Alpha  occ. eigenvalues --   -0.37295  -0.37142  -0.36877  -0.36858  -0.36767
 Alpha  occ. eigenvalues --   -0.36456  -0.36169  -0.36091  -0.35913  -0.35700
 Alpha  occ. eigenvalues --   -0.35443  -0.35330  -0.34739  -0.34658  -0.34276
 Alpha  occ. eigenvalues --   -0.34173  -0.34014  -0.33858  -0.33548  -0.33379
 Alpha  occ. eigenvalues --   -0.32912  -0.32633  -0.32480  -0.32335  -0.32196
 Alpha  occ. eigenvalues --   -0.31846  -0.31694  -0.31514  -0.31240  -0.31027
 Alpha  occ. eigenvalues --   -0.30795  -0.30466  -0.30324  -0.30139  -0.29876
 Alpha  occ. eigenvalues --   -0.29202  -0.28851  -0.28391  -0.27929  -0.27833
 Alpha  occ. eigenvalues --   -0.27630  -0.26949  -0.26733  -0.26445  -0.26020
 Alpha  occ. eigenvalues --   -0.25266  -0.24901  -0.24137  -0.23820  -0.19653
 Alpha  occ. eigenvalues --   -0.18197
 Alpha virt. eigenvalues --   -0.09819  -0.07296  -0.03548  -0.01717  -0.00882
 Alpha virt. eigenvalues --   -0.00596   0.01059   0.01257   0.02275   0.02525
 Alpha virt. eigenvalues --    0.03107   0.03233   0.03744   0.04189   0.04247

 Mulliken charges:
               1
     1  C    0.013719
     2  C   -0.055817
     3  C   -0.104473
     4  C   -0.154594
     5  N   -0.079672
     6  C   -0.156517
     7  C    0.055183
     8  C   -0.046183
     9  C    0.006883
    10  C   -0.029298
    11  C    0.071979
    12  C    0.123480
    13  C    0.156689
    14  O   -0.281559
    15  O   -0.299482
    16  N    0.020797
    17  C    0.099853
    18  C   -0.057188
    19  C   -0.030702
    20  C   -0.028834
    21  C   -0.099290
    22  C    0.022215
    23  C   -0.002057
    24  N   -0.314016
    25  C    0.123317
    26  C   -0.105269
    27  C   -0.079090
    28  C    0.108461
    29  C   -0.025504
    30  C    0.114950
    31  C   -0.008066
    32  N   -0.108620
    33  C    0.034926
    34  C   -0.210297
    35  C   -0.071806
    36  C    0.127899
    37  C    0.218179
    38  C    0.108808
    39  O   -0.093974
    40  C   -0.034871
    41  C    0.202812
    42  O   -0.297427
    43  O   -0.263548
    44  C    0.012557
    45  C    0.177676
    46  C   -0.060003
    47  C   -0.085280
    48  C    0.066864
    49  C    0.082562
    50  C   -0.058051
    51  C    0.081703
    52  C   -0.015182
    53  C   -0.025995
    54  C   -0.069966
    55  C    0.020662
    56  C   -0.045555
    57  C   -0.094066
    58  C    0.008034
    59  C    0.055806
    60  C    0.074937
    61  C   -0.108188
    62  C   -0.125618
    63  C    0.095165
    64  C    0.070467
    65  H   -0.032836
    66  H    0.000391
    67  H    0.039206
    68  H   -0.033013
    69  H   -0.006540
    70  H    0.032619
    71  H    0.025173
    72  H    0.042061
    73  H    0.010746
    74  H    0.011915
    75  H    0.041406
    76  H   -0.005439
    77  H    0.067553
    78  H    0.058195
    79  H    0.066645
    80  H   -0.054156
    81  H    0.019635
    82  H    0.017005
    83  H    0.058682
    84  H    0.054473
    85  H    0.029351
    86  H   -0.005225
    87  H   -0.050485
    88  H    0.003451
    89  H    0.033909
    90  H    0.028774
    91  H   -0.071635
    92  H    0.028788
    93  H    0.050634
    94  H    0.058104
    95  H    0.072852
    96  H    0.087391
    97  H    0.099506
    98  H    0.031666
    99  H    0.052851
   100  H   -0.022185
   101  H   -0.000064
   102  H    0.051292
   103  H    0.000432
   104  H   -0.000167
   105  H   -0.000023
   106  H    0.006610
   107  H    0.005071
   108  H   -0.011662
   109  H   -0.017673
   110  H   -0.041162
   111  H    0.021816
   112  H    0.031036
   113  H    0.011146
   114  H    0.009791
   115  H    0.008080
   116  H    0.032873
   117  H   -0.007982
   118  H    0.008137
   119  H    0.010057
   120  H    0.015345
   121  H    0.021917
   122  H    0.009016
   123  H    0.001568
   124  H    0.002212
   125  H    0.000691
   126  H   -0.005522
   127  H   -0.015568
   128  H   -0.019000
   129  H    0.007773
   130  H   -0.001381
   131  H   -0.011414
   132  H    0.003321
   133  H    0.013711
   134  H    0.012148
   135  H    0.009187
   136  H   -0.010889
   137  H    0.101281
   138  H    0.276003
 Sum of Mulliken charges =  -0.00000

 Dipole moment (field-independent basis, Debye):
    X=              2.6062    Y=              3.8032    Z=             -0.0802  Tot=              4.6112
 Quadrupole moment (field-independent basis, Debye-Ang):
   XX=           -345.6950   YY=           -383.3637   ZZ=           -397.0966
   XY=            -19.3305   XZ=              2.0492   YZ=             -2.4609

 Normal termination of Gaussian 16 at Wed Aug 28 15:54:23 2019.
