 Gaussian 16, Revision A.03,
 Gaussian 16:  ES64L-G16RevA.03 25-Dec-2016

 --------------------------
 # td=(NStates=1) B3LYP/SVP
 --------------------------

 --
 TD
 --
 Symbolic Z-matrix:
 Charge =  0 Multiplicity = 1

                         Standard orientation:
 ---------------------------------------------------------------------
 Center     Atomic      Atomic             Coordinates (Angstroms)
 Number     Number       Type             X           Y           Z
 ---------------------------------------------------------------------
      1          6           0       -5.074337   -1.885972    0.438596
      2          6           0       -4.646521    2.861947    1.290099
      3          6           0       -9.358877    3.328193   -0.240789
      4          6           0       -9.845992   -1.525713   -0.881915
      5          7           0       -5.217765    0.501911    0.790580
      6          6           0       -4.482484   -0.668139    0.747841
      7          6           0       -3.015259   -0.439718    1.059717
      8          6           0       -2.964219    0.898163    1.750150
      9          6           0       -4.350139    1.487155    1.272778
     10          6           0       -2.944373    0.913979    3.247056
     11          6           0       -2.219109   -0.605055   -0.049891
     12          6           0       -0.628015   -0.836778    0.328120
     13          6           0        0.322081   -0.846223   -0.824679
     14          8           0        0.022758   -0.970181   -2.068021
     15          8           0        1.598451   -0.740579   -0.237980
     16          7           0       -6.964395    2.713974    0.501454
     17          6           0       -5.879298    3.425194    0.932396
     18          6           0       -6.190981    4.828027    0.947675
     19          6           0       -7.468897    4.994683    0.386800
     20          6           0       -8.089124    3.583703    0.249129
     21          6           0       -5.269167    5.917439    1.408228
     22          6           0       -8.198242    6.239908    0.277669
     23          6           0       -9.072218    6.513745   -0.799855
     24          7           0       -9.249826    0.823059   -0.336437
     25          6           0       -9.918062    2.018981   -0.409832
     26          6           0      -11.341603    1.819417   -0.743068
     27          6           0      -11.431879    0.420568   -1.032442
     28          6           0      -10.224333   -0.123612   -0.705619
     29          6           0      -12.304606    2.822105   -0.969421
     30          6           0      -12.750953   -0.371086   -1.481945
     31          6           0      -12.725475   -0.691863   -2.909281
     32          7           0       -7.475206   -1.207800   -0.186481
     33          6           0       -8.613650   -2.066062   -0.501587
     34          6           0       -8.219089   -3.466771   -0.592313
     35          6           0       -6.828660   -3.412750   -0.203109
     36          6           0       -6.449601   -2.071599    0.110684
     37          6           0       -9.010564   -4.628079   -0.912382
     38          6           0       -5.600122   -4.258515   -0.011840
     39          8           0       -5.546474   -5.526815    0.062493
     40          6           0       -4.524358   -3.285334    0.398450
     41          6           0       -3.890979   -3.812247    1.719392
     42          8           0       -3.973243   -3.185623    2.799266
     43          8           0       -3.079624   -4.944151    1.410373
     44          6           0       -2.462060   -5.491248    2.555352
     45          6           0        2.535547   -1.010494   -1.229156
     46          6           0        3.900293   -0.683156   -0.531493
     47          6           0        4.888955    0.105286   -1.048700
     48          6           0        4.871408    0.811940   -2.288114
     49          6           0        6.194167    0.208653   -0.209322
     50          6           0        7.475527   -0.408065   -0.847444
     51          6           0        8.846993   -0.336014    0.004409
     52          6           0       10.094092   -0.737348   -0.727062
     53          6           0       10.050852   -2.267122   -1.066348
     54          6           0       11.323349   -0.288876    0.002341
     55          6           0       12.657869   -0.755939   -0.457725
     56          6           0       13.893596   -0.107218    0.295212
     57          6           0       15.244330   -0.119145   -0.299549
     58          6           0       15.664875   -1.633262   -0.516638
     59          6           0       16.304111    0.593690    0.653958
     60          6           0       17.601486    0.875966   -0.147090
     61          6           0       18.736128    1.576703    0.623891
     62          6           0       20.048023    1.542456    0.056695
     63          6           0       20.160369    2.123662   -1.339185
     64          6           0       21.075112    2.370188    1.128136
     65          1           0       -3.965144    3.688525    1.829748
     66          1           0      -10.141414    4.207931   -0.030338
     67          1           0      -10.630324   -2.376452   -1.248754
     68          1           0       -2.939549   -1.259033    1.725381
     69          1           0       -2.300402    1.492135    1.212655
     70          1           0       -2.168743    0.377599    3.594019
     71          1           0       -2.775015    2.058747    3.813836
     72          1           0       -3.990963    0.448049    3.515801
     73          1           0       -2.632027   -1.494029   -0.925838
     74          1           0       -2.350179    0.368802   -0.743441
     75          1           0       -0.352485   -0.018916    1.017966
     76          1           0       -0.244800   -1.809636    0.976629
     77          1           0       -4.407731    6.053321    0.683982
     78          1           0       -5.891992    6.987495    1.655310
     79          1           0       -4.976278    5.784535    2.390493
     80          1           0       -7.809157    7.087738    0.994232
     81          1           0       -9.339729    5.765478   -1.585498
     82          1           0       -9.805941    7.525571   -0.861873
     83          1           0      -12.548530    3.481105   -0.017212
     84          1           0      -11.838924    3.648947   -1.791552
     85          1           0      -13.420290    2.446307   -1.353946
     86          1           0      -12.980080   -1.062193   -0.840539
     87          1           0      -13.680729    0.334924   -1.316784
     88          1           0      -12.453822    0.155063   -3.477672
     89          1           0      -11.861821   -1.221134   -3.133981
     90          1           0      -13.724045   -1.210696   -3.172658
     91          1           0       -9.959402   -4.600173   -0.330817
     92          1           0       -9.154329   -4.747917   -2.061487
     93          1           0       -8.657768   -5.749493   -0.663602
     94          1           0       -3.844918   -3.491981   -0.549813
     95          1           0       -2.120449   -6.644573    1.890462
     96          1           0       -1.475667   -4.856685    2.896645
     97          1           0       -3.135427   -5.636998    3.680319
     98          1           0        2.278875   -2.030948   -1.654018
     99          1           0        2.318925   -0.351520   -2.055653
    100          1           0        4.172487   -1.163897    0.372291
    101          1           0        5.313768    1.822304   -2.361575
    102          1           0        5.335575    0.158060   -3.103787
    103          1           0        3.823690    1.076427   -2.629441
    104          1           0        6.420048    1.245469   -0.115492
    105          1           0        6.008605   -0.196487    0.816037
    106          1           0        7.349422   -1.578181   -0.938762
    107          1           0        7.592452    0.105299   -1.848698
    108          1           0        8.733760    0.836068    0.345132
    109          1           0        8.691286   -0.786911    0.966357
    110          1           0       10.022647   -0.270990   -1.761548
    111          1           0        9.020000   -2.549219   -1.514550
    112          1           0       10.984455   -2.481500   -1.723851
    113          1           0       10.063436   -2.852700   -0.088355
    114          1           0       11.231072    0.852409    0.224940
    115          1           0       11.185615   -0.638673    1.052737
    116          1           0       12.961633   -1.833884   -0.597125
    117          1           0       12.896487   -0.460027   -1.554125
    118          1           0       13.809815    0.890812    0.516109
    119          1           0       13.987841   -0.423707    1.328499
    120          1           0       15.394391    0.392082   -1.347384
    121          1           0       15.199579   -2.034389   -1.435408
    122          1           0       16.898590   -1.774889   -0.684252
    123          1           0       15.533657   -2.423830    0.362431
    124          1           0       15.749528    1.613123    1.120098
    125          1           0       16.543173    0.024011    1.641998
    126          1           0       18.045819   -0.188095   -0.396753
    127          1           0       17.528060    1.637181   -1.055487
    128          1           0       18.409959    2.637160    0.775456
    129          1           0       18.904932    1.352694    1.735067
    130          1           0       20.382669    0.432577   -0.238127
    131          1           0       19.591718    3.121101   -1.613385
    132          1           0       21.216632    2.229820   -1.506643
    133          1           0       19.753729    1.225835   -2.026663
    134          1           0       20.881218    1.929682    2.077060
    135          1           0       22.134971    2.428269    0.751701
    136          1           0       20.622967    3.337528    1.003247
    137          1           0       -6.850614    1.641774    0.736436
    138          1           0       -7.764905   -0.251489    0.099082
 ---------------------------------------------------------------------

 SCF Done:  E(RB3LYP) =  -2732.96963419     A.U. after   17 cycles

 Excitation energies and oscillator strengths:

 Excited State   1:      Singlet-A      1.9800 eV  626.18 nm  f=0.1178  <S**2>=0.000
     235 -> 238       -0.32232
     236 -> 237        0.61940
 This state for optimization and/or second-order correction.
 Total Energy, E(TD-HF/TD-DFT) =  -2732.89686987
 Copying the excited state density for this state as the 1-particle RhoCI density.

 The electronic state is 1-A.
 Alpha  occ. eigenvalues --  -19.19304 -19.18268 -19.14915 -19.14036 -19.11785
 Alpha  occ. eigenvalues --  -14.37345 -14.36508 -14.33326 -14.29912 -10.33773
 Alpha  occ. eigenvalues --  -10.32804 -10.28858 -10.28184 -10.25147 -10.24394
 Alpha  occ. eigenvalues --  -10.24134 -10.24044 -10.24033 -10.23762 -10.23691
 Alpha  occ. eigenvalues --  -10.22973 -10.22664 -10.22647 -10.22558 -10.22496
 Alpha  occ. eigenvalues --  -10.22398 -10.22255 -10.21680 -10.21460 -10.21459
 Alpha  occ. eigenvalues --  -10.21387 -10.21275 -10.21226 -10.21093 -10.20788
 Alpha  occ. eigenvalues --  -10.20722 -10.20644 -10.20548 -10.20475 -10.20311
 Alpha  occ. eigenvalues --  -10.20213 -10.20140 -10.20134 -10.20058 -10.19739
 Alpha  occ. eigenvalues --  -10.19702 -10.19498 -10.19486 -10.19480 -10.19477
 Alpha  occ. eigenvalues --  -10.19471 -10.19460 -10.19107 -10.19091 -10.19047
 Alpha  occ. eigenvalues --  -10.18730 -10.18705 -10.18471 -10.18435 -10.18253
 Alpha  occ. eigenvalues --  -10.18114 -10.17667 -10.17120 -10.16996  -1.08759
 Alpha  occ. eigenvalues --   -1.08124  -1.01077  -0.99461  -0.99126  -0.96522
 Alpha  occ. eigenvalues --   -0.96140  -0.93943  -0.92289  -0.85126  -0.83099
 Alpha  occ. eigenvalues --   -0.82326  -0.81761  -0.81420  -0.81199  -0.80885
 Alpha  occ. eigenvalues --   -0.80081  -0.79892  -0.79122  -0.78665  -0.77624
 Alpha  occ. eigenvalues --   -0.76678  -0.75426  -0.75334  -0.74749  -0.74085
 Alpha  occ. eigenvalues --   -0.73390  -0.72454  -0.72238  -0.71241  -0.70294
 Alpha  occ. eigenvalues --   -0.69996  -0.69115  -0.68227  -0.67375  -0.67247
 Alpha  occ. eigenvalues --   -0.66691  -0.66077  -0.65831  -0.65355  -0.64916
 Alpha  occ. eigenvalues --   -0.63753  -0.62882  -0.62055  -0.61861  -0.61287
 Alpha  occ. eigenvalues --   -0.60255  -0.58716  -0.58170  -0.57899  -0.56936
 Alpha  occ. eigenvalues --   -0.56800  -0.56676  -0.55294  -0.55078  -0.54393
 Alpha  occ. eigenvalues --   -0.54380  -0.53695  -0.53567  -0.53383  -0.52729
 Alpha  occ. eigenvalues --   -0.52449  -0.51629  -0.51339  -0.50576  -0.50422
 Alpha  occ. eigenvalues --   -0.49836  -0.48947  -0.48590  -0.48363  -0.47660
 Alpha  occ. eigenvalues --   -0.47214  -0.47016  -0.46844  -0.46542  -0.46293
 Alpha  occ. eigenvalues --   -0.46277  -0.45934  -0.45844  -0.45591  -0.45505
 Alpha  occ. eigenvalues --   -0.45038  -0.44778  -0.44640  -0.44464  -0.44241
 Alpha  occ. eigenvalues --   -0.43886  -0.43758  -0.43585  -0.43501  -0.43327
 Alpha  occ. eigenvalues --   -0.43183  -0.43087  -0.42821  -0.42716  -0.42546
 Alpha  occ. eigenvalues --   -0.42300  -0.42005  -0.41752  -0.41646  -0.41173
 Alpha  occ. eigenvalues --   -0.40919  -0.40791  -0.40764  -0.40620  -0.40173
 Alpha  occ. eigenvalues --   -0.40007  -0.39876  -0.39617  -0.39424  -0.39405
 Alpha  occ. eigenvalues --   -0.39298  -0.38914  -0.38682  -0.38570  -0.38355
 Alpha  occ. eigenvalues --   -0.38264  -0.38054  -0.37729  -0.37540  -0.37317
 Alpha  occ. eigenvalues --   -0.36980  -0.36947  -0.36844  -0.36815  -0.36649
 Alpha  occ. eigenvalues --   -0.36410  -0.36136  -0.35962  -0.35611  -0.35376
 Alpha  occ. eigenvalues --   -0.35119  -0.35041  -0.34859  -0.34805  -0.34553
 Alpha  occ. eigenvalues --   -0.34399  -0.34189  -0.33966  -0.33807  -0.33636
 Alpha  occ. eigenvalues --   -0.33164  -0.32572  -0.32439  -0.32353  -0.32155
 Alpha  occ. eigenvalues --   -0.32093  -0.31860  -0.31565  -0.31485  -0.30848
 Alpha  occ. eigenvalues --   -0.30495  -0.30330  -0.30170  -0.30098  -0.29753
 Alpha  occ. eigenvalues --   -0.29503  -0.29016  -0.29000  -0.28758  -0.28447
 Alpha  occ. eigenvalues --   -0.28036  -0.27904  -0.27125  -0.26427  -0.25954
 Alpha  occ. eigenvalues --   -0.24726  -0.24591  -0.23955  -0.21775  -0.20195
 Alpha  occ. eigenvalues --   -0.19225
 Alpha virt. eigenvalues --   -0.10551  -0.08904  -0.05080  -0.03434  -0.02924
 Alpha virt. eigenvalues --   -0.02732  -0.00540  -0.00327   0.01687   0.02493
 Alpha virt. eigenvalues --    0.02829   0.03486   0.03940   0.04113   0.04239

 Mulliken charges:
               1
     1  C    0.030342
     2  C   -0.077892
     3  C   -0.112080
     4  C   -0.097911
     5  N   -0.232335
     6  C   -0.104000
     7  C    0.101754
     8  C    0.053440
     9  C   -0.025091
    10  C    0.079842
    11  C   -0.048028
    12  C   -0.006925
    13  C    0.224613
    14  O   -0.281458
    15  O   -0.324149
    16  N   -0.137166
    17  C    0.051595
    18  C   -0.127664
    19  C    0.008952
    20  C    0.130089
    21  C    0.068185
    22  C   -0.069132
    23  C   -0.100226
    24  N   -0.277700
    25  C    0.052092
    26  C   -0.067051
    27  C   -0.137878
    28  C    0.086015
    29  C   -0.066771
    30  C    0.116559
    31  C    0.090259
    32  N   -0.092276
    33  C    0.054396
    34  C   -0.069335
    35  C   -0.022894
    36  C    0.089325
    37  C   -0.011672
    38  C    0.053215
    39  O   -0.228292
    40  C   -0.035989
    41  C    0.281569
    42  O   -0.239853
    43  O   -0.290071
    44  C    0.025128
    45  C    0.266754
    46  C   -0.035722
    47  C   -0.145677
    48  C    0.041682
    49  C    0.099741
    50  C   -0.051803
    51  C   -0.028047
    52  C   -0.029978
    53  C   -0.030216
    54  C    0.068756
    55  C    0.039529
    56  C    0.122429
    57  C   -0.092696
    58  C   -0.070240
    59  C   -0.042615
    60  C   -0.009879
    61  C    0.037793
    62  C   -0.151359
    63  C   -0.021419
    64  C    0.026727
    65  H    0.014196
    66  H    0.053228
    67  H    0.037878
    68  H   -0.029833
    69  H   -0.038768
    70  H   -0.008625
    71  H    0.034640
    72  H    0.050744
    73  H    0.059405
    74  H    0.030634
    75  H    0.034195
    76  H    0.068926
    77  H    0.058121
    78  H    0.023045
    79  H    0.011666
    80  H    0.039395
    81  H    0.058893
    82  H    0.057470
    83  H    0.037149
    84  H    0.044959
    85  H    0.045226
    86  H   -0.044720
    87  H   -0.015535
    88  H   -0.012972
    89  H   -0.025687
    90  H    0.027331
    91  H    0.040696
    92  H    0.054495
    93  H    0.060505
    94  H    0.088893
    95  H    0.071013
    96  H    0.054013
    97  H    0.079240
    98  H    0.022230
    99  H   -0.002302
   100  H   -0.029647
   101  H    0.015048
   102  H    0.047279
   103  H    0.017299
   104  H   -0.014116
   105  H   -0.004020
   106  H    0.017104
   107  H    0.014792
   108  H   -0.006856
   109  H   -0.011971
   110  H   -0.005793
   111  H    0.028328
   112  H    0.040696
   113  H    0.008128
   114  H    0.007379
   115  H   -0.015179
   116  H    0.014250
   117  H   -0.012072
   118  H   -0.058023
   119  H   -0.028548
   120  H    0.014474
   121  H    0.021950
   122  H    0.011500
   123  H    0.027426
   124  H    0.007766
   125  H    0.018759
   126  H    0.023562
   127  H    0.036412
   128  H   -0.020334
   129  H   -0.019236
   130  H    0.004989
   131  H    0.022713
   132  H    0.004761
   133  H    0.025593
   134  H    0.016721
   135  H    0.023131
   136  H    0.007086
   137  H    0.202226
   138  H    0.159391
 Sum of Mulliken charges =  -0.00000

 Dipole moment (field-independent basis, Debye):
    X=              1.5483    Y=              4.1877    Z=              1.6027  Tot=              4.7437
 Quadrupole moment (field-independent basis, Debye-Ang):
   XX=           -363.7941   YY=           -385.8260   ZZ=           -399.3598
   XY=            -16.1791   XZ=              4.0307   YZ=              4.6201

 Normal termination of Gaussian 16 at Sun Aug 11 01:24:30 2019.
