 Gaussian 16, Revision A.03,
 Gaussian 16:  ES64L-G16RevA.03 25-Dec-2016

 --------------------------
 # td=(NStates=1) B3LYP/SVP
 --------------------------

 --
 TD
 --
 Symbolic Z-matrix:
 Charge =  0 Multiplicity = 1

                         Standard orientation:
 ---------------------------------------------------------------------
 Center     Atomic      Atomic             Coordinates (Angstroms)
 Number     Number       Type             X           Y           Z
 ---------------------------------------------------------------------
      1          6           0       -5.050973   -1.999847    0.527106
      2          6           0       -4.739600    2.783049    1.532360
      3          6           0       -9.275187    3.417452   -0.345368
      4          6           0       -9.706050   -1.422048   -0.905986
      5          7           0       -5.209962    0.453618    0.883784
      6          6           0       -4.480427   -0.757833    0.877709
      7          6           0       -3.073536   -0.549980    1.386902
      8          6           0       -3.097421    0.874627    1.910810
      9          6           0       -4.389496    1.355961    1.380585
     10          6           0       -3.104152    0.819209    3.515233
     11          6           0       -2.021429   -0.902459    0.191363
     12          6           0       -0.511804   -0.897240    0.693673
     13          6           0        0.333372   -1.274659   -0.485972
     14          8           0        0.140799   -1.834311   -1.497803
     15          8           0        1.573434   -0.874409   -0.078816
     16          7           0       -7.091831    2.816616    0.591172
     17          6           0       -5.969972    3.343901    1.172079
     18          6           0       -6.243485    4.791039    1.159157
     19          6           0       -7.413483    5.065932    0.458954
     20          6           0       -8.027562    3.716524    0.148556
     21          6           0       -5.340279    5.825071    1.757063
     22          6           0       -8.055309    6.380180    0.194027
     23          6           0       -9.011196    6.676080   -0.643913
     24          7           0       -9.131871    0.939092   -0.513027
     25          6           0       -9.826710    2.115153   -0.628369
     26          6           0      -11.210712    1.882006   -1.040809
     27          6           0      -11.378844    0.514720   -1.213026
     28          6           0       -9.986601    0.001566   -0.898560
     29          6           0      -12.163325    2.975377   -1.358016
     30          6           0      -12.557441   -0.107614   -1.702635
     31          6           0      -12.502466   -0.427450   -3.264382
     32          7           0       -7.348582   -1.194013   -0.168910
     33          6           0       -8.506234   -1.951900   -0.612120
     34          6           0       -8.057630   -3.389673   -0.591033
     35          6           0       -6.710692   -3.398443   -0.258914
     36          6           0       -6.290327   -2.031719    0.058577
     37          6           0       -8.947806   -4.489079   -0.951406
     38          6           0       -5.660047   -4.298090   -0.126593
     39          8           0       -5.649635   -5.523014   -0.098645
     40          6           0       -4.498450   -3.392732    0.382775
     41          6           0       -3.904133   -3.912694    1.665612
     42          8           0       -4.205092   -3.426110    2.765029
     43          8           0       -3.176555   -4.908924    1.513006
     44          6           0       -2.763532   -5.602830    2.636030
     45          6           0        2.718779   -1.040661   -1.014945
     46          6           0        3.992981   -0.523529   -0.523662
     47          6           0        4.938767    0.098026   -1.238417
     48          6           0        4.762890    0.549864   -2.716152
     49          6           0        6.264382    0.399018   -0.494458
     50          6           0        7.448447   -0.312113   -1.016290
     51          6           0        8.734949    0.150146   -0.332731
     52          6           0        9.952308   -0.699289   -0.834806
     53          6           0        9.902733   -2.196536   -0.777077
     54          6           0       11.230348   -0.171770   -0.125175
     55          6           0       12.554512   -0.785324   -0.591226
     56          6           0       13.818888   -0.014395    0.100021
     57          6           0       15.094148   -0.194050   -0.365404
     58          6           0       15.545498   -1.736894   -0.311504
     59          6           0       16.145024    0.672688    0.300244
     60          6           0       17.586128    0.685125   -0.232198
     61          6           0       18.522109    1.670680    0.569272
     62          6           0       20.003342    1.729461    0.228275
     63          6           0       20.280249    1.984946   -1.224129
     64          6           0       20.872375    2.633502    1.152271
     65          1           0       -3.961381    3.465057    2.094442
     66          1           0      -10.056102    4.151844   -0.410739
     67          1           0      -10.618468   -2.088228   -1.092060
     68          1           0       -2.850149   -1.534080    1.976551
     69          1           0       -2.237133    1.437778    1.617960
     70          1           0       -2.078436    0.664383    3.914775
     71          1           0       -3.301992    1.794653    3.928676
     72          1           0       -3.860298    0.269258    3.943355
     73          1           0       -2.139163   -1.989598   -0.151060
     74          1           0       -2.219939   -0.271189   -0.733497
     75          1           0       -0.176252    0.034245    0.875810
     76          1           0       -0.255874   -1.581267    1.460151
     77          1           0       -4.485035    5.889944    1.127113
     78          1           0       -5.877351    6.723285    1.846818
     79          1           0       -5.071421    5.439149    2.803442
     80          1           0       -7.462854    7.249348    0.803917
     81          1           0       -9.627644    5.831184   -1.180946
     82          1           0       -9.200935    7.748722   -0.585832
     83          1           0      -12.071391    3.544139   -0.348999
     84          1           0      -11.822648    3.604673   -2.127217
     85          1           0      -13.172117    2.448826   -1.506289
     86          1           0      -12.876166   -1.109815   -1.181377
     87          1           0      -13.318121    0.311279   -1.760196
     88          1           0      -12.477668    0.509041   -3.860497
     89          1           0      -11.617566   -0.959305   -3.786635
     90          1           0      -13.529254   -0.820215   -3.494174
     91          1           0      -10.165948   -4.355393   -0.475975
     92          1           0       -9.151760   -4.484595   -2.101136
     93          1           0       -8.614274   -5.516557   -0.686089
     94          1           0       -3.548036   -3.297098   -0.321980
     95          1           0       -2.233875   -6.572955    2.144876
     96          1           0       -2.054414   -4.955725    3.259091
     97          1           0       -3.626642   -5.743090    3.320573
     98          1           0        2.765895   -2.144275   -1.271665
     99          1           0        2.379149   -0.598434   -1.982163
    100          1           0        4.312550   -0.809364    0.427853
    101          1           0        5.014960    1.583768   -2.914381
    102          1           0        5.358850   -0.158660   -3.359230
    103          1           0        3.656266    0.347581   -3.060088
    104          1           0        6.346893    1.319063   -0.399204
    105          1           0        6.134462    0.068780    0.509964
    106          1           0        7.313892   -1.555434   -0.898720
    107          1           0        7.815857   -0.392996   -2.110494
    108          1           0        9.064029    1.225207   -0.397925
    109          1           0        8.553743    0.016031    0.795049
    110          1           0       10.207305   -0.405046   -1.856628
    111          1           0        9.108499   -2.670475   -1.525784
    112          1           0       10.912083   -2.865115   -1.050445
    113          1           0        9.709295   -2.401096    0.311078
    114          1           0       11.381949    0.990956   -0.261020
    115          1           0       11.197661   -0.395084    0.962854
    116          1           0       12.565936   -1.833208   -0.375267
    117          1           0       12.685899   -0.504845   -1.812711
    118          1           0       13.522249    1.160341    0.016175
    119          1           0       13.708064   -0.250708    1.119519
    120          1           0       15.293233    0.068619   -1.466055
    121          1           0       14.964973   -2.389072   -0.895917
    122          1           0       16.597031   -1.836906   -0.710530
    123          1           0       15.517201   -2.137573    0.711233
    124          1           0       15.894359    1.789839    0.131717
    125          1           0       16.146544    0.263741    1.377055
    126          1           0       18.049935   -0.287043   -0.333146
    127          1           0       17.583633    1.033657   -1.182323
    128          1           0       17.920633    2.561426    0.639583
    129          1           0       18.460372    1.307605    1.593119
    130          1           0       20.404376    0.709008    0.501600
    131          1           0       20.178651    3.118683   -1.386595
    132          1           0       21.287043    1.960964   -1.523068
    133          1           0       19.579986    1.619050   -2.007885
    134          1           0       20.588482    2.605413    2.300665
    135          1           0       22.108321    2.335882    1.180617
    136          1           0       20.539618    3.729661    0.901942
    137          1           0       -7.145357    1.833164    0.583690
    138          1           0       -7.267606   -0.206575   -0.008874
 ---------------------------------------------------------------------

 SCF Done:  E(RB3LYP) =  -2733.09533997     A.U. after   16 cycles

 Excitation energies and oscillator strengths:

 Excited State   1:      Singlet-A      1.9721 eV  628.69 nm  f=0.1775  <S**2>=0.000
     235 -> 238       -0.26707
     236 -> 237        0.63070
     236 -> 238        0.14630
 This state for optimization and/or second-order correction.
 Total Energy, E(TD-HF/TD-DFT) =  -2733.02286664
 Copying the excited state density for this state as the 1-particle RhoCI density.

 The electronic state is 1-A.
 Alpha  occ. eigenvalues --  -19.19483 -19.16245 -19.13078 -19.11709 -19.11082
 Alpha  occ. eigenvalues --  -14.36753 -14.36724 -14.33208 -14.29368 -10.31044
 Alpha  occ. eigenvalues --  -10.30951 -10.27114 -10.26301 -10.24869 -10.23933
 Alpha  occ. eigenvalues --  -10.23775 -10.23660 -10.23615 -10.23586 -10.22846
 Alpha  occ. eigenvalues --  -10.22127 -10.21675 -10.21505 -10.21291 -10.21206
 Alpha  occ. eigenvalues --  -10.20894 -10.20882 -10.20868 -10.20836 -10.20676
 Alpha  occ. eigenvalues --  -10.20654 -10.20602 -10.20400 -10.20383 -10.20335
 Alpha  occ. eigenvalues --  -10.20287 -10.20064 -10.20061 -10.19633 -10.19618
 Alpha  occ. eigenvalues --  -10.19602 -10.19578 -10.19538 -10.19495 -10.19392
 Alpha  occ. eigenvalues --  -10.19251 -10.19245 -10.19190 -10.19014 -10.18968
 Alpha  occ. eigenvalues --  -10.18903 -10.18644 -10.18635 -10.18494 -10.18268
 Alpha  occ. eigenvalues --  -10.18258 -10.17931 -10.17722 -10.17699 -10.17662
 Alpha  occ. eigenvalues --  -10.17635 -10.17624 -10.17569 -10.17123  -1.14639
 Alpha  occ. eigenvalues --   -1.09361  -1.01833  -1.00893  -0.99570  -0.97943
 Alpha  occ. eigenvalues --   -0.96556  -0.94942  -0.93022  -0.85938  -0.83213
 Alpha  occ. eigenvalues --   -0.82636  -0.81327  -0.81234  -0.80988  -0.80667
 Alpha  occ. eigenvalues --   -0.80491  -0.80115  -0.79956  -0.78544  -0.78337
 Alpha  occ. eigenvalues --   -0.77483  -0.76805  -0.76279  -0.75199  -0.75023
 Alpha  occ. eigenvalues --   -0.74535  -0.73025  -0.72594  -0.71446  -0.70682
 Alpha  occ. eigenvalues --   -0.70262  -0.69473  -0.68591  -0.68449  -0.67294
 Alpha  occ. eigenvalues --   -0.67162  -0.67040  -0.66175  -0.65827  -0.65566
 Alpha  occ. eigenvalues --   -0.64566  -0.63173  -0.62355  -0.62212  -0.61741
 Alpha  occ. eigenvalues --   -0.61230  -0.59359  -0.58331  -0.57836  -0.57469
 Alpha  occ. eigenvalues --   -0.56841  -0.56479  -0.55609  -0.55300  -0.55038
 Alpha  occ. eigenvalues --   -0.54837  -0.54791  -0.54203  -0.53404  -0.53168
 Alpha  occ. eigenvalues --   -0.53115  -0.52249  -0.51781  -0.51343  -0.50746
 Alpha  occ. eigenvalues --   -0.50403  -0.50042  -0.49264  -0.48941  -0.48693
 Alpha  occ. eigenvalues --   -0.48178  -0.48101  -0.47858  -0.47547  -0.47332
 Alpha  occ. eigenvalues --   -0.46873  -0.46769  -0.46444  -0.46124  -0.45878
 Alpha  occ. eigenvalues --   -0.45669  -0.45542  -0.45012  -0.44943  -0.44624
 Alpha  occ. eigenvalues --   -0.44450  -0.44233  -0.44083  -0.43789  -0.43650
 Alpha  occ. eigenvalues --   -0.43598  -0.43298  -0.42678  -0.42500  -0.42233
 Alpha  occ. eigenvalues --   -0.42224  -0.41879  -0.41620  -0.41540  -0.41360
 Alpha  occ. eigenvalues --   -0.41157  -0.41004  -0.40879  -0.40712  -0.40523
 Alpha  occ. eigenvalues --   -0.40305  -0.39998  -0.39794  -0.39715  -0.39329
 Alpha  occ. eigenvalues --   -0.39087  -0.38955  -0.38735  -0.38562  -0.38401
 Alpha  occ. eigenvalues --   -0.38129  -0.37805  -0.37626  -0.37620  -0.37583
 Alpha  occ. eigenvalues --   -0.37437  -0.37324  -0.37235  -0.36988  -0.36845
 Alpha  occ. eigenvalues --   -0.36714  -0.36394  -0.36269  -0.35994  -0.35801
 Alpha  occ. eigenvalues --   -0.35655  -0.35618  -0.35387  -0.35202  -0.34987
 Alpha  occ. eigenvalues --   -0.34558  -0.34412  -0.34178  -0.33916  -0.33546
 Alpha  occ. eigenvalues --   -0.33369  -0.33325  -0.33272  -0.33161  -0.32781
 Alpha  occ. eigenvalues --   -0.32307  -0.32207  -0.31928  -0.31865  -0.31145
 Alpha  occ. eigenvalues --   -0.31023  -0.30594  -0.30456  -0.30277  -0.30012
 Alpha  occ. eigenvalues --   -0.29880  -0.29759  -0.28843  -0.28616  -0.28159
 Alpha  occ. eigenvalues --   -0.28031  -0.27026  -0.26316  -0.26055  -0.25604
 Alpha  occ. eigenvalues --   -0.25389  -0.24928  -0.23726  -0.21822  -0.20286
 Alpha  occ. eigenvalues --   -0.17779
 Alpha virt. eigenvalues --   -0.09536  -0.08111  -0.04956  -0.01121   0.00171
 Alpha virt. eigenvalues --    0.00579   0.00958   0.01327   0.02093   0.03521
 Alpha virt. eigenvalues --    0.03746   0.04155   0.04251   0.04311   0.04374

 Mulliken charges:
               1
     1  C   -0.015786
     2  C   -0.115820
     3  C   -0.091089
     4  C   -0.119550
     5  N   -0.179769
     6  C   -0.041614
     7  C   -0.035669
     8  C    0.040937
     9  C   -0.014495
    10  C    0.101691
    11  C   -0.071500
    12  C    0.144957
    13  C    0.131525
    14  O   -0.186266
    15  O   -0.367143
    16  N   -0.028578
    17  C    0.119267
    18  C   -0.208835
    19  C    0.015946
    20  C    0.142275
    21  C    0.148881
    22  C   -0.069686
    23  C   -0.028608
    24  N   -0.193940
    25  C    0.008439
    26  C   -0.166101
    27  C   -0.058492
    28  C    0.009783
    29  C    0.097487
    30  C    0.218612
    31  C   -0.061674
    32  N   -0.074078
    33  C    0.173929
    34  C   -0.083290
    35  C    0.019914
    36  C    0.112437
    37  C   -0.022065
    38  C    0.072733
    39  O   -0.187146
    40  C   -0.083765
    41  C    0.128684
    42  O   -0.278785
    43  O   -0.165447
    44  C    0.132085
    45  C    0.267578
    46  C   -0.040512
    47  C   -0.178891
    48  C    0.054172
    49  C    0.272438
    50  C   -0.067353
    51  C    0.024005
    52  C   -0.020298
    53  C   -0.057774
    54  C   -0.039446
    55  C   -0.012271
    56  C    0.047291
    57  C   -0.020567
    58  C    0.015975
    59  C   -0.028924
    60  C    0.071615
    61  C    0.034475
    62  C   -0.033380
    63  C    0.057207
    64  C   -0.078245
    65  H    0.017082
    66  H   -0.035428
    67  H    0.007133
    68  H    0.034238
    69  H   -0.014575
    70  H    0.015897
    71  H   -0.020049
    72  H    0.014539
    73  H    0.032778
    74  H    0.023823
    75  H   -0.010806
    76  H    0.026023
    77  H    0.027598
    78  H   -0.003031
    79  H    0.030156
    80  H    0.016872
    81  H    0.052430
    82  H    0.023979
    83  H    0.038849
    84  H    0.021577
    85  H    0.029079
    86  H    0.006001
    87  H   -0.157624
    88  H    0.000060
    89  H    0.032832
    90  H    0.010861
    91  H    0.044637
    92  H    0.054079
    93  H    0.051775
    94  H    0.075176
    95  H    0.067713
    96  H    0.032658
    97  H    0.044650
    98  H    0.029526
    99  H    0.011129
   100  H   -0.034505
   101  H    0.027805
   102  H    0.035662
   103  H    0.016526
   104  H   -0.074331
   105  H   -0.027048
   106  H    0.014329
   107  H    0.007011
   108  H    0.006769
   109  H   -0.010362
   110  H   -0.014367
   111  H    0.035474
   112  H    0.040404
   113  H    0.015180
   114  H    0.008621
   115  H   -0.010726
   116  H    0.009896
   117  H    0.006290
   118  H   -0.004754
   119  H   -0.028144
   120  H   -0.018554
   121  H   -0.000573
   122  H    0.008329
   123  H   -0.002127
   124  H    0.009881
   125  H   -0.000754
   126  H   -0.017024
   127  H   -0.040983
   128  H   -0.026846
   129  H   -0.022260
   130  H   -0.002000
   131  H   -0.021037
   132  H   -0.013733
   133  H    0.019962
   134  H    0.019704
   135  H    0.046027
   136  H    0.022307
   137  H    0.118036
   138  H    0.132790
 Sum of Mulliken charges =  -0.00000

 Dipole moment (field-independent basis, Debye):
    X=              3.6711    Y=              3.2300    Z=              0.7624  Tot=              4.9489
 Quadrupole moment (field-independent basis, Debye-Ang):
   XX=           -373.2938   YY=           -386.9868   ZZ=           -393.8720
   XY=            -20.3678   XZ=              7.1535   YZ=             -1.3030

 Normal termination of Gaussian 16 at Mon Aug 19 16:56:01 2019.
