 Gaussian 16, Revision A.03,
 Gaussian 16:  ES64L-G16RevA.03 25-Dec-2016

 --------------------------
 # td=(NStates=1) B3LYP/SVP
 --------------------------

 --
 TD
 --
 Symbolic Z-matrix:
 Charge =  0 Multiplicity = 1

                         Standard orientation:
 ---------------------------------------------------------------------
 Center     Atomic      Atomic             Coordinates (Angstroms)
 Number     Number       Type             X           Y           Z
 ---------------------------------------------------------------------
      1          6           0       -5.081224   -1.994741    0.419584
      2          6           0       -4.670751    2.689636    1.508521
      3          6           0       -9.122848    3.510806   -0.265491
      4          6           0       -9.880877   -1.288368   -0.721752
      5          7           0       -5.138544    0.309247    0.850948
      6          6           0       -4.467226   -0.825176    0.784354
      7          6           0       -2.978753   -0.676281    1.259088
      8          6           0       -3.021876    0.716688    1.875964
      9          6           0       -4.323152    1.288762    1.372478
     10          6           0       -2.881969    0.820618    3.283939
     11          6           0       -2.176765   -0.781977   -0.029923
     12          6           0       -0.771140   -0.964228    0.507580
     13          6           0        0.296535   -1.257136   -0.647089
     14          8           0        0.119568   -1.671892   -1.749338
     15          8           0        1.584463   -0.986344   -0.229378
     16          7           0       -6.953098    2.840220    0.455949
     17          6           0       -5.761833    3.404304    0.953299
     18          6           0       -5.972934    4.754735    1.064245
     19          6           0       -7.311297    5.047418    0.542310
     20          6           0       -7.914038    3.740777    0.135132
     21          6           0       -4.977659    5.749193    1.527250
     22          6           0       -7.956274    6.257711    0.434498
     23          6           0       -9.030697    6.640399   -0.300371
     24          7           0       -9.119388    1.093007   -0.405230
     25          6           0       -9.760574    2.247828   -0.512588
     26          6           0      -11.200100    2.063789   -0.885958
     27          6           0      -11.370318    0.744150   -1.085994
     28          6           0      -10.059581    0.085729   -0.792662
     29          6           0      -12.150723    3.100392   -1.133891
     30          6           0      -12.658007   -0.044378   -1.487301
     31          6           0      -12.636511   -0.242256   -3.011452
     32          7           0       -7.563589   -1.199345   -0.233068
     33          6           0       -8.659689   -1.916717   -0.519266
     34          6           0       -8.276847   -3.351789   -0.559197
     35          6           0       -6.947048   -3.420176   -0.210863
     36          6           0       -6.500600   -2.080599   -0.018504
     37          6           0       -9.139747   -4.514286   -0.893300
     38          6           0       -5.790695   -4.298105   -0.060302
     39          8           0       -5.893079   -5.547895   -0.053225
     40          6           0       -4.609133   -3.487347    0.339636
     41          6           0       -4.027011   -3.965070    1.686387
     42          8           0       -4.204965   -3.584499    2.774737
     43          8           0       -3.161691   -5.005790    1.415981
     44          6           0       -2.644611   -5.686296    2.587695
     45          6           0        2.668889   -1.230260   -1.212386
     46          6           0        3.984829   -0.623166   -0.680429
     47          6           0        4.981951    0.079285   -1.319471
     48          6           0        4.890030    0.479259   -2.842436
     49          6           0        6.177282    0.478923   -0.601165
     50          6           0        7.388384   -0.268971   -1.141472
     51          6           0        8.714797   -0.028353   -0.313260
     52          6           0       10.086513   -0.600985   -0.943964
     53          6           0       10.035057   -2.120259   -0.904870
     54          6           0       11.257715   -0.042424   -0.048150
     55          6           0       12.596945   -0.498802   -0.585479
     56          6           0       13.740924    0.090267    0.226835
     57          6           0       15.152823   -0.182326   -0.356455
     58          6           0       15.490891   -1.669697   -0.485163
     59          6           0       16.249321    0.712002    0.506052
     60          6           0       17.681191    0.698527   -0.145887
     61          6           0       18.578399    1.581087    0.834578
     62          6           0       20.013513    1.548822    0.313844
     63          6           0       20.172737    2.210119   -1.078249
     64          6           0       20.980138    2.214986    1.259717
     65          1           0       -4.037330    3.386949    1.948343
     66          1           0       -9.848494    4.431174   -0.393129
     67          1           0      -10.799660   -1.967312   -1.173189
     68          1           0       -2.675937   -1.420785    2.119948
     69          1           0       -2.101256    1.309746    1.419091
     70          1           0       -1.894874    0.418428    3.575978
     71          1           0       -3.224942    1.655986    3.758561
     72          1           0       -3.576362    0.140193    3.736657
     73          1           0       -2.491678   -1.716776   -0.677056
     74          1           0       -2.384498    0.143171   -0.441264
     75          1           0       -0.288841   -0.096691    1.153804
     76          1           0       -0.681290   -2.026599    0.979932
     77          1           0       -4.103290    5.831220    0.973227
     78          1           0       -5.603818    6.703001    1.763539
     79          1           0       -4.526958    5.165421    2.571535
     80          1           0       -7.334657    7.078654    0.853081
     81          1           0       -9.752416    5.902586   -0.820490
     82          1           0       -9.347057    7.732663   -0.591540
     83          1           0      -12.712278    3.560208   -0.199706
     84          1           0      -11.867715    4.027393   -1.882597
     85          1           0      -12.923267    2.560206   -1.645804
     86          1           0      -12.363505   -1.115667   -1.218035
     87          1           0      -13.492996    0.463912   -0.885652
     88          1           0      -12.792802    0.694822   -3.669637
     89          1           0      -11.731829   -0.758254   -3.297416
     90          1           0      -13.613814   -0.840722   -3.125803
     91          1           0       -9.905216   -4.515231    0.021893
     92          1           0       -9.556586   -4.466934   -1.883262
     93          1           0       -8.513805   -5.403203   -0.706006
     94          1           0       -3.763108   -3.691316   -0.415481
     95          1           0       -2.159187   -6.646479    2.098408
     96          1           0       -1.868050   -4.981504    3.174428
     97          1           0       -3.480883   -5.892215    3.346387
     98          1           0        2.915577   -2.341313   -1.325132
     99          1           0        2.506892   -0.783944   -2.173870
    100          1           0        4.247931   -0.778595    0.654607
    101          1           0        5.470795    1.485786   -3.271250
    102          1           0        5.388275   -0.570145   -3.465977
    103          1           0        3.773754    0.585690   -3.175739
    104          1           0        6.448727    1.594620   -0.985030
    105          1           0        6.133137    0.428492    0.588531
    106          1           0        7.223387   -1.391482   -0.896520
    107          1           0        7.555033   -0.174253   -2.339614
    108          1           0        8.873438    1.182490   -0.445730
    109          1           0        8.709151   -0.001856    0.829804
    110          1           0       10.110328   -0.290123   -2.013555
    111          1           0        9.024627   -2.368003   -1.364318
    112          1           0       10.993610   -2.401733   -1.553147
    113          1           0       10.243389   -2.418871    0.125262
    114          1           0       11.278044    0.844279    0.059782
    115          1           0       11.278472   -0.404797    0.927938
    116          1           0       12.623009   -1.575484   -0.601676
    117          1           0       12.764795   -0.014531   -1.710746
    118          1           0       13.491365    1.253047    0.283972
    119          1           0       13.636437   -0.241519    1.350094
    120          1           0       15.201338    0.165607   -1.283726
    121          1           0       14.850273   -2.288409   -1.045346
    122          1           0       16.468389   -1.606598   -0.789707
    123          1           0       15.617816   -2.127917    0.533570
    124          1           0       15.735333    1.551130    0.700959
    125          1           0       16.386942   -0.187063    1.409905
    126          1           0       17.886629   -0.361259   -0.307155
    127          1           0       17.544841    1.186575   -1.174197
    128          1           0       18.157661    2.629531    0.892435
    129          1           0       18.443649    1.125338    1.929009
    130          1           0       20.338433    0.433956    0.345752
    131          1           0       19.860790    3.282541   -0.825993
    132          1           0       21.115587    2.033508   -1.350997
    133          1           0       19.404220    1.597862   -1.733903
    134          1           0       20.862120    1.875003    2.282850
    135          1           0       22.041320    2.104597    1.117144
    136          1           0       20.925991    3.287631    1.408352
    137          1           0       -7.097177    1.774734    0.214006
    138          1           0       -7.586114   -0.067356   -0.009239
 ---------------------------------------------------------------------

 SCF Done:  E(RB3LYP) =  -2733.00354548     A.U. after   17 cycles

 Excitation energies and oscillator strengths:

 Excited State   1:      Singlet-A      1.9774 eV  627.00 nm  f=0.2005  <S**2>=0.000
     235 -> 237       -0.17825
     235 -> 238        0.26648
     236 -> 237        0.62118
 This state for optimization and/or second-order correction.
 Total Energy, E(TD-HF/TD-DFT) =  -2732.93087616
 Copying the excited state density for this state as the 1-particle RhoCI density.

 The electronic state is 1-A.
 Alpha  occ. eigenvalues --  -19.17160 -19.16926 -19.13733 -19.12394 -19.11918
 Alpha  occ. eigenvalues --  -14.37641 -14.36518 -14.32651 -14.31195 -10.31977
 Alpha  occ. eigenvalues --  -10.31244 -10.27977 -10.26180 -10.25757 -10.23953
 Alpha  occ. eigenvalues --  -10.23845 -10.23837 -10.23509 -10.23328 -10.22944
 Alpha  occ. eigenvalues --  -10.22782 -10.22763 -10.22742 -10.22040 -10.21956
 Alpha  occ. eigenvalues --  -10.21939 -10.21494 -10.21303 -10.21286 -10.21152
 Alpha  occ. eigenvalues --  -10.21001 -10.21001 -10.20983 -10.20907 -10.20856
 Alpha  occ. eigenvalues --  -10.20737 -10.20679 -10.20664 -10.20500 -10.20454
 Alpha  occ. eigenvalues --  -10.20392 -10.20157 -10.19969 -10.19855 -10.19788
 Alpha  occ. eigenvalues --  -10.19653 -10.19649 -10.19372 -10.19292 -10.19285
 Alpha  occ. eigenvalues --  -10.19068 -10.19053 -10.18986 -10.18842 -10.18593
 Alpha  occ. eigenvalues --  -10.18484 -10.18387 -10.18302 -10.17914 -10.17706
 Alpha  occ. eigenvalues --  -10.17504 -10.16743 -10.16428 -10.15425  -1.10272
 Alpha  occ. eigenvalues --   -1.08356  -1.01611  -1.00720  -0.99663  -0.97916
 Alpha  occ. eigenvalues --   -0.97285  -0.95238  -0.93167  -0.84931  -0.82819
 Alpha  occ. eigenvalues --   -0.82330  -0.82074  -0.81778  -0.81459  -0.80619
 Alpha  occ. eigenvalues --   -0.80277  -0.80167  -0.79278  -0.79073  -0.78710
 Alpha  occ. eigenvalues --   -0.76331  -0.75851  -0.75619  -0.75332  -0.74495
 Alpha  occ. eigenvalues --   -0.73145  -0.72996  -0.72575  -0.71397  -0.70002
 Alpha  occ. eigenvalues --   -0.69622  -0.69212  -0.68659  -0.67688  -0.67521
 Alpha  occ. eigenvalues --   -0.67160  -0.66216  -0.65925  -0.65811  -0.64340
 Alpha  occ. eigenvalues --   -0.63957  -0.62877  -0.62028  -0.61539  -0.61204
 Alpha  occ. eigenvalues --   -0.60932  -0.58457  -0.58035  -0.57548  -0.57231
 Alpha  occ. eigenvalues --   -0.56581  -0.55773  -0.55547  -0.55438  -0.55181
 Alpha  occ. eigenvalues --   -0.54593  -0.54258  -0.54229  -0.53475  -0.52949
 Alpha  occ. eigenvalues --   -0.52261  -0.51712  -0.51009  -0.50513  -0.50234
 Alpha  occ. eigenvalues --   -0.49572  -0.49068  -0.48756  -0.48535  -0.48342
 Alpha  occ. eigenvalues --   -0.48036  -0.47633  -0.47424  -0.47392  -0.46668
 Alpha  occ. eigenvalues --   -0.46653  -0.46420  -0.46177  -0.46026  -0.45485
 Alpha  occ. eigenvalues --   -0.45408  -0.45143  -0.44930  -0.44763  -0.44660
 Alpha  occ. eigenvalues --   -0.44425  -0.44189  -0.44172  -0.43941  -0.43736
 Alpha  occ. eigenvalues --   -0.43431  -0.43230  -0.42653  -0.42542  -0.42354
 Alpha  occ. eigenvalues --   -0.42278  -0.41961  -0.41904  -0.41777  -0.41305
 Alpha  occ. eigenvalues --   -0.41185  -0.40946  -0.40745  -0.40702  -0.40484
 Alpha  occ. eigenvalues --   -0.40213  -0.39936  -0.39694  -0.39607  -0.39389
 Alpha  occ. eigenvalues --   -0.39258  -0.39082  -0.38732  -0.38660  -0.38418
 Alpha  occ. eigenvalues --   -0.38191  -0.38085  -0.37940  -0.37771  -0.37721
 Alpha  occ. eigenvalues --   -0.37537  -0.37419  -0.37290  -0.37194  -0.37058
 Alpha  occ. eigenvalues --   -0.36720  -0.36459  -0.36340  -0.36260  -0.36071
 Alpha  occ. eigenvalues --   -0.35825  -0.35686  -0.35454  -0.35197  -0.35034
 Alpha  occ. eigenvalues --   -0.34952  -0.34466  -0.34276  -0.33711  -0.33583
 Alpha  occ. eigenvalues --   -0.33164  -0.32844  -0.32648  -0.32401  -0.32376
 Alpha  occ. eigenvalues --   -0.31975  -0.31861  -0.31849  -0.31731  -0.31416
 Alpha  occ. eigenvalues --   -0.31180  -0.30809  -0.30468  -0.30377  -0.30337
 Alpha  occ. eigenvalues --   -0.29443  -0.29088  -0.28545  -0.28518  -0.28004
 Alpha  occ. eigenvalues --   -0.27409  -0.27286  -0.26692  -0.26599  -0.25865
 Alpha  occ. eigenvalues --   -0.25225  -0.23956  -0.23391  -0.22718  -0.20204
 Alpha  occ. eigenvalues --   -0.18872
 Alpha virt. eigenvalues --   -0.10717  -0.08217  -0.05111  -0.02703  -0.00577
 Alpha virt. eigenvalues --    0.00232   0.00655   0.00993   0.02393   0.02747
 Alpha virt. eigenvalues --    0.03200   0.03305   0.03730   0.03925   0.04230

 Mulliken charges:
               1
     1  C    0.045754
     2  C   -0.037988
     3  C   -0.147149
     4  C   -0.145445
     5  N   -0.145960
     6  C   -0.118029
     7  C   -0.111866
     8  C   -0.054564
     9  C    0.009449
    10  C    0.171667
    11  C    0.120400
    12  C   -0.035998
    13  C    0.164753
    14  O   -0.211917
    15  O   -0.349453
    16  N   -0.138841
    17  C    0.121358
    18  C   -0.112576
    19  C    0.060376
    20  C    0.160961
    21  C    0.040344
    22  C   -0.039190
    23  C   -0.110352
    24  N   -0.275980
    25  C    0.033926
    26  C   -0.099919
    27  C   -0.099808
    28  C    0.074440
    29  C    0.012980
    30  C    0.050408
    31  C   -0.015265
    32  N   -0.110504
    33  C    0.074164
    34  C   -0.188449
    35  C    0.035239
    36  C    0.062516
    37  C    0.090527
    38  C    0.066283
    39  O   -0.212057
    40  C   -0.009472
    41  C    0.190351
    42  O   -0.162831
    43  O   -0.329797
    44  C    0.108196
    45  C    0.303536
    46  C   -0.186752
    47  C   -0.082492
    48  C   -0.091988
    49  C    0.054765
    50  C   -0.051063
    51  C   -0.046949
    52  C   -0.076434
    53  C    0.013762
    54  C    0.232950
    55  C   -0.024010
    56  C   -0.035319
    57  C   -0.011893
    58  C    0.090220
    59  C   -0.018423
    60  C    0.007528
    61  C    0.005681
    62  C   -0.108106
    63  C    0.069053
    64  C    0.063648
    65  H   -0.067376
    66  H    0.011443
    67  H    0.034441
    68  H    0.031749
    69  H    0.001468
    70  H    0.010063
    71  H   -0.019376
    72  H   -0.012858
    73  H    0.054933
    74  H   -0.006466
    75  H    0.068303
    76  H    0.055685
    77  H    0.030391
    78  H    0.051642
    79  H    0.039900
    80  H   -0.017192
    81  H    0.035955
    82  H    0.045928
    83  H    0.035668
    84  H    0.042504
    85  H   -0.004208
    86  H    0.005096
    87  H    0.043549
    88  H    0.027627
    89  H    0.025655
    90  H    0.024586
    91  H    0.043011
    92  H    0.036033
    93  H    0.036134
    94  H    0.073726
    95  H    0.065674
    96  H    0.042635
    97  H    0.054703
    98  H    0.044862
    99  H    0.010726
   100  H    0.027744
   101  H    0.059539
   102  H    0.057138
   103  H    0.052319
   104  H    0.013604
   105  H    0.032057
   106  H    0.014976
   107  H    0.038284
   108  H   -0.016107
   109  H    0.010041
   110  H   -0.005270
   111  H    0.028641
   112  H    0.028920
   113  H    0.008696
   114  H   -0.135391
   115  H   -0.039642
   116  H    0.000137
   117  H    0.000404
   118  H   -0.002003
   119  H   -0.002242
   120  H   -0.058628
   121  H    0.012295
   122  H   -0.033975
   123  H   -0.009076
   124  H   -0.024274
   125  H    0.012820
   126  H    0.009368
   127  H    0.018738
   128  H    0.003119
   129  H    0.016957
   130  H    0.000222
   131  H    0.023747
   132  H   -0.014317
   133  H    0.022294
   134  H   -0.019608
   135  H   -0.012214
   136  H   -0.019976
   137  H    0.180304
   138  H    0.225351
 Sum of Mulliken charges =  -0.00000

 Dipole moment (field-independent basis, Debye):
    X=              1.3337    Y=              4.3293    Z=              0.1833  Tot=              4.5338
 Quadrupole moment (field-independent basis, Debye-Ang):
   XX=           -351.7834   YY=           -392.2298   ZZ=           -396.4966
   XY=            -22.5712   XZ=              9.5256   YZ=             -3.1472

 Normal termination of Gaussian 16 at Thu Aug 22 15:09:47 2019.
