 Gaussian 16, Revision A.03,
 Gaussian 16:  ES64L-G16RevA.03 25-Dec-2016

 --------------------------
 # td=(NStates=1) B3LYP/SVP
 --------------------------

 --
 TD
 --
 Symbolic Z-matrix:
 Charge =  0 Multiplicity = 1

                         Standard orientation:
 ---------------------------------------------------------------------
 Center     Atomic      Atomic             Coordinates (Angstroms)
 Number     Number       Type             X           Y           Z
 ---------------------------------------------------------------------
      1          6           0       -5.185078   -1.945726    0.577012
      2          6           0       -4.792265    2.626910    1.519334
      3          6           0       -9.269726    3.282670   -0.218685
      4          6           0       -9.794345   -1.440922   -0.974872
      5          7           0       -5.275568    0.445343    0.912702
      6          6           0       -4.461597   -0.691595    0.788928
      7          6           0       -3.122483   -0.530398    1.179004
      8          6           0       -3.109703    0.884262    1.878570
      9          6           0       -4.431055    1.327431    1.275179
     10          6           0       -3.180335    0.839172    3.415568
     11          6           0       -2.139920   -0.764220   -0.009012
     12          6           0       -0.624637   -1.057875    0.503305
     13          6           0        0.438193   -1.062177   -0.564884
     14          8           0        0.251075   -1.435802   -1.774047
     15          8           0        1.643779   -0.856159   -0.130629
     16          7           0       -7.080377    2.742296    0.444944
     17          6           0       -5.965054    3.369579    1.063228
     18          6           0       -6.168579    4.828525    1.123108
     19          6           0       -7.454873    5.012907    0.571072
     20          6           0       -8.042513    3.603824    0.227417
     21          6           0       -5.236395    5.847121    1.541123
     22          6           0       -8.115037    6.291175    0.439628
     23          6           0       -9.134730    6.703885   -0.334327
     24          7           0       -9.098385    0.914654   -0.545292
     25          6           0       -9.813457    2.063991   -0.436947
     26          6           0      -11.143271    1.982742   -0.999365
     27          6           0      -11.310725    0.634292   -1.169588
     28          6           0      -10.017395   -0.065249   -0.981959
     29          6           0      -12.215080    2.978933   -1.170606
     30          6           0      -12.448662   -0.125011   -1.857552
     31          6           0      -12.414582   -0.410130   -3.392084
     32          7           0       -7.539484   -1.252193   -0.047257
     33          6           0       -8.600991   -1.977368   -0.665977
     34          6           0       -8.171496   -3.318822   -0.764550
     35          6           0       -6.987843   -3.437232   -0.182878
     36          6           0       -6.518704   -2.135666    0.223417
     37          6           0       -9.021883   -4.444674   -1.305765
     38          6           0       -5.727939   -4.310309    0.029717
     39          8           0       -5.702820   -5.503479   -0.141412
     40          6           0       -4.636058   -3.375022    0.458996
     41          6           0       -3.980325   -3.865252    1.729160
     42          8           0       -4.163322   -3.608864    2.816472
     43          8           0       -3.160151   -4.940447    1.411064
     44          6           0       -2.597013   -5.579963    2.581922
     45          6           0        2.751969   -1.151995   -1.088014
     46          6           0        4.059641   -0.611257   -0.503291
     47          6           0        5.011595    0.156649   -1.182619
     48          6           0        4.931820    0.717666   -2.432225
     49          6           0        6.266014    0.517084   -0.466147
     50          6           0        7.475118   -0.298311   -0.959724
     51          6           0        8.768211   -0.034165   -0.198457
     52          6           0       10.059987   -0.799803   -0.609688
     53          6           0        9.955560   -2.450461   -0.375597
     54          6           0       11.321725   -0.180103    0.170024
     55          6           0       12.602177   -0.548293   -0.492732
     56          6           0       13.732324    0.008231    0.391839
     57          6           0       15.232581   -0.140940   -0.179107
     58          6           0       15.610799   -1.671293   -0.257568
     59          6           0       16.273693    0.686215    0.521427
     60          6           0       17.579091    0.738465   -0.135194
     61          6           0       18.667104    1.591998    0.511882
     62          6           0       20.072089    1.620768   -0.112779
     63          6           0       20.202910    2.068935   -1.608032
     64          6           0       21.109847    2.368335    0.791746
     65          1           0       -3.930691    3.242775    1.900051
     66          1           0      -10.056247    4.108926   -0.158640
     67          1           0      -10.612666   -2.071850   -1.268310
     68          1           0       -2.996514   -1.264500    1.860097
     69          1           0       -2.358274    1.618919    1.393584
     70          1           0       -2.427645    0.169431    3.864948
     71          1           0       -2.687454    2.002768    3.874937
     72          1           0       -4.304149    0.656724    3.805015
     73          1           0       -2.456471   -1.564590   -0.803635
     74          1           0       -2.113336    0.168736   -0.486111
     75          1           0       -0.368876   -0.149715    1.024161
     76          1           0       -0.521248   -1.727023    1.338533
     77          1           0       -4.295079    5.762679    1.130230
     78          1           0       -5.469623    6.913717    1.424309
     79          1           0       -5.259175    5.795150    2.705052
     80          1           0       -7.765425    7.116180    1.146201
     81          1           0       -9.622728    5.820552   -1.025237
     82          1           0       -9.347013    7.769232   -0.483867
     83          1           0      -12.337484    3.523494   -0.109913
     84          1           0      -12.162679    3.884278   -1.895184
     85          1           0      -13.007594    2.673068   -1.542910
     86          1           0      -12.180165   -1.083870   -1.327113
     87          1           0      -13.438683    0.161220   -1.492392
     88          1           0      -12.598740    0.516528   -3.859476
     89          1           0      -11.363131   -1.048611   -3.684437
     90          1           0      -13.345013   -1.105138   -3.619217
     91          1           0      -10.255657   -4.460110   -0.891191
     92          1           0       -9.425185   -4.418691   -2.266388
     93          1           0       -8.580226   -5.397683   -1.249209
     94          1           0       -3.877593   -3.465547   -0.321778
     95          1           0       -1.661406   -6.269075    2.159017
     96          1           0       -2.204511   -5.088430    3.455578
     97          1           0       -3.422870   -6.203631    2.941473
     98          1           0        2.802892   -2.375705   -1.288640
     99          1           0        2.318384   -0.706624   -2.027873
    100          1           0        4.056280   -1.220440    0.490444
    101          1           0        4.939611    1.951978   -2.206258
    102          1           0        5.841275    0.207821   -2.958227
    103          1           0        3.929872    0.661510   -3.081345
    104          1           0        6.456644    1.614386   -0.604922
    105          1           0        6.098688    0.454977    0.728413
    106          1           0        7.348599   -1.365797   -0.787957
    107          1           0        7.681340    0.038855   -2.016157
    108          1           0        9.228612    1.112496   -0.402366
    109          1           0        8.390428   -0.380915    0.923242
    110          1           0       10.180895   -0.427451   -1.727837
    111          1           0        9.181134   -2.922828   -0.943741
    112          1           0       10.767693   -3.067737   -0.958719
    113          1           0        9.916629   -2.587950    0.797827
    114          1           0       11.125282    0.944056    0.187352
    115          1           0       11.267090   -0.660854    1.227933
    116          1           0       12.570253   -1.661874   -0.786747
    117          1           0       12.658833   -0.091675   -1.510783
    118          1           0       13.558388    1.209631    0.444993
    119          1           0       13.686044   -0.175730    1.539240
    120          1           0       15.133287    0.151729   -1.254326
    121          1           0       14.905349   -2.082361   -1.065511
    122          1           0       16.412528   -1.737296   -0.823062
    123          1           0       15.631924   -2.222571    0.802320
    124          1           0       15.914195    1.803947    0.555500
    125          1           0       16.019408    0.428277    1.544969
    126          1           0       18.170857   -0.264226   -0.403766
    127          1           0       17.365579    0.957594   -1.322763
    128          1           0       18.207989    2.767996    0.407351
    129          1           0       18.720211    1.316079    1.541662
    130          1           0       20.512118    0.487180   -0.053873
    131          1           0       19.806092    3.031743   -1.731927
    132          1           0       21.101794    1.886547   -2.031585
    133          1           0       19.462087    1.479867   -2.298417
    134          1           0       21.235011    1.968992    1.834262
    135          1           0       22.018054    2.610178    0.315028
    136          1           0       20.839227    3.478483    0.931714
    137          1           0       -7.083412    1.816646    0.309304
    138          1           0       -7.647594   -0.172721    0.065507
 ---------------------------------------------------------------------

 SCF Done:  E(RB3LYP) =  -2732.96053940     A.U. after   17 cycles

 Excitation energies and oscillator strengths:

 Excited State   1:      Singlet-A      2.0287 eV  611.14 nm  f=0.1539  <S**2>=0.000
     235 -> 238        0.32416
     236 -> 237        0.62656
 This state for optimization and/or second-order correction.
 Total Energy, E(TD-HF/TD-DFT) =  -2732.88598472
 Copying the excited state density for this state as the 1-particle RhoCI density.

 The electronic state is 1-A.
 Alpha  occ. eigenvalues --  -19.18310 -19.16262 -19.13409 -19.12490 -19.10745
 Alpha  occ. eigenvalues --  -14.37028 -14.35789 -14.32528 -14.29778 -10.31495
 Alpha  occ. eigenvalues --  -10.31041 -10.28385 -10.26131 -10.24975 -10.24507
 Alpha  occ. eigenvalues --  -10.23638 -10.23569 -10.22847 -10.22790 -10.22195
 Alpha  occ. eigenvalues --  -10.21883 -10.21840 -10.21621 -10.21610 -10.21447
 Alpha  occ. eigenvalues --  -10.21413 -10.21252 -10.21232 -10.21094 -10.21054
 Alpha  occ. eigenvalues --  -10.20972 -10.20894 -10.20783 -10.20779 -10.20598
 Alpha  occ. eigenvalues --  -10.20498 -10.20463 -10.20451 -10.20381 -10.20348
 Alpha  occ. eigenvalues --  -10.20324 -10.20210 -10.20146 -10.20026 -10.20007
 Alpha  occ. eigenvalues --  -10.19869 -10.19757 -10.19653 -10.19624 -10.19402
 Alpha  occ. eigenvalues --  -10.19321 -10.19279 -10.19126 -10.19013 -10.18826
 Alpha  occ. eigenvalues --  -10.18796 -10.18537 -10.18441 -10.18440 -10.18107
 Alpha  occ. eigenvalues --  -10.17989 -10.17937 -10.17763 -10.17632  -1.11617
 Alpha  occ. eigenvalues --   -1.09716  -1.03396  -1.01337  -0.99063  -0.97300
 Alpha  occ. eigenvalues --   -0.96444  -0.96347  -0.92422  -0.85101  -0.84108
 Alpha  occ. eigenvalues --   -0.82565  -0.82188  -0.81610  -0.80874  -0.80297
 Alpha  occ. eigenvalues --   -0.80141  -0.79321  -0.78819  -0.78794  -0.77985
 Alpha  occ. eigenvalues --   -0.77340  -0.76771  -0.76093  -0.74757  -0.74200
 Alpha  occ. eigenvalues --   -0.73449  -0.72865  -0.72324  -0.71682  -0.71569
 Alpha  occ. eigenvalues --   -0.70333  -0.68776  -0.68450  -0.68079  -0.67899
 Alpha  occ. eigenvalues --   -0.67417  -0.67204  -0.66220  -0.65889  -0.65213
 Alpha  occ. eigenvalues --   -0.64489  -0.63168  -0.62861  -0.61495  -0.61360
 Alpha  occ. eigenvalues --   -0.60787  -0.59265  -0.58922  -0.58281  -0.57265
 Alpha  occ. eigenvalues --   -0.56832  -0.56523  -0.55550  -0.55036  -0.54851
 Alpha  occ. eigenvalues --   -0.54457  -0.54190  -0.53776  -0.53320  -0.53039
 Alpha  occ. eigenvalues --   -0.52948  -0.52061  -0.51657  -0.51201  -0.50326
 Alpha  occ. eigenvalues --   -0.49257  -0.49083  -0.49012  -0.48701  -0.48576
 Alpha  occ. eigenvalues --   -0.48040  -0.47518  -0.47363  -0.47241  -0.47013
 Alpha  occ. eigenvalues --   -0.46848  -0.46722  -0.46563  -0.46076  -0.46036
 Alpha  occ. eigenvalues --   -0.45468  -0.45283  -0.45125  -0.44753  -0.44676
 Alpha  occ. eigenvalues --   -0.44501  -0.44328  -0.44152  -0.43745  -0.43650
 Alpha  occ. eigenvalues --   -0.43305  -0.43112  -0.43013  -0.42733  -0.42449
 Alpha  occ. eigenvalues --   -0.42403  -0.42352  -0.42061  -0.41573  -0.41563
 Alpha  occ. eigenvalues --   -0.41401  -0.41293  -0.41080  -0.40978  -0.40853
 Alpha  occ. eigenvalues --   -0.40272  -0.39734  -0.39643  -0.39463  -0.39317
 Alpha  occ. eigenvalues --   -0.38807  -0.38570  -0.38390  -0.38362  -0.38224
 Alpha  occ. eigenvalues --   -0.38120  -0.37960  -0.37765  -0.37548  -0.37335
 Alpha  occ. eigenvalues --   -0.37258  -0.37122  -0.36873  -0.36836  -0.36563
 Alpha  occ. eigenvalues --   -0.36530  -0.36073  -0.35938  -0.35824  -0.35743
 Alpha  occ. eigenvalues --   -0.35500  -0.35451  -0.35187  -0.34547  -0.34501
 Alpha  occ. eigenvalues --   -0.34277  -0.34140  -0.34076  -0.33971  -0.33827
 Alpha  occ. eigenvalues --   -0.33637  -0.33327  -0.33198  -0.32422  -0.32364
 Alpha  occ. eigenvalues --   -0.32164  -0.31945  -0.31808  -0.31575  -0.31352
 Alpha  occ. eigenvalues --   -0.30737  -0.30384  -0.30057  -0.29881  -0.29766
 Alpha  occ. eigenvalues --   -0.29638  -0.29154  -0.28978  -0.28854  -0.28331
 Alpha  occ. eigenvalues --   -0.27864  -0.26627  -0.26454  -0.26174  -0.25813
 Alpha  occ. eigenvalues --   -0.25123  -0.24368  -0.23747  -0.22159  -0.19770
 Alpha  occ. eigenvalues --   -0.18478
 Alpha virt. eigenvalues --   -0.09776  -0.07926  -0.04266  -0.01899  -0.01685
 Alpha virt. eigenvalues --   -0.00700   0.00636   0.01161   0.01920   0.02279
 Alpha virt. eigenvalues --    0.03157   0.03733   0.03793   0.04014   0.04322

 Mulliken charges:
               1
     1  C    0.030396
     2  C   -0.056769
     3  C   -0.119627
     4  C   -0.079529
     5  N   -0.135482
     6  C   -0.062435
     7  C    0.076280
     8  C   -0.060692
     9  C   -0.055769
    10  C   -0.002921
    11  C    0.053390
    12  C    0.062388
    13  C    0.189594
    14  O   -0.318990
    15  O   -0.286108
    16  N    0.044167
    17  C    0.062758
    18  C   -0.099796
    19  C    0.061363
    20  C    0.106895
    21  C    0.107759
    22  C   -0.099870
    23  C   -0.073984
    24  N   -0.302212
    25  C    0.059708
    26  C   -0.091698
    27  C   -0.086635
    28  C    0.044312
    29  C    0.140203
    30  C    0.017787
    31  C   -0.008241
    32  N   -0.131474
    33  C    0.140257
    34  C   -0.133088
    35  C   -0.003107
    36  C    0.052674
    37  C    0.092319
    38  C    0.081712
    39  O   -0.141437
    40  C   -0.020031
    41  C    0.155289
    42  O   -0.132922
    43  O   -0.334100
    44  C    0.150701
    45  C    0.144942
    46  C   -0.082275
    47  C   -0.079187
    48  C   -0.011511
    49  C    0.026398
    50  C    0.047528
    51  C   -0.066146
    52  C   -0.102263
    53  C   -0.020618
    54  C    0.001012
    55  C    0.055894
    56  C   -0.032247
    57  C   -0.109853
    58  C    0.086744
    59  C    0.096296
    60  C   -0.044645
    61  C    0.048837
    62  C   -0.134064
    63  C    0.077410
    64  C    0.039836
    65  H   -0.022053
    66  H    0.003075
    67  H   -0.030515
    68  H   -0.043310
    69  H    0.017754
    70  H    0.034020
    71  H    0.027843
    72  H    0.078873
    73  H    0.061694
    74  H   -0.012863
    75  H   -0.004929
    76  H    0.030778
    77  H    0.016406
    78  H    0.008327
    79  H    0.036592
    80  H    0.009955
    81  H    0.049745
    82  H    0.032113
    83  H    0.039442
    84  H    0.013482
    85  H   -0.079956
    86  H   -0.003468
    87  H    0.000306
    88  H    0.013288
    89  H    0.046842
    90  H    0.026386
    91  H    0.018606
    92  H   -0.006345
    93  H    0.023734
    94  H    0.051533
    95  H    0.044667
    96  H    0.030256
    97  H    0.027368
    98  H    0.057852
    99  H    0.042744
   100  H    0.022152
   101  H    0.049989
   102  H    0.057813
   103  H    0.041682
   104  H   -0.001812
   105  H    0.020216
   106  H    0.006443
   107  H    0.006024
   108  H    0.016029
   109  H    0.008066
   110  H   -0.003038
   111  H    0.008876
   112  H    0.022966
   113  H    0.047444
   114  H    0.007871
   115  H    0.010049
   116  H    0.014384
   117  H   -0.010000
   118  H   -0.003649
   119  H    0.007462
   120  H   -0.022899
   121  H   -0.006547
   122  H   -0.046922
   123  H    0.036016
   124  H   -0.007603
   125  H   -0.017104
   126  H    0.005556
   127  H    0.006859
   128  H    0.003511
   129  H   -0.002791
   130  H    0.005765
   131  H   -0.003655
   132  H   -0.006380
   133  H    0.000826
   134  H    0.021676
   135  H   -0.012760
   136  H   -0.011494
   137  H    0.067551
   138  H    0.186069
 Sum of Mulliken charges =  -0.00000

 Dipole moment (field-independent basis, Debye):
    X=              4.1249    Y=              5.0385    Z=              0.8511  Tot=              6.5670
 Quadrupole moment (field-independent basis, Debye-Ang):
   XX=           -360.3078   YY=           -388.5677   ZZ=           -394.7608
   XY=            -28.1219   XZ=              0.1918   YZ=             -0.1580

 Normal termination of Gaussian 16 at Sat Aug 17 22:56:35 2019.
