 Gaussian 16, Revision A.03,
 Gaussian 16:  ES64L-G16RevA.03 25-Dec-2016

 --------------------------
 # td=(NStates=1) B3LYP/SVP
 --------------------------

 --
 TD
 --
 Symbolic Z-matrix:
 Charge =  0 Multiplicity = 1

                         Standard orientation:
 ---------------------------------------------------------------------
 Center     Atomic      Atomic             Coordinates (Angstroms)
 Number     Number       Type             X           Y           Z
 ---------------------------------------------------------------------
      1          6           0       -5.183849   -1.956907    0.570347
      2          6           0       -4.778568    2.764189    1.502509
      3          6           0       -9.281695    3.334289   -0.301059
      4          6           0       -9.784931   -1.427438   -1.144224
      5          7           0       -5.192492    0.439354    0.762342
      6          6           0       -4.480713   -0.728237    0.815549
      7          6           0       -3.099023   -0.586205    1.262478
      8          6           0       -3.088072    0.894947    1.894027
      9          6           0       -4.438097    1.440700    1.342298
     10          6           0       -3.055233    0.788934    3.429404
     11          6           0       -2.115412   -0.739077    0.102724
     12          6           0       -0.665715   -0.688833    0.650043
     13          6           0        0.376935   -0.888678   -0.460852
     14          8           0       -0.009233   -1.359243   -1.534411
     15          8           0        1.580176   -0.631590   -0.091713
     16          7           0       -7.004397    2.766709    0.529362
     17          6           0       -5.938357    3.425581    0.999831
     18          6           0       -6.284392    4.755955    1.084873
     19          6           0       -7.563422    4.964093    0.617157
     20          6           0       -8.066908    3.638305    0.217578
     21          6           0       -5.251440    5.744332    1.724078
     22          6           0       -8.153972    6.308520    0.357779
     23          6           0       -9.053654    6.661009   -0.524474
     24          7           0       -9.179980    0.888961   -0.517857
     25          6           0       -9.903537    2.084034   -0.571669
     26          6           0      -11.235773    1.884822   -0.888831
     27          6           0      -11.455943    0.481619   -1.212008
     28          6           0      -10.074652   -0.097513   -0.907802
     29          6           0      -12.302528    2.922268   -1.192792
     30          6           0      -12.555046   -0.263535   -1.669287
     31          6           0      -12.575885   -0.596136   -3.239773
     32          7           0       -7.518402   -1.263732   -0.241536
     33          6           0       -8.652015   -2.010671   -0.886660
     34          6           0       -8.100918   -3.408954   -0.798780
     35          6           0       -6.914678   -3.354735   -0.260542
     36          6           0       -6.467189   -2.053126    0.051786
     37          6           0       -9.051382   -4.533918   -1.382657
     38          6           0       -5.772020   -4.352765    0.105071
     39          8           0       -5.717062   -5.557021    0.218288
     40          6           0       -4.532518   -3.375794    0.524198
     41          6           0       -3.952611   -3.806145    1.790971
     42          8           0       -4.274288   -3.453155    2.982502
     43          8           0       -2.997196   -4.742302    1.552858
     44          6           0       -2.410721   -5.492151    2.724599
     45          6           0        2.673836   -0.981745   -0.939158
     46          6           0        4.003162   -0.576734   -0.450044
     47          6           0        4.957470    0.071573   -1.196853
     48          6           0        4.764425    0.524342   -2.661132
     49          6           0        6.276106    0.222083   -0.495477
     50          6           0        7.512718   -0.485216   -1.050500
     51          6           0        8.767803   -0.255510   -0.265255
     52          6           0       10.130594   -0.749836   -0.816992
     53          6           0       10.123640   -2.249064   -0.909830
     54          6           0       11.361461   -0.215726    0.027159
     55          6           0       12.737311   -0.600170   -0.515532
     56          6           0       13.882636    0.071110    0.229671
     57          6           0       15.277481   -0.258884   -0.314527
     58          6           0       15.767135   -1.755808   -0.014358
     59          6           0       16.194209    0.803215    0.323958
     60          6           0       17.660919    0.696616   -0.119199
     61          6           0       18.646678    1.632211    0.589247
     62          6           0       20.086807    1.685118    0.052964
     63          6           0       20.195600    1.961450   -1.556387
     64          6           0       20.910623    2.651561    0.958650
     65          1           0       -3.846619    3.428962    1.776878
     66          1           0       -9.935104    4.318949   -0.562355
     67          1           0      -10.637417   -1.992531   -1.414477
     68          1           0       -2.829898   -1.385073    1.944551
     69          1           0       -2.428972    1.578511    1.494152
     70          1           0       -2.086396    0.274518    3.764669
     71          1           0       -2.988644    1.698338    4.033971
     72          1           0       -3.819053    0.087921    3.977138
     73          1           0       -2.315661   -1.688413   -0.562760
     74          1           0       -2.591824    0.172981   -0.546474
     75          1           0       -0.460557    0.384850    1.133004
     76          1           0       -0.643147   -1.431490    1.423787
     77          1           0       -4.424140    6.134214    1.007480
     78          1           0       -5.726936    6.754063    1.878785
     79          1           0       -4.664344    5.717172    2.520851
     80          1           0       -7.831049    7.200942    1.075841
     81          1           0       -9.259239    6.142868   -1.491127
     82          1           0       -9.394167    7.541025   -0.415100
     83          1           0      -12.715790    3.604955   -0.283277
     84          1           0      -12.117081    3.788715   -1.927997
     85          1           0      -13.122819    2.442929   -1.812769
     86          1           0      -12.570579   -1.156433   -1.062615
     87          1           0      -13.418794    0.401594   -1.543289
     88          1           0      -12.610810    0.266975   -3.798742
     89          1           0      -11.653274   -1.297557   -3.492038
     90          1           0      -13.358188   -1.139823   -3.531056
     91          1           0       -9.980139   -4.526470   -1.015075
     92          1           0       -8.969757   -4.429988   -2.605766
     93          1           0       -8.695510   -5.507720   -1.022029
     94          1           0       -3.769326   -3.607818   -0.334384
     95          1           0       -1.679868   -6.265473    2.319959
     96          1           0       -2.116568   -4.756579    3.516934
     97          1           0       -3.274128   -6.058467    3.077690
     98          1           0        2.616132   -2.063906   -0.939628
     99          1           0        2.764258   -0.566571   -2.051329
    100          1           0        4.168242   -0.609873    0.661992
    101          1           0        5.207385    1.372946   -2.916179
    102          1           0        5.058036   -0.336201   -3.458031
    103          1           0        3.613462    0.609631   -2.875547
    104          1           0        6.437942    1.192717   -0.379938
    105          1           0        6.319848   -0.088709    0.569008
    106          1           0        7.368377   -1.632839   -1.098915
    107          1           0        7.702218    0.073895   -2.047390
    108          1           0        8.976895    0.885469   -0.203080
    109          1           0        8.769977   -0.729972    0.822520
    110          1           0       10.188950   -0.123381   -1.697545
    111          1           0        9.485589   -2.780578   -1.799465
    112          1           0       11.208899   -2.573566   -1.358718
    113          1           0       10.011408   -2.919251    0.038374
    114          1           0       11.541935    0.860875   -0.251837
    115          1           0       11.371732   -0.472273    1.070324
    116          1           0       12.977260   -1.806353   -0.441832
    117          1           0       12.808379   -0.408436   -1.706301
    118          1           0       13.653608    1.096181    0.032147
    119          1           0       13.825106    0.052190    1.590267
    120          1           0       15.234831   -0.197991   -1.418370
    121          1           0       15.185824   -2.428846   -0.629981
    122          1           0       16.826150   -2.022207   -0.474078
    123          1           0       15.768717   -1.959494    1.057638
    124          1           0       15.672810    1.740608    0.442433
    125          1           0       16.273842    0.667526    1.596959
    126          1           0       17.955410   -0.285165    0.132905
    127          1           0       17.569455    0.794530   -1.134641
    128          1           0       18.250665    2.678349    0.426724
    129          1           0       18.519223    1.620295    1.591689
    130          1           0       20.616209    0.648121    0.227150
    131          1           0       19.715495    2.790634   -1.715519
    132          1           0       21.232118    1.775455   -1.939589
    133          1           0       19.663791    1.022297   -2.324507
    134          1           0       20.857336    2.030666    1.800337
    135          1           0       21.968987    2.922337    0.500665
    136          1           0       20.448161    3.701741    0.874840
    137          1           0       -7.070155    1.744195    0.090886
    138          1           0       -7.621029   -0.384423   -0.148913
 ---------------------------------------------------------------------

 SCF Done:  E(RB3LYP) =  -2732.98465476     A.U. after   17 cycles

 Excitation energies and oscillator strengths:

 Excited State   1:      Singlet-A      2.0866 eV  594.18 nm  f=0.1057  <S**2>=0.000
     235 -> 238        0.35218
     236 -> 237        0.60901
 This state for optimization and/or second-order correction.
 Total Energy, E(TD-HF/TD-DFT) =  -2732.90797219
 Copying the excited state density for this state as the 1-particle RhoCI density.

 The electronic state is 1-A.
 Alpha  occ. eigenvalues --  -19.19515 -19.17415 -19.14109 -19.11382 -19.11302
 Alpha  occ. eigenvalues --  -14.36624 -14.35171 -14.31929 -14.29480 -10.31481
 Alpha  occ. eigenvalues --  -10.31342 -10.29741 -10.25632 -10.25396 -10.23741
 Alpha  occ. eigenvalues --  -10.23264 -10.23162 -10.23066 -10.23056 -10.22474
 Alpha  occ. eigenvalues --  -10.22184 -10.21995 -10.21509 -10.21142 -10.21042
 Alpha  occ. eigenvalues --  -10.20992 -10.20772 -10.20739 -10.20663 -10.20613
 Alpha  occ. eigenvalues --  -10.20608 -10.20544 -10.20454 -10.20441 -10.20294
 Alpha  occ. eigenvalues --  -10.20290 -10.20233 -10.20129 -10.20057 -10.20039
 Alpha  occ. eigenvalues --  -10.20022 -10.19889 -10.19793 -10.19624 -10.19579
 Alpha  occ. eigenvalues --  -10.19494 -10.19486 -10.19479 -10.19375 -10.19361
 Alpha  occ. eigenvalues --  -10.19186 -10.19044 -10.19016 -10.19013 -10.18959
 Alpha  occ. eigenvalues --  -10.18888 -10.18740 -10.18411 -10.18345 -10.18191
 Alpha  occ. eigenvalues --  -10.17961 -10.17791 -10.17481 -10.16668  -1.11825
 Alpha  occ. eigenvalues --   -1.06508  -1.03980  -0.99829  -0.97777  -0.97254
 Alpha  occ. eigenvalues --   -0.96304  -0.93320  -0.91264  -0.84124  -0.83208
 Alpha  occ. eigenvalues --   -0.82013  -0.81437  -0.81116  -0.80977  -0.80557
 Alpha  occ. eigenvalues --   -0.80168  -0.79545  -0.79402  -0.79187  -0.78011
 Alpha  occ. eigenvalues --   -0.77057  -0.76158  -0.75848  -0.74818  -0.74224
 Alpha  occ. eigenvalues --   -0.73602  -0.73293  -0.72200  -0.71939  -0.70664
 Alpha  occ. eigenvalues --   -0.70100  -0.69031  -0.68894  -0.68452  -0.67398
 Alpha  occ. eigenvalues --   -0.67090  -0.66941  -0.66054  -0.65988  -0.65460
 Alpha  occ. eigenvalues --   -0.64701  -0.63001  -0.62690  -0.62394  -0.61758
 Alpha  occ. eigenvalues --   -0.60834  -0.59694  -0.58867  -0.58089  -0.56991
 Alpha  occ. eigenvalues --   -0.56575  -0.56069  -0.55872  -0.55272  -0.54794
 Alpha  occ. eigenvalues --   -0.54705  -0.54310  -0.54254  -0.53564  -0.52747
 Alpha  occ. eigenvalues --   -0.52298  -0.51774  -0.51411  -0.50955  -0.50664
 Alpha  occ. eigenvalues --   -0.49710  -0.49229  -0.48862  -0.48424  -0.48154
 Alpha  occ. eigenvalues --   -0.48006  -0.47814  -0.47559  -0.47311  -0.47109
 Alpha  occ. eigenvalues --   -0.46861  -0.46535  -0.46038  -0.45753  -0.45592
 Alpha  occ. eigenvalues --   -0.45205  -0.44977  -0.44862  -0.44595  -0.44553
 Alpha  occ. eigenvalues --   -0.44462  -0.44197  -0.43827  -0.43686  -0.43481
 Alpha  occ. eigenvalues --   -0.43421  -0.43382  -0.43009  -0.42871  -0.42521
 Alpha  occ. eigenvalues --   -0.42289  -0.42053  -0.41789  -0.41662  -0.41323
 Alpha  occ. eigenvalues --   -0.41210  -0.41066  -0.40812  -0.40409  -0.39993
 Alpha  occ. eigenvalues --   -0.39811  -0.39613  -0.39421  -0.39214  -0.38969
 Alpha  occ. eigenvalues --   -0.38686  -0.38675  -0.38554  -0.38410  -0.38379
 Alpha  occ. eigenvalues --   -0.38271  -0.37951  -0.37705  -0.37696  -0.37482
 Alpha  occ. eigenvalues --   -0.37340  -0.37232  -0.37165  -0.36890  -0.36616
 Alpha  occ. eigenvalues --   -0.36383  -0.36246  -0.36033  -0.35625  -0.35512
 Alpha  occ. eigenvalues --   -0.35415  -0.34978  -0.34829  -0.34665  -0.34559
 Alpha  occ. eigenvalues --   -0.34234  -0.34146  -0.33884  -0.33656  -0.33415
 Alpha  occ. eigenvalues --   -0.33244  -0.33082  -0.32891  -0.32764  -0.32327
 Alpha  occ. eigenvalues --   -0.32121  -0.32034  -0.31765  -0.31508  -0.31153
 Alpha  occ. eigenvalues --   -0.30759  -0.30717  -0.30580  -0.29966  -0.29577
 Alpha  occ. eigenvalues --   -0.29285  -0.28864  -0.28572  -0.28109  -0.27545
 Alpha  occ. eigenvalues --   -0.27041  -0.26647  -0.26505  -0.25993  -0.25953
 Alpha  occ. eigenvalues --   -0.25485  -0.25017  -0.23940  -0.21119  -0.19935
 Alpha  occ. eigenvalues --   -0.18746
 Alpha virt. eigenvalues --   -0.09548  -0.08357  -0.04118  -0.01745  -0.01538
 Alpha virt. eigenvalues --   -0.00861   0.00331   0.00624   0.01891   0.03287
 Alpha virt. eigenvalues --    0.03558   0.03767   0.04086   0.04401   0.04647

 Mulliken charges:
               1
     1  C   -0.000096
     2  C   -0.068852
     3  C   -0.109883
     4  C   -0.075717
     5  N   -0.200460
     6  C   -0.032081
     7  C   -0.009753
     8  C    0.042874
     9  C   -0.009845
    10  C    0.027333
    11  C   -0.062037
    12  C    0.039355
    13  C    0.184583
    14  O   -0.267202
    15  O   -0.244060
    16  N   -0.110929
    17  C    0.078127
    18  C   -0.067383
    19  C    0.033681
    20  C    0.073069
    21  C    0.104959
    22  C   -0.081176
    23  C    0.034414
    24  N   -0.276822
    25  C    0.084209
    26  C   -0.069329
    27  C   -0.093408
    28  C    0.047399
    29  C   -0.008306
    30  C    0.037492
    31  C    0.068402
    32  N   -0.008491
    33  C    0.136335
    34  C   -0.168648
    35  C   -0.039207
    36  C    0.154958
    37  C    0.119955
    38  C    0.136390
    39  O   -0.144272
    40  C   -0.098742
    41  C    0.236143
    42  O   -0.300362
    43  O   -0.340092
    44  C    0.176246
    45  C    0.284216
    46  C   -0.136554
    47  C   -0.126292
    48  C    0.058980
    49  C    0.133461
    50  C    0.038509
    51  C   -0.058769
    52  C    0.002000
    53  C   -0.061744
    54  C    0.058014
    55  C   -0.087063
    56  C   -0.009923
    57  C   -0.049313
    58  C    0.014422
    59  C   -0.055928
    60  C    0.170609
    61  C    0.069902
    62  C   -0.122557
    63  C    0.013128
    64  C    0.018523
    65  H    0.010042
    66  H    0.023314
    67  H   -0.042525
    68  H    0.000995
    69  H   -0.028329
    70  H    0.002853
    71  H    0.008822
    72  H    0.049878
    73  H    0.053256
    74  H    0.019715
    75  H    0.042518
    76  H    0.025776
    77  H    0.007711
    78  H   -0.011833
    79  H   -0.016540
    80  H    0.029974
    81  H    0.041644
    82  H   -0.039525
    83  H    0.033012
    84  H    0.015421
    85  H    0.009868
    86  H    0.012866
    87  H    0.000933
    88  H   -0.003960
    89  H    0.015838
    90  H   -0.022479
    91  H   -0.002038
    92  H    0.063903
    93  H    0.024549
    94  H    0.083512
    95  H    0.056212
    96  H    0.056194
    97  H    0.037353
    98  H    0.014555
    99  H    0.032230
   100  H    0.007577
   101  H   -0.007810
   102  H    0.052391
   103  H    0.035930
   104  H   -0.047776
   105  H   -0.016516
   106  H    0.020856
   107  H   -0.002390
   108  H   -0.006136
   109  H    0.001335
   110  H   -0.024740
   111  H    0.031354
   112  H    0.018418
   113  H    0.036688
   114  H   -0.000073
   115  H    0.001765
   116  H    0.012393
   117  H    0.013656
   118  H   -0.017116
   119  H    0.016850
   120  H   -0.004514
   121  H    0.004175
   122  H    0.020026
   123  H    0.020626
   124  H   -0.019040
   125  H   -0.023046
   126  H   -0.016108
   127  H   -0.030618
   128  H   -0.028243
   129  H   -0.050190
   130  H   -0.001845
   131  H   -0.013987
   132  H    0.027461
   133  H    0.012194
   134  H    0.022723
   135  H    0.018537
   136  H    0.016254
   137  H    0.212639
   138  H    0.018193
 Sum of Mulliken charges =  -0.00000

 Dipole moment (field-independent basis, Debye):
    X=              4.5033    Y=              2.8619    Z=             -1.3948  Tot=              5.5150
 Quadrupole moment (field-independent basis, Debye-Ang):
   XX=           -359.6429   YY=           -375.5987   ZZ=           -395.3142
   XY=            -10.3676   XZ=             16.6419   YZ=             -0.7907

 Normal termination of Gaussian 16 at Sat Aug 17 21:18:05 2019.
