 Gaussian 16, Revision A.03,
 Gaussian 16:  ES64L-G16RevA.03 25-Dec-2016

 --------------------------
 # td=(NStates=1) B3LYP/SVP
 --------------------------

 --
 TD
 --
 Symbolic Z-matrix:
 Charge =  0 Multiplicity = 1

                         Standard orientation:
 ---------------------------------------------------------------------
 Center     Atomic      Atomic             Coordinates (Angstroms)
 Number     Number       Type             X           Y           Z
 ---------------------------------------------------------------------
      1          6           0       -5.199639   -1.986756    0.480169
      2          6           0       -4.781455    2.767776    1.403814
      3          6           0       -9.182223    3.373782   -0.362730
      4          6           0       -9.911422   -1.355785   -0.746778
      5          7           0       -5.237685    0.426625    0.851546
      6          6           0       -4.615123   -0.755547    0.839895
      7          6           0       -3.082477   -0.593135    1.290605
      8          6           0       -3.036903    0.939357    1.782153
      9          6           0       -4.379244    1.433257    1.394012
     10          6           0       -2.832176    0.992193    3.291676
     11          6           0       -2.013800   -0.868495    0.090108
     12          6           0       -0.589724   -0.769174    0.574328
     13          6           0        0.401090   -1.142497   -0.643321
     14          8           0        0.039483   -1.540971   -1.769349
     15          8           0        1.671030   -0.810539   -0.326117
     16          7           0       -6.995401    2.848926    0.404254
     17          6           0       -5.918558    3.388774    1.010145
     18          6           0       -6.091074    4.794493    1.073640
     19          6           0       -7.424873    5.072115    0.419977
     20          6           0       -7.934954    3.684005    0.089070
     21          6           0       -5.175428    5.806067    1.652393
     22          6           0       -8.006783    6.352590    0.272258
     23          6           0       -8.969127    6.625489   -0.634550
     24          7           0       -9.151590    0.873197   -0.398502
     25          6           0       -9.806277    2.078392   -0.564813
     26          6           0      -11.204441    1.909744   -0.948453
     27          6           0      -11.431734    0.631657   -1.083363
     28          6           0      -10.012375   -0.012865   -0.892643
     29          6           0      -12.113610    3.100761   -1.152589
     30          6           0      -12.612934   -0.105195   -1.516781
     31          6           0      -12.682139   -0.631477   -2.911040
     32          7           0       -7.553303   -1.253546   -0.214325
     33          6           0       -8.688682   -2.021205   -0.627216
     34          6           0       -8.296455   -3.352014   -0.696897
     35          6           0       -6.839874   -3.393015   -0.296186
     36          6           0       -6.421652   -2.055177   -0.099626
     37          6           0       -9.201370   -4.460383   -0.941030
     38          6           0       -5.873551   -4.271432    0.039961
     39          8           0       -5.736247   -5.469878    0.104269
     40          6           0       -4.583084   -3.376158    0.435373
     41          6           0       -3.874314   -3.816333    1.666249
     42          8           0       -4.027695   -3.375261    2.764650
     43          8           0       -3.090793   -4.877912    1.332371
     44          6           0       -2.485342   -5.514449    2.449601
     45          6           0        2.679260   -1.236125   -1.225141
     46          6           0        3.969836   -0.832823   -0.664766
     47          6           0        4.905845   -0.007572   -1.135711
     48          6           0        4.908553    0.686291   -2.486507
     49          6           0        6.136845    0.217669   -0.249721
     50          6           0        7.377346   -0.455254   -0.812390
     51          6           0        8.685514   -0.204807   -0.115103
     52          6           0       10.015385   -0.705602   -0.750910
     53          6           0        9.996059   -2.225422   -0.897153
     54          6           0       11.155570   -0.235016    0.118577
     55          6           0       12.570902   -0.543996   -0.407918
     56          6           0       13.797176   -0.161721    0.371246
     57          6           0       15.199008   -0.238828   -0.382823
     58          6           0       15.582478   -1.752571   -0.353581
     59          6           0       16.284737    0.627420    0.401840
     60          6           0       17.644180    0.729911   -0.237452
     61          6           0       18.574882    1.716273    0.535812
     62          6           0       20.091009    1.695193    0.064692
     63          6           0       20.296116    2.129038   -1.329463
     64          6           0       20.914840    2.519272    0.969062
     65          1           0       -3.894668    3.554549    1.471576
     66          1           0       -9.867591    4.105633   -0.733287
     67          1           0      -10.644474   -2.155589   -1.176870
     68          1           0       -2.801010   -1.197412    2.017539
     69          1           0       -2.347449    1.492536    1.290148
     70          1           0       -1.790962    0.374228    3.315303
     71          1           0       -2.585544    1.924533    3.751447
     72          1           0       -3.684743    0.517320    3.970229
     73          1           0       -2.347775   -2.042043   -0.028815
     74          1           0       -2.192617   -0.218832   -0.770071
     75          1           0       -0.287296    0.260052    0.732599
     76          1           0       -0.347961   -1.467163    1.525174
     77          1           0       -4.335962    6.036544    0.807943
     78          1           0       -5.625665    6.793781    1.985034
     79          1           0       -4.772693    5.256167    2.661414
     80          1           0       -7.568214    7.175958    0.815364
     81          1           0       -9.423055    5.748291   -1.416621
     82          1           0       -9.333803    7.591995   -0.414839
     83          1           0      -12.224288    3.613918   -0.060278
     84          1           0      -11.597715    3.931117   -1.889897
     85          1           0      -13.021765    2.924284   -1.547109
     86          1           0      -12.609503   -1.037481   -0.781958
     87          1           0      -13.533452    0.477600   -1.146840
     88          1           0      -12.644020    0.147497   -3.593177
     89          1           0      -11.895797   -1.530662   -3.158353
     90          1           0      -13.722790   -1.148439   -2.973617
     91          1           0      -10.053336   -4.787518    0.038062
     92          1           0       -9.876950   -4.267396   -1.814533
     93          1           0       -8.667234   -5.415086   -1.071749
     94          1           0       -3.949214   -3.406727   -0.434126
     95          1           0       -1.822588   -6.435715    2.030572
     96          1           0       -2.108110   -4.826758    3.041963
     97          1           0       -3.304216   -6.004981    3.187606
     98          1           0        2.829618   -2.454772   -1.314249
     99          1           0        2.532861   -0.745276   -2.184869
    100          1           0        4.039921   -1.425325    0.352617
    101          1           0        5.305838    1.635682   -2.311451
    102          1           0        5.389989    0.095746   -3.019401
    103          1           0        3.797749    0.876952   -2.784766
    104          1           0        6.480884    1.248741   -0.358786
    105          1           0        6.057004    0.111537    0.916562
    106          1           0        7.409060   -1.526590   -0.724700
    107          1           0        7.231498   -0.078313   -1.850207
    108          1           0        8.940821    0.975583   -0.076671
    109          1           0        8.751068   -0.321431    1.160033
    110          1           0       10.170738   -0.245046   -1.733261
    111          1           0        9.310117   -2.741346   -1.529418
    112          1           0       10.899491   -2.654100   -1.362939
    113          1           0        9.851549   -2.608406    0.154301
    114          1           0       11.000908    0.811222    0.204664
    115          1           0       11.067971   -0.622447    1.194362
    116          1           0       12.838716   -1.517486   -0.700349
    117          1           0       12.664855   -0.108688   -1.410933
    118          1           0       13.568463    1.056856    0.772809
    119          1           0       13.928422   -0.702157    1.310720
    120          1           0       15.242420    0.105102   -1.417235
    121          1           0       14.919821   -2.187809   -1.114741
    122          1           0       16.614209   -1.842159   -0.657929
    123          1           0       15.489016   -2.174009    0.661767
    124          1           0       15.952825    1.742046    0.767275
    125          1           0       16.381927    0.307742    1.497161
    126          1           0       18.260719   -0.292294   -0.351639
    127          1           0       17.384457    1.233327   -1.171924
    128          1           0       18.190931    2.729063    0.554534
    129          1           0       18.521155    1.375775    1.601651
    130          1           0       20.468935    0.661757    0.081924
    131          1           0       19.846587    3.180318   -1.224671
    132          1           0       21.414526    2.126805   -1.654386
    133          1           0       19.483351    1.411216   -2.168502
    134          1           0       20.986797    2.112802    1.956295
    135          1           0       21.987464    2.584453    0.545971
    136          1           0       20.587767    3.384573    0.965414
    137          1           0       -6.980503    1.849015    0.093858
    138          1           0       -7.700761   -0.166936    0.053861
 ---------------------------------------------------------------------

 SCF Done:  E(RB3LYP) =  -2733.00601884     A.U. after   17 cycles

 Excitation energies and oscillator strengths:

 Excited State   1:      Singlet-A      1.9305 eV  642.24 nm  f=0.2402  <S**2>=0.000
     235 -> 237       -0.15779
     235 -> 238       -0.25667
     236 -> 237        0.63012
     236 -> 238       -0.11077
 This state for optimization and/or second-order correction.
 Total Energy, E(TD-HF/TD-DFT) =  -2732.93507404
 Copying the excited state density for this state as the 1-particle RhoCI density.

 The electronic state is 1-A.
 Alpha  occ. eigenvalues --  -19.18670 -19.17048 -19.12720 -19.12272 -19.10413
 Alpha  occ. eigenvalues --  -14.37424 -14.35688 -14.32737 -14.31369 -10.32291
 Alpha  occ. eigenvalues --  -10.30728 -10.25877 -10.25352 -10.24244 -10.24133
 Alpha  occ. eigenvalues --  -10.23480 -10.23239 -10.23156 -10.22676 -10.22668
 Alpha  occ. eigenvalues --  -10.22611 -10.22554 -10.22120 -10.21776 -10.21583
 Alpha  occ. eigenvalues --  -10.21202 -10.21143 -10.21110 -10.20957 -10.20802
 Alpha  occ. eigenvalues --  -10.20629 -10.20377 -10.20355 -10.20337 -10.20271
 Alpha  occ. eigenvalues --  -10.20244 -10.20150 -10.20073 -10.20013 -10.19943
 Alpha  occ. eigenvalues --  -10.19852 -10.19666 -10.19655 -10.19651 -10.19612
 Alpha  occ. eigenvalues --  -10.19527 -10.19488 -10.19411 -10.19302 -10.19223
 Alpha  occ. eigenvalues --  -10.18952 -10.18780 -10.18766 -10.18703 -10.18647
 Alpha  occ. eigenvalues --  -10.18622 -10.18548 -10.18385 -10.18362 -10.18096
 Alpha  occ. eigenvalues --  -10.17911 -10.17509 -10.17492 -10.15920  -1.09593
 Alpha  occ. eigenvalues --   -1.09147  -1.01588  -1.01027  -1.00494  -0.99525
 Alpha  occ. eigenvalues --   -0.95948  -0.94470  -0.92752  -0.85293  -0.83197
 Alpha  occ. eigenvalues --   -0.82240  -0.81879  -0.81572  -0.81464  -0.81071
 Alpha  occ. eigenvalues --   -0.80457  -0.79825  -0.79670  -0.79269  -0.78063
 Alpha  occ. eigenvalues --   -0.77234  -0.76189  -0.75845  -0.75556  -0.75075
 Alpha  occ. eigenvalues --   -0.74294  -0.73685  -0.72606  -0.72479  -0.70148
 Alpha  occ. eigenvalues --   -0.69696  -0.69232  -0.68491  -0.67888  -0.67717
 Alpha  occ. eigenvalues --   -0.67570  -0.67328  -0.65991  -0.65962  -0.65117
 Alpha  occ. eigenvalues --   -0.64549  -0.62963  -0.62289  -0.61955  -0.61681
 Alpha  occ. eigenvalues --   -0.60621  -0.58811  -0.58341  -0.58130  -0.57777
 Alpha  occ. eigenvalues --   -0.56526  -0.56308  -0.55882  -0.55518  -0.55030
 Alpha  occ. eigenvalues --   -0.54964  -0.54731  -0.53756  -0.53376  -0.52997
 Alpha  occ. eigenvalues --   -0.52555  -0.52126  -0.51204  -0.50851  -0.50383
 Alpha  occ. eigenvalues --   -0.49898  -0.49501  -0.48579  -0.48408  -0.48046
 Alpha  occ. eigenvalues --   -0.47901  -0.47577  -0.47488  -0.47415  -0.47274
 Alpha  occ. eigenvalues --   -0.46929  -0.46517  -0.46310  -0.45968  -0.45839
 Alpha  occ. eigenvalues --   -0.45723  -0.45590  -0.45427  -0.44844  -0.44700
 Alpha  occ. eigenvalues --   -0.44544  -0.44427  -0.44068  -0.43717  -0.43491
 Alpha  occ. eigenvalues --   -0.43350  -0.43314  -0.42718  -0.42688  -0.42482
 Alpha  occ. eigenvalues --   -0.42192  -0.42028  -0.41915  -0.41737  -0.41612
 Alpha  occ. eigenvalues --   -0.41316  -0.41142  -0.40747  -0.40580  -0.40453
 Alpha  occ. eigenvalues --   -0.40207  -0.39817  -0.39703  -0.39524  -0.39378
 Alpha  occ. eigenvalues --   -0.39257  -0.38871  -0.38749  -0.38621  -0.38233
 Alpha  occ. eigenvalues --   -0.38164  -0.38006  -0.37933  -0.37878  -0.37616
 Alpha  occ. eigenvalues --   -0.37416  -0.37297  -0.37003  -0.36970  -0.36679
 Alpha  occ. eigenvalues --   -0.36423  -0.36078  -0.35841  -0.35766  -0.35669
 Alpha  occ. eigenvalues --   -0.35432  -0.35253  -0.35152  -0.35026  -0.34679
 Alpha  occ. eigenvalues --   -0.34608  -0.34329  -0.34252  -0.34093  -0.33793
 Alpha  occ. eigenvalues --   -0.33734  -0.33104  -0.33065  -0.32896  -0.32533
 Alpha  occ. eigenvalues --   -0.32525  -0.32004  -0.31590  -0.31150  -0.31132
 Alpha  occ. eigenvalues --   -0.30927  -0.30796  -0.30258  -0.30123  -0.29671
 Alpha  occ. eigenvalues --   -0.29536  -0.29449  -0.28673  -0.28564  -0.28096
 Alpha  occ. eigenvalues --   -0.27857  -0.27731  -0.26624  -0.26569  -0.25027
 Alpha  occ. eigenvalues --   -0.24583  -0.24178  -0.23525  -0.22869  -0.20079
 Alpha  occ. eigenvalues --   -0.18939
 Alpha virt. eigenvalues --   -0.11189  -0.07891  -0.04714  -0.01958  -0.00846
 Alpha virt. eigenvalues --    0.00226   0.00450   0.00741   0.01941   0.03312
 Alpha virt. eigenvalues --    0.03541   0.03585   0.03821   0.03987   0.04508

 Mulliken charges:
               1
     1  C   -0.013577
     2  C   -0.128160
     3  C   -0.072670
     4  C   -0.077343
     5  N   -0.201755
     6  C   -0.023120
     7  C    0.022226
     8  C    0.058167
     9  C   -0.006239
    10  C    0.007521
    11  C   -0.002931
    12  C    0.001525
    13  C    0.194064
    14  O   -0.258848
    15  O   -0.291665
    16  N    0.028670
    17  C    0.115957
    18  C   -0.132711
    19  C    0.036795
    20  C    0.114642
    21  C   -0.012522
    22  C   -0.076583
    23  C   -0.032962
    24  N   -0.245211
    25  C    0.010288
    26  C   -0.090137
    27  C   -0.099002
    28  C    0.086497
    29  C    0.078071
    30  C   -0.008388
    31  C    0.020684
    32  N   -0.189904
    33  C    0.069527
    34  C   -0.042231
    35  C    0.012753
    36  C    0.119736
    37  C   -0.017150
    38  C   -0.015090
    39  O   -0.166248
    40  C   -0.043712
    41  C    0.194628
    42  O   -0.204505
    43  O   -0.298858
    44  C    0.189394
    45  C    0.251014
    46  C   -0.137257
    47  C   -0.176548
    48  C    0.194577
    49  C    0.060745
    50  C    0.082471
    51  C   -0.089137
    52  C   -0.046056
    53  C    0.037517
    54  C    0.077527
    55  C    0.113706
    56  C   -0.036545
    57  C   -0.061160
    58  C    0.056344
    59  C   -0.045956
    60  C    0.036490
    61  C   -0.005144
    62  C   -0.062244
    63  C   -0.076056
    64  C    0.156064
    65  H    0.016664
    66  H   -0.070273
    67  H    0.009725
    68  H   -0.051097
    69  H   -0.040067
    70  H    0.021065
    71  H    0.006556
    72  H    0.055101
    73  H    0.050854
    74  H    0.019001
    75  H    0.029038
    76  H    0.063792
    77  H    0.062983
    78  H    0.041175
    79  H    0.056285
    80  H   -0.016195
    81  H    0.078185
    82  H    0.009132
    83  H    0.046996
    84  H    0.041055
    85  H   -0.020935
    86  H    0.019266
    87  H    0.012844
    88  H    0.006367
    89  H    0.038371
    90  H    0.023637
    91  H    0.049129
    92  H    0.035257
    93  H    0.041925
    94  H    0.058208
    95  H    0.061944
    96  H   -0.015654
    97  H    0.029745
    98  H    0.048251
    99  H    0.001142
   100  H    0.009936
   101  H    0.001487
   102  H   -0.013318
   103  H    0.034678
   104  H   -0.021837
   105  H    0.013098
   106  H   -0.005040
   107  H   -0.009910
   108  H   -0.015336
   109  H    0.018886
   110  H   -0.012609
   111  H   -0.002169
   112  H   -0.001548
   113  H    0.005878
   114  H   -0.022215
   115  H   -0.003859
   116  H   -0.045785
   117  H   -0.031649
   118  H   -0.010505
   119  H   -0.002867
   120  H   -0.008450
   121  H    0.016313
   122  H   -0.003439
   123  H    0.013012
   124  H    0.000385
   125  H   -0.019272
   126  H    0.031812
   127  H    0.001654
   128  H   -0.010787
   129  H   -0.007955
   130  H   -0.018847
   131  H    0.009328
   132  H    0.038817
   133  H    0.029162
   134  H   -0.001513
   135  H   -0.004382
   136  H   -0.075771
   137  H    0.157968
   138  H    0.207196
 Sum of Mulliken charges =  -0.00000

 Dipole moment (field-independent basis, Debye):
    X=              1.5133    Y=              5.7381    Z=             -0.3666  Tot=              5.9456
 Quadrupole moment (field-independent basis, Debye-Ang):
   XX=           -337.9555   YY=           -389.7587   ZZ=           -397.2836
   XY=            -34.7628   XZ=             15.4284   YZ=              1.8418

 Normal termination of Gaussian 16 at Sat Aug 31 22:39:25 2019.
