 Gaussian 16, Revision A.03,
 Gaussian 16:  ES64L-G16RevA.03 25-Dec-2016

 --------------------------
 # td=(NStates=1) B3LYP/SVP
 --------------------------

 --
 TD
 --
 Symbolic Z-matrix:
 Charge =  0 Multiplicity = 1

                         Standard orientation:
 ---------------------------------------------------------------------
 Center     Atomic      Atomic             Coordinates (Angstroms)
 Number     Number       Type             X           Y           Z
 ---------------------------------------------------------------------
      1          6           0       -5.219939   -1.913543    0.379597
      2          6           0       -4.709269    2.793949    1.423524
      3          6           0       -9.309944    3.296187   -0.268565
      4          6           0       -9.930268   -1.429369   -0.782785
      5          7           0       -5.176295    0.390987    0.841335
      6          6           0       -4.505426   -0.783081    0.814211
      7          6           0       -3.045466   -0.611038    1.269932
      8          6           0       -3.099831    0.833420    1.925436
      9          6           0       -4.428110    1.396145    1.398756
     10          6           0       -3.168431    0.785219    3.478872
     11          6           0       -2.099897   -0.622147    0.203656
     12          6           0       -0.555818   -0.664976    0.646867
     13          6           0        0.410067   -0.976382   -0.414071
     14          8           0        0.099943   -1.590407   -1.473221
     15          8           0        1.700741   -0.630771   -0.148173
     16          7           0       -7.049005    2.776532    0.495930
     17          6           0       -5.930011    3.447557    0.967587
     18          6           0       -6.207010    4.770208    0.910745
     19          6           0       -7.535587    4.976151    0.414025
     20          6           0       -7.993468    3.594553    0.139238
     21          6           0       -5.169243    5.720109    1.352253
     22          6           0       -8.077321    6.284220    0.220434
     23          6           0       -9.133814    6.608863   -0.575363
     24          7           0       -9.206399    0.887504   -0.405986
     25          6           0       -9.865578    2.034422   -0.567722
     26          6           0      -11.270078    1.880250   -0.923386
     27          6           0      -11.471172    0.466908   -1.107112
     28          6           0      -10.224528   -0.127942   -0.631089
     29          6           0      -12.116553    2.995162   -1.098912
     30          6           0      -12.727834   -0.148781   -1.504819
     31          6           0      -12.709584   -0.322147   -3.130040
     32          7           0       -7.498339   -1.258098   -0.201575
     33          6           0       -8.623331   -2.085577   -0.596944
     34          6           0       -8.193238   -3.461072   -0.603550
     35          6           0       -6.868301   -3.398344   -0.382501
     36          6           0       -6.503794   -2.067771   -0.050756
     37          6           0       -9.010311   -4.653611   -1.034334
     38          6           0       -5.818250   -4.388873   -0.115094
     39          8           0       -5.637555   -5.538040   -0.253864
     40          6           0       -4.532015   -3.395451    0.398397
     41          6           0       -3.911220   -3.803022    1.680947
     42          8           0       -4.372102   -3.425167    2.814993
     43          8           0       -3.111347   -4.808847    1.488692
     44          6           0       -2.423320   -5.445883    2.677255
     45          6           0        2.691700   -0.903242   -1.181766
     46          6           0        4.032050   -0.641392   -0.624344
     47          6           0        5.033282    0.097599   -1.132302
     48          6           0        4.871620    0.835535   -2.450299
     49          6           0        6.317277    0.357226   -0.368445
     50          6           0        7.591963   -0.405741   -1.142372
     51          6           0        8.737640   -0.241832   -0.201190
     52          6           0       10.098764   -0.729719   -0.888546
     53          6           0       10.097677   -2.244512   -1.071311
     54          6           0       11.257495   -0.173780   -0.120019
     55          6           0       12.640064   -0.615488   -0.670512
     56          6           0       13.789465   -0.141321    0.190752
     57          6           0       15.241809   -0.312637   -0.423444
     58          6           0       15.622135   -1.670142   -0.640379
     59          6           0       16.298490    0.577690    0.487018
     60          6           0       17.686613    0.548176   -0.106215
     61          6           0       18.676371    1.511244    0.711484
     62          6           0       20.143295    1.705272    0.256526
     63          6           0       20.292038    2.261913   -1.135079
     64          6           0       20.892372    2.465949    1.309970
     65          1           0       -3.982118    3.448888    1.853387
     66          1           0      -10.029036    4.137719   -0.165076
     67          1           0      -10.900582   -2.123465   -0.997634
     68          1           0       -2.544584   -1.388354    2.118802
     69          1           0       -2.220816    1.559247    1.581238
     70          1           0       -2.291088    0.280533    4.045313
     71          1           0       -3.450736    1.795793    4.057824
     72          1           0       -3.915551    0.293204    3.689233
     73          1           0       -2.171557   -1.809880   -0.085008
     74          1           0       -2.384557    0.175780   -0.430917
     75          1           0       -0.154944    0.390938    0.854391
     76          1           0       -0.405202   -1.288656    1.591950
     77          1           0       -4.348375    6.041977    0.411586
     78          1           0       -5.495661    6.788304    1.494856
     79          1           0       -4.588024    5.595493    2.333404
     80          1           0       -7.552935    6.932919    0.915129
     81          1           0       -9.646508    5.956798   -1.208928
     82          1           0       -9.583796    7.703519   -0.461983
     83          1           0      -12.279014    3.422604   -0.009054
     84          1           0      -11.795191    3.770125   -1.916460
     85          1           0      -13.102876    2.856536   -1.261489
     86          1           0      -12.808645   -1.096920   -1.121159
     87          1           0      -13.613425    0.428951   -1.157293
     88          1           0      -12.574719    0.546542   -3.828251
     89          1           0      -11.762487   -1.109136   -3.409306
     90          1           0      -13.505731   -0.944604   -3.484498
     91          1           0       -9.832075   -4.666987   -0.350654
     92          1           0       -9.550190   -4.515329   -2.015993
     93          1           0       -8.529924   -5.426159   -1.023158
     94          1           0       -3.650086   -3.673141   -0.367611
     95          1           0       -1.705043   -6.019478    2.338249
     96          1           0       -2.053931   -4.692484    3.511307
     97          1           0       -3.194503   -6.226747    3.111442
     98          1           0        2.524255   -1.897376   -1.434039
     99          1           0        2.348932   -0.314809   -2.126980
    100          1           0        4.178541   -1.302981    0.308745
    101          1           0        5.209596    1.727528   -2.567958
    102          1           0        5.612597    0.140513   -3.056491
    103          1           0        3.838934    0.598838   -2.759012
    104          1           0        6.611570    1.530317   -0.280989
    105          1           0        6.236253   -0.052537    0.665883
    106          1           0        7.429516   -1.292659   -1.427076
    107          1           0        7.885560    0.230977   -1.995074
    108          1           0        8.895672    0.959295   -0.221466
    109          1           0        8.749405   -0.653577    0.944883
    110          1           0        9.862049   -0.222588   -1.769681
    111          1           0        9.322758   -2.472360   -1.707992
    112          1           0       10.933403   -2.498039   -1.700356
    113          1           0       10.349306   -2.656322   -0.183243
    114          1           0       11.298984    1.021786   -0.060143
    115          1           0       11.022418   -0.565195    0.779516
    116          1           0       12.540878   -1.750743   -0.521873
    117          1           0       13.040316   -0.330089   -1.731976
    118          1           0       13.794461    1.073875    0.451439
    119          1           0       13.920926   -0.621564    1.163556
    120          1           0       15.349934    0.424290   -1.396436
    121          1           0       14.834977   -2.417570   -1.099005
    122          1           0       16.526923   -1.778477   -1.226824
    123          1           0       15.794365   -2.124690    0.347599
    124          1           0       15.883920    1.503970    0.557418
    125          1           0       16.456409    0.328294    1.457852
    126          1           0       18.324208   -0.408052   -0.241155
    127          1           0       17.614523    0.882552   -1.115969
    128          1           0       17.997840    2.400484    0.785759
    129          1           0       18.428275    1.131957    1.551957
    130          1           0       20.542587    0.712665    0.234015
    131          1           0       19.729259    3.117276   -1.219481
    132          1           0       21.309309    2.217938   -1.660509
    133          1           0       19.502543    1.742709   -1.637264
    134          1           0       20.815758    2.046638    2.385136
    135          1           0       22.025449    2.515317    1.054203
    136          1           0       20.465866    3.570050    1.138431
    137          1           0       -7.118933    1.760311    0.320657
    138          1           0       -7.598151   -0.245780   -0.040310
 ---------------------------------------------------------------------

 SCF Done:  E(RB3LYP) =  -2732.93838481     A.U. after   17 cycles

 Excitation energies and oscillator strengths:

 Excited State   1:      Singlet-A      2.0211 eV  613.46 nm  f=0.1971  <S**2>=0.000
     235 -> 237       -0.31767
     235 -> 238        0.22542
     236 -> 237        0.55573
     236 -> 238        0.18978
 This state for optimization and/or second-order correction.
 Total Energy, E(TD-HF/TD-DFT) =  -2732.86411214
 Copying the excited state density for this state as the 1-particle RhoCI density.

 The electronic state is 1-A.
 Alpha  occ. eigenvalues --  -19.18413 -19.17297 -19.13418 -19.11251 -19.09660
 Alpha  occ. eigenvalues --  -14.37122 -14.37043 -14.32287 -14.30122 -10.31238
 Alpha  occ. eigenvalues --  -10.30147 -10.28470 -10.25801 -10.24394 -10.24134
 Alpha  occ. eigenvalues --  -10.23691 -10.23350 -10.23200 -10.23150 -10.22872
 Alpha  occ. eigenvalues --  -10.21788 -10.21597 -10.21512 -10.21407 -10.21284
 Alpha  occ. eigenvalues --  -10.21002 -10.20946 -10.20929 -10.20763 -10.20685
 Alpha  occ. eigenvalues --  -10.20636 -10.20589 -10.20479 -10.20269 -10.20252
 Alpha  occ. eigenvalues --  -10.20115 -10.20104 -10.20050 -10.19995 -10.19933
 Alpha  occ. eigenvalues --  -10.19854 -10.19834 -10.19678 -10.19408 -10.19248
 Alpha  occ. eigenvalues --  -10.19201 -10.19073 -10.19012 -10.18902 -10.18813
 Alpha  occ. eigenvalues --  -10.18707 -10.18567 -10.18486 -10.18402 -10.18278
 Alpha  occ. eigenvalues --  -10.18190 -10.17889 -10.17849 -10.17835 -10.17687
 Alpha  occ. eigenvalues --  -10.17051 -10.16937 -10.16649 -10.16561  -1.08461
 Alpha  occ. eigenvalues --   -1.07621  -1.05599  -0.99847  -0.99171  -0.97535
 Alpha  occ. eigenvalues --   -0.95598  -0.93771  -0.92335  -0.83073  -0.82871
 Alpha  occ. eigenvalues --   -0.82373  -0.81926  -0.81770  -0.81589  -0.81274
 Alpha  occ. eigenvalues --   -0.80416  -0.80026  -0.79753  -0.79021  -0.77501
 Alpha  occ. eigenvalues --   -0.76846  -0.76140  -0.75404  -0.75147  -0.74576
 Alpha  occ. eigenvalues --   -0.74125  -0.73349  -0.72706  -0.72644  -0.71357
 Alpha  occ. eigenvalues --   -0.70101  -0.69285  -0.68784  -0.68613  -0.68318
 Alpha  occ. eigenvalues --   -0.67805  -0.67507  -0.67017  -0.66321  -0.64495
 Alpha  occ. eigenvalues --   -0.64100  -0.63468  -0.62756  -0.62641  -0.62091
 Alpha  occ. eigenvalues --   -0.61192  -0.59220  -0.58387  -0.57864  -0.57383
 Alpha  occ. eigenvalues --   -0.56801  -0.56203  -0.56050  -0.55784  -0.55516
 Alpha  occ. eigenvalues --   -0.55057  -0.54532  -0.53994  -0.53937  -0.53364
 Alpha  occ. eigenvalues --   -0.52799  -0.51702  -0.51293  -0.51118  -0.49858
 Alpha  occ. eigenvalues --   -0.49474  -0.48933  -0.48539  -0.48229  -0.48020
 Alpha  occ. eigenvalues --   -0.47795  -0.47645  -0.47549  -0.47240  -0.46996
 Alpha  occ. eigenvalues --   -0.46825  -0.46495  -0.46201  -0.45988  -0.45807
 Alpha  occ. eigenvalues --   -0.45460  -0.45382  -0.45074  -0.44858  -0.44776
 Alpha  occ. eigenvalues --   -0.44633  -0.44494  -0.44257  -0.44056  -0.44022
 Alpha  occ. eigenvalues --   -0.43729  -0.43508  -0.43349  -0.42632  -0.42500
 Alpha  occ. eigenvalues --   -0.42370  -0.42127  -0.41802  -0.41760  -0.41660
 Alpha  occ. eigenvalues --   -0.41436  -0.41136  -0.40940  -0.40611  -0.40498
 Alpha  occ. eigenvalues --   -0.40180  -0.40067  -0.39884  -0.39683  -0.39569
 Alpha  occ. eigenvalues --   -0.39462  -0.39443  -0.39233  -0.38931  -0.38595
 Alpha  occ. eigenvalues --   -0.38566  -0.38245  -0.38112  -0.37694  -0.37591
 Alpha  occ. eigenvalues --   -0.37534  -0.37329  -0.37006  -0.36944  -0.36642
 Alpha  occ. eigenvalues --   -0.36497  -0.36090  -0.35993  -0.35901  -0.35706
 Alpha  occ. eigenvalues --   -0.35431  -0.35237  -0.35028  -0.34875  -0.34571
 Alpha  occ. eigenvalues --   -0.34465  -0.34234  -0.34106  -0.33985  -0.33889
 Alpha  occ. eigenvalues --   -0.33826  -0.33602  -0.33237  -0.32961  -0.32379
 Alpha  occ. eigenvalues --   -0.32115  -0.31825  -0.31678  -0.31074  -0.31072
 Alpha  occ. eigenvalues --   -0.30665  -0.30481  -0.30163  -0.29781  -0.29543
 Alpha  occ. eigenvalues --   -0.28795  -0.28598  -0.27923  -0.27684  -0.27581
 Alpha  occ. eigenvalues --   -0.27266  -0.26884  -0.26664  -0.26273  -0.25006
 Alpha  occ. eigenvalues --   -0.24199  -0.24105  -0.23426  -0.21778  -0.19817
 Alpha  occ. eigenvalues --   -0.18745
 Alpha virt. eigenvalues --   -0.10613  -0.07638  -0.04283  -0.01872  -0.00838
 Alpha virt. eigenvalues --   -0.00661   0.00068   0.00546   0.01815   0.03452
 Alpha virt. eigenvalues --    0.03635   0.04053   0.04350   0.04508   0.05057

 Mulliken charges:
               1
     1  C    0.061133
     2  C   -0.014503
     3  C   -0.128400
     4  C   -0.103373
     5  N   -0.194368
     6  C   -0.057583
     7  C   -0.078636
     8  C   -0.095538
     9  C    0.001289
    10  C    0.135268
    11  C    0.088254
    12  C    0.003038
    13  C    0.190244
    14  O   -0.287990
    15  O   -0.333907
    16  N    0.001849
    17  C    0.070672
    18  C   -0.065766
    19  C    0.000409
    20  C    0.061684
    21  C   -0.027189
    22  C   -0.021272
    23  C   -0.034088
    24  N   -0.291837
    25  C    0.070485
    26  C   -0.126461
    27  C   -0.091598
    28  C    0.097086
    29  C    0.104935
    30  C    0.126290
    31  C   -0.061767
    32  N    0.002195
    33  C    0.058188
    34  C   -0.158613
    35  C   -0.067631
    36  C    0.102089
    37  C    0.272857
    38  C    0.120352
    39  O   -0.106426
    40  C   -0.173589
    41  C    0.216777
    42  O   -0.318432
    43  O   -0.285483
    44  C    0.190657
    45  C    0.271816
    46  C   -0.093544
    47  C   -0.145628
    48  C    0.163461
    49  C    0.021464
    50  C    0.095145
    51  C   -0.084508
    52  C   -0.081926
    53  C    0.177619
    54  C    0.072436
    55  C    0.038915
    56  C   -0.017583
    57  C   -0.145713
    58  C    0.069715
    59  C    0.101637
    60  C   -0.028828
    61  C    0.061001
    62  C   -0.028967
    63  C    0.126634
    64  C   -0.014143
    65  H   -0.033577
    66  H    0.005094
    67  H    0.019460
    68  H    0.035267
    69  H    0.019800
    70  H    0.022914
    71  H    0.010897
    72  H   -0.061022
    73  H    0.048771
    74  H    0.000792
    75  H    0.032410
    76  H    0.051517
    77  H    0.042698
    78  H    0.002734
    79  H    0.052678
    80  H   -0.003596
    81  H    0.014299
    82  H    0.040285
    83  H    0.029660
    84  H    0.047326
    85  H   -0.047499
    86  H   -0.031106
    87  H    0.017505
    88  H    0.041467
    89  H    0.017490
    90  H    0.005914
    91  H    0.005173
    92  H    0.029644
    93  H   -0.065548
    94  H    0.070620
    95  H   -0.002247
    96  H    0.071495
    97  H    0.055370
    98  H   -0.002561
    99  H    0.031965
   100  H    0.004238
   101  H   -0.027912
   102  H    0.024227
   103  H    0.003830
   104  H    0.032249
   105  H    0.012566
   106  H   -0.049325
   107  H    0.009362
   108  H    0.002847
   109  H    0.018484
   110  H   -0.056482
   111  H   -0.022511
   112  H   -0.009819
   113  H   -0.021676
   114  H    0.008117
   115  H   -0.039987
   116  H    0.004666
   117  H    0.022413
   118  H    0.001447
   119  H   -0.011136
   120  H    0.003133
   121  H    0.017247
   122  H    0.011877
   123  H   -0.004479
   124  H   -0.037012
   125  H   -0.041059
   126  H    0.006376
   127  H   -0.019177
   128  H   -0.030387
   129  H   -0.083078
   130  H   -0.024616
   131  H   -0.041689
   132  H    0.040128
   133  H   -0.039290
   134  H    0.026243
   135  H    0.010706
   136  H    0.015393
   137  H    0.152401
   138  H    0.145290
 Sum of Mulliken charges =  -0.00000

 Dipole moment (field-independent basis, Debye):
    X=              1.0553    Y=              2.7164    Z=              0.2746  Tot=              2.9271
 Quadrupole moment (field-independent basis, Debye-Ang):
   XX=           -337.8142   YY=           -379.6624   ZZ=           -396.8038
   XY=            -28.6386   XZ=              7.7193   YZ=             -3.9309

 Normal termination of Gaussian 16 at Wed Aug 28 18:31:05 2019.
