 Gaussian 16, Revision A.03,
 Gaussian 16:  ES64L-G16RevA.03 25-Dec-2016

 --------------------------
 # td=(NStates=1) B3LYP/SVP
 --------------------------

 --
 TD
 --
 Symbolic Z-matrix:
 Charge =  0 Multiplicity = 1

                         Standard orientation:
 ---------------------------------------------------------------------
 Center     Atomic      Atomic             Coordinates (Angstroms)
 Number     Number       Type             X           Y           Z
 ---------------------------------------------------------------------
      1          6           0       -5.127240   -2.057244    0.471096
      2          6           0       -4.658534    2.671864    1.544764
      3          6           0       -9.144585    3.510674   -0.212403
      4          6           0       -9.747870   -1.276495   -1.167858
      5          7           0       -5.111451    0.342634    0.985717
      6          6           0       -4.484920   -0.844049    0.984261
      7          6           0       -2.980516   -0.781430    1.343924
      8          6           0       -2.963983    0.743718    1.927673
      9          6           0       -4.279612    1.368749    1.487834
     10          6           0       -2.945723    0.735227    3.431658
     11          6           0       -2.025387   -0.997016    0.197106
     12          6           0       -0.534837   -1.077397    0.664804
     13          6           0        0.369026   -1.343520   -0.488297
     14          8           0        0.126790   -1.973822   -1.487472
     15          8           0        1.645529   -0.858471   -0.243058
     16          7           0       -6.978315    2.758341    0.568069
     17          6           0       -5.785471    3.330013    1.236373
     18          6           0       -6.039804    4.720176    1.144864
     19          6           0       -7.237438    5.038480    0.558705
     20          6           0       -7.883293    3.733278    0.222788
     21          6           0       -5.095914    5.793482    1.613312
     22          6           0       -7.879854    6.331581    0.411104
     23          6           0       -8.780927    6.713867   -0.466747
     24          7           0       -9.195821    1.027167   -0.468920
     25          6           0       -9.783596    2.209489   -0.560632
     26          6           0      -11.228479    2.086839   -0.979671
     27          6           0      -11.445967    0.743823   -1.187492
     28          6           0      -10.128115    0.100277   -0.954586
     29          6           0      -12.138283    3.255683   -1.112384
     30          6           0      -12.633780    0.100838   -1.788218
     31          6           0      -12.440275    0.009806   -3.325842
     32          7           0       -7.492488   -1.246390   -0.291488
     33          6           0       -8.540159   -1.913825   -0.697449
     34          6           0       -8.225309   -3.332797   -0.832449
     35          6           0       -6.900507   -3.427162   -0.315579
     36          6           0       -6.478465   -2.061697    0.010812
     37          6           0       -9.147685   -4.420858   -1.185148
     38          6           0       -5.847011   -4.277584    0.041728
     39          8           0       -5.943111   -5.479093   -0.232756
     40          6           0       -4.662021   -3.441443    0.494976
     41          6           0       -4.082631   -3.990768    1.868898
     42          8           0       -4.300309   -3.555384    2.918085
     43          8           0       -3.248494   -5.004559    1.527811
     44          6           0       -2.696975   -5.670243    2.616505
     45          6           0        2.688671   -1.168197   -1.218850
     46          6           0        3.980481   -0.791894   -0.642701
     47          6           0        4.867997    0.016253   -1.178368
     48          6           0        4.862384    0.635342   -2.573949
     49          6           0        6.197152    0.255597   -0.467871
     50          6           0        7.537229   -0.197934   -1.236277
     51          6           0        8.720475   -0.061551   -0.305274
     52          6           0       10.054800   -0.646627   -0.889244
     53          6           0        9.921416   -2.237234   -0.980495
     54          6           0       11.219409   -0.188762    0.066497
     55          6           0       12.597280   -0.543325   -0.483576
     56          6           0       13.683880    0.006972    0.322447
     57          6           0       15.084575   -0.099301   -0.377301
     58          6           0       15.512439   -1.589195   -0.596134
     59          6           0       16.098456    0.722643    0.395380
     60          6           0       17.500652    0.742127   -0.146476
     61          6           0       18.591868    1.530056    0.706407
     62          6           0       20.002511    1.671536    0.173356
     63          6           0       20.130028    2.191520   -1.315290
     64          6           0       20.819253    2.484527    1.144227
     65          1           0       -3.856912    3.172927    1.821894
     66          1           0       -9.837131    4.269694   -0.251090
     67          1           0      -10.537511   -2.047374   -1.437121
     68          1           0       -2.723351   -1.409320    2.213845
     69          1           0       -2.042486    1.307885    1.544045
     70          1           0       -2.063982    0.133163    3.602400
     71          1           0       -2.804070    1.629660    3.867669
     72          1           0       -3.612334    0.197620    3.995458
     73          1           0       -2.358814   -1.967407   -0.260617
     74          1           0       -2.211551   -0.200457   -0.608340
     75          1           0       -0.349535   -0.052476    1.128813
     76          1           0       -0.256976   -1.902728    1.378317
     77          1           0       -4.089537    5.919887    1.066095
     78          1           0       -5.575239    6.795108    1.653844
     79          1           0       -4.745456    5.622689    2.569968
     80          1           0       -7.474167    6.958163    1.058550
     81          1           0       -9.244077    6.039538   -1.196033
     82          1           0       -9.083165    7.773572   -0.360596
     83          1           0      -12.113092    3.872358   -0.166209
     84          1           0      -11.767038    3.890029   -2.000277
     85          1           0      -13.336581    2.735993   -1.236356
     86          1           0      -12.816170   -1.009021   -1.503071
     87          1           0      -13.494092    0.615697   -1.492381
     88          1           0      -12.473891    0.873958   -3.798753
     89          1           0      -11.424197   -0.558494   -3.547705
     90          1           0      -13.336970   -0.439322   -3.826622
     91          1           0      -10.064989   -4.390793   -0.505958
     92          1           0       -9.407441   -4.394882   -2.091861
     93          1           0       -8.685516   -5.646015   -1.083810
     94          1           0       -3.832248   -3.615344   -0.333914
     95          1           0       -1.947659   -6.331173    2.150554
     96          1           0       -2.023323   -5.019340    3.315936
     97          1           0       -3.357025   -6.204870    3.280991
     98          1           0        2.610686   -2.196144   -1.283380
     99          1           0        2.486370   -0.493341   -2.032921
    100          1           0        4.211470   -1.306391    0.452094
    101          1           0        5.275911    1.568202   -2.513102
    102          1           0        5.527779   -0.174739   -3.222631
    103          1           0        3.982692    0.549373   -2.945179
    104          1           0        6.237211    1.324031   -0.472546
    105          1           0        6.214700   -0.155955    0.515233
    106          1           0        7.432552   -1.353094   -1.269687
    107          1           0        7.706626    0.269002   -2.133676
    108          1           0        8.812759    0.985241   -0.203223
    109          1           0        8.435509   -0.571812    0.726395
    110          1           0       10.375257   -0.280992   -1.957655
    111          1           0        9.186856   -2.540333   -1.606983
    112          1           0       10.977517   -2.602821   -1.219531
    113          1           0        9.971505   -2.477115    0.122092
    114          1           0       11.179373    0.874888    0.011357
    115          1           0       11.024862   -0.371058    1.066048
    116          1           0       12.730265   -1.723249   -0.463349
    117          1           0       12.576064   -0.334218   -1.616540
    118          1           0       13.394575    1.025055    0.769378
    119          1           0       13.803802   -0.431992    1.300333
    120          1           0       14.939591    0.211205   -1.400155
    121          1           0       14.769184   -2.094252   -0.961230
    122          1           0       16.376902   -1.702858   -1.385016
    123          1           0       15.745479   -2.016741    0.365196
    124          1           0       15.648322    1.708692    0.341606
    125          1           0       16.194451    0.492387    1.475669
    126          1           0       17.892375   -0.255955   -0.281834
    127          1           0       17.486320    1.191697   -1.244829
    128          1           0       18.353418    2.517804    0.630372
    129          1           0       18.487784    1.283316    1.730631
    130          1           0       20.396151    0.640937    0.174410
    131          1           0       19.887617    3.179439   -1.401000
    132          1           0       21.212459    2.039276   -1.572687
    133          1           0       19.540318    1.638552   -1.951591
    134          1           0       20.772775    1.987152    2.174062
    135          1           0       21.973877    2.415498    0.759361
    136          1           0       20.396924    3.682965    1.237401
    137          1           0       -7.110850    1.894937    0.531841
    138          1           0       -7.756502   -0.318487    0.023422
 ---------------------------------------------------------------------

 SCF Done:  E(RB3LYP) =  -2733.10550907     A.U. after   17 cycles

 Excitation energies and oscillator strengths:

 Excited State   1:      Singlet-A      2.0025 eV  619.14 nm  f=0.1702  <S**2>=0.000
     235 -> 237       -0.23041
     235 -> 238       -0.26954
     236 -> 237        0.57600
     236 -> 238       -0.20195
 This state for optimization and/or second-order correction.
 Total Energy, E(TD-HF/TD-DFT) =  -2733.03191810
 Copying the excited state density for this state as the 1-particle RhoCI density.

 The electronic state is 1-A.
 Alpha  occ. eigenvalues --  -19.18644 -19.15834 -19.14269 -19.12240 -19.10661
 Alpha  occ. eigenvalues --  -14.37009 -14.35346 -14.32093 -14.30172 -10.32355
 Alpha  occ. eigenvalues --  -10.31107 -10.26291 -10.24750 -10.24070 -10.23552
 Alpha  occ. eigenvalues --  -10.23382 -10.23378 -10.23173 -10.23156 -10.22746
 Alpha  occ. eigenvalues --  -10.22095 -10.21920 -10.21848 -10.21684 -10.21622
 Alpha  occ. eigenvalues --  -10.21328 -10.21066 -10.21049 -10.20752 -10.20620
 Alpha  occ. eigenvalues --  -10.20546 -10.20466 -10.20432 -10.20221 -10.20062
 Alpha  occ. eigenvalues --  -10.19682 -10.19639 -10.19467 -10.19391 -10.19287
 Alpha  occ. eigenvalues --  -10.19160 -10.19119 -10.19072 -10.18891 -10.18856
 Alpha  occ. eigenvalues --  -10.18735 -10.18716 -10.18632 -10.18618 -10.18610
 Alpha  occ. eigenvalues --  -10.18606 -10.18510 -10.18420 -10.18250 -10.18121
 Alpha  occ. eigenvalues --  -10.18012 -10.17931 -10.17891 -10.17569 -10.17277
 Alpha  occ. eigenvalues --  -10.16955 -10.16801 -10.16739 -10.16427  -1.11843
 Alpha  occ. eigenvalues --   -1.07704  -1.04403  -1.01021  -1.00093  -0.99571
 Alpha  occ. eigenvalues --   -0.96747  -0.93083  -0.92808  -0.85594  -0.82891
 Alpha  occ. eigenvalues --   -0.82750  -0.82110  -0.81859  -0.80989  -0.80736
 Alpha  occ. eigenvalues --   -0.79862  -0.79800  -0.79739  -0.78752  -0.77783
 Alpha  occ. eigenvalues --   -0.77286  -0.76763  -0.75837  -0.75155  -0.74496
 Alpha  occ. eigenvalues --   -0.73652  -0.73534  -0.72431  -0.71744  -0.71280
 Alpha  occ. eigenvalues --   -0.70762  -0.69507  -0.69197  -0.68593  -0.68323
 Alpha  occ. eigenvalues --   -0.67621  -0.67293  -0.66561  -0.66402  -0.65014
 Alpha  occ. eigenvalues --   -0.63757  -0.63638  -0.62890  -0.62255  -0.62102
 Alpha  occ. eigenvalues --   -0.61337  -0.58921  -0.58619  -0.58384  -0.57577
 Alpha  occ. eigenvalues --   -0.57145  -0.56668  -0.56103  -0.55829  -0.55521
 Alpha  occ. eigenvalues --   -0.54972  -0.54906  -0.54666  -0.54528  -0.52645
 Alpha  occ. eigenvalues --   -0.52399  -0.51951  -0.51892  -0.51393  -0.50955
 Alpha  occ. eigenvalues --   -0.50491  -0.49730  -0.49527  -0.49252  -0.48757
 Alpha  occ. eigenvalues --   -0.48644  -0.48106  -0.47914  -0.47565  -0.47307
 Alpha  occ. eigenvalues --   -0.47196  -0.46604  -0.46412  -0.46214  -0.46007
 Alpha  occ. eigenvalues --   -0.45780  -0.45621  -0.45454  -0.45114  -0.44988
 Alpha  occ. eigenvalues --   -0.44483  -0.44254  -0.44213  -0.44095  -0.43825
 Alpha  occ. eigenvalues --   -0.43628  -0.43482  -0.43109  -0.43046  -0.42857
 Alpha  occ. eigenvalues --   -0.42814  -0.42289  -0.42078  -0.41968  -0.41831
 Alpha  occ. eigenvalues --   -0.41401  -0.41281  -0.41077  -0.40861  -0.40635
 Alpha  occ. eigenvalues --   -0.40426  -0.40098  -0.39995  -0.39830  -0.39428
 Alpha  occ. eigenvalues --   -0.39389  -0.39127  -0.38846  -0.38721  -0.38555
 Alpha  occ. eigenvalues --   -0.38327  -0.38151  -0.37941  -0.37785  -0.37666
 Alpha  occ. eigenvalues --   -0.37303  -0.37122  -0.36920  -0.36843  -0.36825
 Alpha  occ. eigenvalues --   -0.36771  -0.36691  -0.36525  -0.36429  -0.36272
 Alpha  occ. eigenvalues --   -0.36101  -0.35826  -0.35463  -0.35253  -0.35095
 Alpha  occ. eigenvalues --   -0.35048  -0.34844  -0.34388  -0.34228  -0.33874
 Alpha  occ. eigenvalues --   -0.33651  -0.33493  -0.33147  -0.32937  -0.32579
 Alpha  occ. eigenvalues --   -0.32284  -0.32116  -0.31651  -0.31538  -0.31211
 Alpha  occ. eigenvalues --   -0.31207  -0.31046  -0.31026  -0.30344  -0.29970
 Alpha  occ. eigenvalues --   -0.29765  -0.29514  -0.29444  -0.28702  -0.28045
 Alpha  occ. eigenvalues --   -0.27858  -0.26839  -0.26298  -0.26156  -0.25546
 Alpha  occ. eigenvalues --   -0.24873  -0.24199  -0.23828  -0.22752  -0.20080
 Alpha  occ. eigenvalues --   -0.18334
 Alpha virt. eigenvalues --   -0.10176  -0.08224  -0.04396  -0.01692   0.00243
 Alpha virt. eigenvalues --    0.00349   0.00828   0.00884   0.02183   0.03462
 Alpha virt. eigenvalues --    0.04052   0.04321   0.04488   0.04843   0.05054

 Mulliken charges:
               1
     1  C   -0.012541
     2  C    0.012236
     3  C   -0.059120
     4  C   -0.034993
     5  N   -0.179708
     6  C   -0.049944
     7  C   -0.030759
     8  C   -0.089459
     9  C   -0.026406
    10  C    0.177102
    11  C    0.048327
    12  C    0.036863
    13  C    0.164736
    14  O   -0.228841
    15  O   -0.376525
    16  N   -0.023243
    17  C    0.203698
    18  C   -0.111347
    19  C    0.028892
    20  C    0.147023
    21  C    0.109660
    22  C    0.013314
    23  C    0.000842
    24  N   -0.233505
    25  C    0.007329
    26  C   -0.145971
    27  C   -0.066148
    28  C    0.039380
    29  C    0.014664
    30  C    0.077836
    31  C    0.034160
    32  N    0.086518
    33  C   -0.057875
    34  C   -0.124940
    35  C    0.055106
    36  C    0.039752
    37  C    0.093515
    38  C    0.004130
    39  O   -0.202383
    40  C   -0.062019
    41  C    0.187337
    42  O   -0.145617
    43  O   -0.280348
    44  C    0.161531
    45  C    0.398824
    46  C   -0.164166
    47  C   -0.187892
    48  C    0.200872
    49  C    0.109628
    50  C    0.012913
    51  C    0.029316
    52  C   -0.141574
    53  C    0.064597
    54  C    0.077590
    55  C    0.006688
    56  C    0.038482
    57  C   -0.067327
    58  C    0.083010
    59  C    0.083604
    60  C    0.003647
    61  C    0.079973
    62  C   -0.090384
    63  C    0.090424
    64  C   -0.055427
    65  H   -0.102825
    66  H   -0.072278
    67  H   -0.000650
    68  H    0.000241
    69  H    0.008314
    70  H   -0.018246
    71  H   -0.022104
    72  H   -0.004753
    73  H    0.017705
    74  H    0.027641
    75  H    0.038294
    76  H    0.050611
    77  H    0.027531
    78  H    0.011773
    79  H   -0.009670
    80  H   -0.073726
    81  H    0.028167
    82  H    0.024883
    83  H    0.047732
    84  H    0.048608
    85  H    0.041077
    86  H    0.007526
    87  H   -0.020824
    88  H   -0.032344
    89  H    0.037285
    90  H    0.001081
    91  H    0.043738
    92  H   -0.033727
    93  H    0.064311
    94  H    0.096103
    95  H    0.029162
    96  H    0.019511
    97  H    0.032709
    98  H   -0.009633
    99  H    0.002763
   100  H    0.012158
   101  H    0.000778
   102  H    0.049564
   103  H   -0.064834
   104  H   -0.014237
   105  H   -0.020009
   106  H    0.008795
   107  H   -0.013850
   108  H   -0.027443
   109  H    0.011714
   110  H    0.000698
   111  H    0.011207
   112  H    0.000917
   113  H    0.001560
   114  H   -0.024703
   115  H   -0.029862
   116  H    0.016988
   117  H    0.004672
   118  H   -0.017723
   119  H   -0.028894
   120  H   -0.022774
   121  H   -0.053031
   122  H    0.023278
   123  H   -0.006624
   124  H   -0.016847
   125  H   -0.012939
   126  H   -0.011126
   127  H   -0.002726
   128  H   -0.049718
   129  H   -0.024493
   130  H   -0.016006
   131  H   -0.015975
   132  H    0.006763
   133  H   -0.006696
   134  H    0.023587
   135  H    0.026938
   136  H    0.031520
   137  H    0.017320
   138  H    0.151013
 Sum of Mulliken charges =  -0.00000

 Dipole moment (field-independent basis, Debye):
    X=              2.7983    Y=              4.7356    Z=              1.4481  Tot=              5.6880
 Quadrupole moment (field-independent basis, Debye-Ang):
   XX=           -370.0449   YY=           -386.7552   ZZ=           -390.3890
   XY=            -29.4033   XZ=              3.3905   YZ=             -5.2940

 Normal termination of Gaussian 16 at Sat Aug 10 10:16:36 2019.
