 Gaussian 16, Revision A.03,
 Gaussian 16:  ES64L-G16RevA.03 25-Dec-2016

 --------------------------
 # td=(NStates=1) B3LYP/SVP
 --------------------------

 --
 TD
 --
 Symbolic Z-matrix:
 Charge =  0 Multiplicity = 1

                         Standard orientation:
 ---------------------------------------------------------------------
 Center     Atomic      Atomic             Coordinates (Angstroms)
 Number     Number       Type             X           Y           Z
 ---------------------------------------------------------------------
      1          6           0       -5.085845   -2.022154    0.478607
      2          6           0       -4.817041    2.732363    1.628389
      3          6           0       -9.235737    3.444130   -0.264092
      4          6           0       -9.764654   -1.326052   -0.916863
      5          7           0       -5.180281    0.438076    0.969818
      6          6           0       -4.537431   -0.728432    0.848876
      7          6           0       -3.122694   -0.578238    1.444213
      8          6           0       -3.099426    0.853943    1.920571
      9          6           0       -4.411253    1.385667    1.487747
     10          6           0       -3.017275    0.888372    3.518487
     11          6           0       -2.031289   -0.878600    0.262287
     12          6           0       -0.513758   -0.746118    0.736858
     13          6           0        0.293210   -0.947221   -0.504131
     14          8           0       -0.082405   -1.434569   -1.480205
     15          8           0        1.657259   -0.738065   -0.124865
     16          7           0       -7.057588    2.739698    0.483254
     17          6           0       -5.958126    3.283468    1.114512
     18          6           0       -6.190856    4.715369    1.212126
     19          6           0       -7.469152    4.960795    0.583685
     20          6           0       -7.975243    3.699610    0.150407
     21          6           0       -5.117634    5.699238    1.627313
     22          6           0       -8.004806    6.316659    0.355621
     23          6           0       -8.813056    6.701442   -0.680492
     24          7           0       -9.205014    0.966901   -0.541837
     25          6           0       -9.867780    2.155684   -0.595127
     26          6           0      -11.263148    1.956441   -1.133193
     27          6           0      -11.432688    0.648499   -1.275759
     28          6           0      -10.109866   -0.012983   -0.838300
     29          6           0      -12.278142    3.004038   -1.220510
     30          6           0      -12.693171   -0.051711   -1.694100
     31          6           0      -12.647352   -0.440241   -3.262922
     32          7           0       -7.470696   -1.197085   -0.260628
     33          6           0       -8.489692   -1.891478   -0.629250
     34          6           0       -8.181578   -3.317901   -0.672112
     35          6           0       -6.928552   -3.388816   -0.325277
     36          6           0       -6.458973   -2.029745   -0.000268
     37          6           0       -9.208300   -4.415655   -1.065144
     38          6           0       -5.881878   -4.316026    0.008865
     39          8           0       -5.737461   -5.488456   -0.061480
     40          6           0       -4.525582   -3.429660    0.474801
     41          6           0       -3.912834   -3.941110    1.752664
     42          8           0       -4.076054   -3.472159    2.834916
     43          8           0       -3.220710   -5.092777    1.479820
     44          6           0       -2.580570   -5.780356    2.559955
     45          6           0        2.613866   -1.038331   -1.279159
     46          6           0        3.881929   -0.763250   -0.616567
     47          6           0        4.952546   -0.061637   -1.075567
     48          6           0        4.868919    0.440292   -2.524867
     49          6           0        6.243785    0.063240   -0.220610
     50          6           0        7.509482   -0.457260   -1.054101
     51          6           0        8.750483   -0.241609   -0.264190
     52          6           0       10.111064   -0.594956   -0.924461
     53          6           0       10.164841   -2.061716   -1.255701
     54          6           0       11.238534   -0.251178   -0.019540
     55          6           0       12.715137   -0.462393   -0.659493
     56          6           0       13.796763    0.035289    0.144146
     57          6           0       15.280629   -0.114202   -0.466989
     58          6           0       15.604477   -1.653917   -0.468256
     59          6           0       16.273138    0.795804    0.267753
     60          6           0       17.685186    0.731382   -0.237277
     61          6           0       18.632357    1.557382    0.617075
     62          6           0       20.085701    1.576372    0.257185
     63          6           0       20.279128    2.228491   -1.174561
     64          6           0       21.022062    2.271971    1.288463
     65          1           0       -4.144043    3.336504    2.278562
     66          1           0      -10.022150    4.274583   -0.074414
     67          1           0      -10.414930   -2.045286   -1.302226
     68          1           0       -2.957637   -1.165160    2.173433
     69          1           0       -2.228938    1.408741    1.675777
     70          1           0       -2.045962    0.875300    3.977229
     71          1           0       -3.500115    1.949484    3.809980
     72          1           0       -3.546265    0.018440    3.870407
     73          1           0       -2.298814   -2.060897   -0.095256
     74          1           0       -2.175453   -0.250877   -0.633948
     75          1           0       -0.337172    0.248488    1.085962
     76          1           0       -0.603967   -1.589612    1.544398
     77          1           0       -4.068588    5.485410    1.003534
     78          1           0       -5.394181    6.822002    1.481549
     79          1           0       -4.999371    5.614813    2.655681
     80          1           0       -7.914518    7.000136    1.155122
     81          1           0       -9.008733    5.986272   -1.505136
     82          1           0       -9.038956    7.834428   -0.994448
     83          1           0      -12.374403    3.435811   -0.391722
     84          1           0      -12.093807    3.638167   -2.119806
     85          1           0      -13.173228    2.629326   -1.635152
     86          1           0      -12.971100   -1.072047   -1.184578
     87          1           0      -13.577458    0.512285   -1.495514
     88          1           0      -12.478981    0.680129   -3.858809
     89          1           0      -11.727966   -1.071359   -3.567174
     90          1           0      -13.496791   -0.754866   -3.559301
     91          1           0      -10.207390   -4.344645   -0.542312
     92          1           0       -9.218517   -4.514518   -2.322544
     93          1           0       -8.795859   -5.484441   -0.472269
     94          1           0       -3.713413   -3.604918   -0.407019
     95          1           0       -1.615059   -6.360086    2.165749
     96          1           0       -2.347673   -4.932002    3.321258
     97          1           0       -3.466944   -6.557017    3.029132
     98          1           0        2.304801   -2.001748   -1.505738
     99          1           0        2.219622   -0.201863   -1.999259
    100          1           0        3.947571   -1.185734    0.377121
    101          1           0        5.548860    1.422282   -2.629549
    102          1           0        5.213426   -0.150268   -3.493757
    103          1           0        3.859656    0.929703   -2.721538
    104          1           0        6.554740    1.082169   -0.109100
    105          1           0        6.313088   -0.523545    0.708843
    106          1           0        7.342061   -1.531517   -1.278311
    107          1           0        7.512774    0.112470   -1.965483
    108          1           0        8.778050    0.981613   -0.020477
    109          1           0        8.741830   -0.712334    0.587789
    110          1           0       10.206462   -0.078857   -1.865991
    111          1           0        9.327502   -2.446447   -1.886504
    112          1           0       10.951431   -2.121352   -2.155271
    113          1           0       10.303705   -2.753170   -0.284927
    114          1           0       11.287693    0.849438    0.149045
    115          1           0       11.142105   -0.785018    0.856484
    116          1           0       12.845706   -1.466891   -0.805912
    117          1           0       12.679890   -0.043207   -1.664599
    118          1           0       13.590923    1.110431    0.297546
    119          1           0       13.934330   -0.375922    1.179374
    120          1           0       15.200910    0.208487   -1.519526
    121          1           0       14.596654   -2.464463   -0.551748
    122          1           0       16.501081   -1.862426   -1.135149
    123          1           0       16.086410   -1.964869    0.582579
    124          1           0       15.664001    1.901123    0.231459
    125          1           0       16.373472    0.393100    1.305992
    126          1           0       18.005549   -0.216419   -0.068393
    127          1           0       17.562544    1.037763   -1.458926
    128          1           0       18.115899    2.669255    0.546414
    129          1           0       18.665822    1.331557    1.728049
    130          1           0       20.614176    0.592955    0.032336
    131          1           0       19.793297    3.147730   -1.114075
    132          1           0       21.313329    2.328363   -1.392759
    133          1           0       19.925945    1.629000   -1.867940
    134          1           0       20.778560    2.107156    2.282048
    135          1           0       22.148691    2.302751    1.080564
    136          1           0       20.636015    3.230267    1.502468
    137          1           0       -7.286853    1.763426    0.535876
    138          1           0       -7.540472   -0.230466    0.174712
 ---------------------------------------------------------------------

 SCF Done:  E(RB3LYP) =  -2733.01240138     A.U. after   17 cycles

 Excitation energies and oscillator strengths:

 Excited State   1:      Singlet-A      2.0632 eV  600.93 nm  f=0.1834  <S**2>=0.000
     235 -> 238       -0.30373
     236 -> 237        0.62688
 This state for optimization and/or second-order correction.
 Total Energy, E(TD-HF/TD-DFT) =  -2732.93657941
 Copying the excited state density for this state as the 1-particle RhoCI density.

 The electronic state is 1-A.
 Alpha  occ. eigenvalues --  -19.16985 -19.15290 -19.13722 -19.12797 -19.12705
 Alpha  occ. eigenvalues --  -14.38219 -14.36620 -14.31928 -14.30233 -10.31459
 Alpha  occ. eigenvalues --  -10.30843 -10.28300 -10.26695 -10.24314 -10.23692
 Alpha  occ. eigenvalues --  -10.23544 -10.23240 -10.23157 -10.23009 -10.22788
 Alpha  occ. eigenvalues --  -10.22475 -10.22046 -10.21935 -10.21199 -10.21174
 Alpha  occ. eigenvalues --  -10.21162 -10.21118 -10.21115 -10.20909 -10.20706
 Alpha  occ. eigenvalues --  -10.20693 -10.20661 -10.20628 -10.20619 -10.20508
 Alpha  occ. eigenvalues --  -10.20428 -10.20119 -10.20067 -10.19608 -10.19602
 Alpha  occ. eigenvalues --  -10.19425 -10.19419 -10.19370 -10.19287 -10.19238
 Alpha  occ. eigenvalues --  -10.19218 -10.19161 -10.19155 -10.19108 -10.19094
 Alpha  occ. eigenvalues --  -10.18893 -10.18497 -10.18440 -10.18217 -10.18210
 Alpha  occ. eigenvalues --  -10.18064 -10.18063 -10.17952 -10.17693 -10.17507
 Alpha  occ. eigenvalues --  -10.17022 -10.16948 -10.16770 -10.15144  -1.09252
 Alpha  occ. eigenvalues --   -1.08890  -1.04734  -1.01822  -1.01163  -0.99756
 Alpha  occ. eigenvalues --   -0.98041  -0.95254  -0.92801  -0.84069  -0.82762
 Alpha  occ. eigenvalues --   -0.81788  -0.81527  -0.81103  -0.81063  -0.80509
 Alpha  occ. eigenvalues --   -0.80006  -0.79974  -0.79578  -0.78605  -0.77480
 Alpha  occ. eigenvalues --   -0.76686  -0.75762  -0.75253  -0.75037  -0.74469
 Alpha  occ. eigenvalues --   -0.72823  -0.72412  -0.71898  -0.71035  -0.70160
 Alpha  occ. eigenvalues --   -0.69156  -0.69045  -0.69004  -0.67810  -0.67305
 Alpha  occ. eigenvalues --   -0.67190  -0.66561  -0.65798  -0.65597  -0.64279
 Alpha  occ. eigenvalues --   -0.64113  -0.62848  -0.62047  -0.61812  -0.61626
 Alpha  occ. eigenvalues --   -0.60549  -0.58990  -0.58655  -0.58026  -0.57438
 Alpha  occ. eigenvalues --   -0.57192  -0.56564  -0.55985  -0.55563  -0.54990
 Alpha  occ. eigenvalues --   -0.54343  -0.54221  -0.54181  -0.53912  -0.53088
 Alpha  occ. eigenvalues --   -0.52482  -0.51583  -0.51123  -0.50569  -0.50066
 Alpha  occ. eigenvalues --   -0.50040  -0.49519  -0.49053  -0.48966  -0.48503
 Alpha  occ. eigenvalues --   -0.47887  -0.47709  -0.47312  -0.47241  -0.47085
 Alpha  occ. eigenvalues --   -0.46861  -0.46602  -0.46544  -0.46404  -0.45898
 Alpha  occ. eigenvalues --   -0.45817  -0.45810  -0.45168  -0.44940  -0.44854
 Alpha  occ. eigenvalues --   -0.44774  -0.44278  -0.43923  -0.43716  -0.43571
 Alpha  occ. eigenvalues --   -0.43518  -0.43063  -0.42911  -0.42611  -0.42507
 Alpha  occ. eigenvalues --   -0.42098  -0.41789  -0.41717  -0.41369  -0.41054
 Alpha  occ. eigenvalues --   -0.41006  -0.40913  -0.40711  -0.40651  -0.40542
 Alpha  occ. eigenvalues --   -0.40380  -0.40037  -0.39923  -0.39778  -0.39430
 Alpha  occ. eigenvalues --   -0.39195  -0.38765  -0.38715  -0.38492  -0.38345
 Alpha  occ. eigenvalues --   -0.38249  -0.38233  -0.37961  -0.37824  -0.37477
 Alpha  occ. eigenvalues --   -0.37142  -0.37120  -0.36720  -0.36568  -0.36415
 Alpha  occ. eigenvalues --   -0.36138  -0.35791  -0.35575  -0.35320  -0.35165
 Alpha  occ. eigenvalues --   -0.35040  -0.34885  -0.34850  -0.34776  -0.34475
 Alpha  occ. eigenvalues --   -0.34327  -0.34231  -0.34106  -0.33867  -0.33721
 Alpha  occ. eigenvalues --   -0.33605  -0.33287  -0.33020  -0.32762  -0.32365
 Alpha  occ. eigenvalues --   -0.32102  -0.32069  -0.31834  -0.31574  -0.31398
 Alpha  occ. eigenvalues --   -0.30786  -0.30669  -0.30313  -0.30220  -0.29608
 Alpha  occ. eigenvalues --   -0.29553  -0.28829  -0.28788  -0.28642  -0.28370
 Alpha  occ. eigenvalues --   -0.28121  -0.27654  -0.26649  -0.26374  -0.25897
 Alpha  occ. eigenvalues --   -0.24644  -0.24459  -0.23646  -0.23356  -0.19710
 Alpha  occ. eigenvalues --   -0.18296
 Alpha virt. eigenvalues --   -0.09645  -0.07364  -0.04330  -0.02191  -0.00789
 Alpha virt. eigenvalues --   -0.00533  -0.00285   0.00389   0.02384   0.03501
 Alpha virt. eigenvalues --    0.03729   0.04010   0.04372   0.04522   0.04948

 Mulliken charges:
               1
     1  C    0.026443
     2  C   -0.119325
     3  C   -0.119917
     4  C   -0.058841
     5  N   -0.141484
     6  C   -0.046667
     7  C    0.120426
     8  C   -0.023551
     9  C   -0.013851
    10  C    0.008691
    11  C   -0.089487
    12  C    0.044722
    13  C    0.179463
    14  O   -0.162924
    15  O   -0.419206
    16  N   -0.043586
    17  C    0.163600
    18  C   -0.156976
    19  C    0.021775
    20  C    0.123848
    21  C    0.065012
    22  C   -0.022071
    23  C   -0.088268
    24  N   -0.252995
    25  C    0.002315
    26  C   -0.169004
    27  C   -0.030279
    28  C    0.096768
    29  C    0.254057
    30  C    0.015774
    31  C    0.005264
    32  N    0.081978
    33  C   -0.032484
    34  C   -0.158082
    35  C    0.062892
    36  C   -0.018860
    37  C   -0.027597
    38  C    0.057338
    39  O   -0.117032
    40  C   -0.130059
    41  C    0.209499
    42  O   -0.199698
    43  O   -0.312491
    44  C    0.075799
    45  C    0.320883
    46  C   -0.089314
    47  C   -0.095293
    48  C   -0.032709
    49  C    0.111852
    50  C   -0.005569
    51  C    0.060657
    52  C   -0.022265
    53  C   -0.035115
    54  C    0.060189
    55  C    0.103322
    56  C    0.024728
    57  C   -0.060045
    58  C   -0.081615
    59  C   -0.020117
    60  C    0.080861
    61  C   -0.028275
    62  C   -0.119949
    63  C    0.127836
    64  C    0.091358
    65  H   -0.009521
    66  H    0.026020
    67  H   -0.056730
    68  H   -0.080586
    69  H   -0.019524
    70  H    0.012971
    71  H    0.018117
    72  H    0.030838
    73  H    0.038925
    74  H    0.013021
    75  H    0.018812
    76  H    0.070044
    77  H    0.059780
    78  H    0.027645
    79  H    0.013983
    80  H    0.001825
    81  H    0.036425
    82  H    0.052241
    83  H   -0.023496
    84  H    0.001092
    85  H   -0.032538
    86  H    0.012831
    87  H   -0.005835
    88  H    0.010793
    89  H    0.041889
    90  H   -0.028348
    91  H    0.050030
    92  H    0.079176
    93  H    0.059871
    94  H    0.096463
    95  H    0.066829
    96  H    0.055735
    97  H    0.061919
    98  H    0.010846
    99  H    0.040483
   100  H   -0.011783
   101  H    0.009444
   102  H    0.060811
   103  H    0.027840
   104  H   -0.009631
   105  H    0.006399
   106  H    0.007529
   107  H   -0.010411
   108  H   -0.003362
   109  H   -0.062740
   110  H   -0.032766
   111  H    0.006613
   112  H    0.018531
   113  H    0.030795
   114  H   -0.008921
   115  H   -0.030597
   116  H   -0.046790
   117  H   -0.021279
   118  H   -0.025660
   119  H   -0.009432
   120  H   -0.013877
   121  H    0.055527
   122  H    0.029750
   123  H    0.009908
   124  H    0.023415
   125  H   -0.008217
   126  H   -0.033804
   127  H    0.029365
   128  H    0.007857
   129  H    0.007273
   130  H   -0.001884
   131  H   -0.016465
   132  H   -0.018053
   133  H   -0.033998
   134  H   -0.040106
   135  H    0.032568
   136  H   -0.038598
   137  H    0.125325
   138  H    0.185050
 Sum of Mulliken charges =  -0.00000

 Dipole moment (field-independent basis, Debye):
    X=              1.4199    Y=              3.2149    Z=              0.5257  Tot=              3.5535
 Quadrupole moment (field-independent basis, Debye-Ang):
   XX=           -349.1643   YY=           -385.9207   ZZ=           -393.4418
   XY=            -22.4480   XZ=              5.4476   YZ=              0.8427

 Normal termination of Gaussian 16 at Tue Aug 27 21:46:47 2019.
