 Gaussian 16, Revision A.03,
 Gaussian 16:  ES64L-G16RevA.03 25-Dec-2016

 --------------------------
 # td=(NStates=1) B3LYP/SVP
 --------------------------

 --
 TD
 --
 Symbolic Z-matrix:
 Charge =  0 Multiplicity = 1

                         Standard orientation:
 ---------------------------------------------------------------------
 Center     Atomic      Atomic             Coordinates (Angstroms)
 Number     Number       Type             X           Y           Z
 ---------------------------------------------------------------------
      1          6           0       -5.114789   -2.040110    0.390073
      2          6           0       -4.722693    2.753033    1.400131
      3          6           0       -9.267097    3.272589   -0.240924
      4          6           0       -9.851323   -1.487656   -0.787088
      5          7           0       -5.101134    0.447685    0.771154
      6          6           0       -4.444214   -0.797313    0.800246
      7          6           0       -3.027415   -0.532041    1.244828
      8          6           0       -3.000855    0.874213    1.813524
      9          6           0       -4.294364    1.384577    1.152698
     10          6           0       -2.822150    1.013664    3.427732
     11          6           0       -2.076968   -0.818653    0.085140
     12          6           0       -0.576827   -0.711418    0.580126
     13          6           0        0.371359   -1.109943   -0.553579
     14          8           0        0.102685   -1.694474   -1.488503
     15          8           0        1.707442   -0.642312   -0.286018
     16          7           0       -6.970475    2.834706    0.418393
     17          6           0       -5.830682    3.415668    0.967470
     18          6           0       -6.128394    4.768902    0.939454
     19          6           0       -7.412661    5.005230    0.507477
     20          6           0       -7.920774    3.648654    0.188528
     21          6           0       -5.137895    5.818282    1.477857
     22          6           0       -8.110692    6.282708    0.431235
     23          6           0       -9.061932    6.601346   -0.431189
     24          7           0       -9.169232    0.840202   -0.426002
     25          6           0       -9.785859    1.994652   -0.478660
     26          6           0      -11.275257    1.814845   -0.845413
     27          6           0      -11.371645    0.519770   -1.003182
     28          6           0      -10.096423   -0.129086   -0.726768
     29          6           0      -12.245869    2.959638   -1.204791
     30          6           0      -12.632985   -0.130616   -1.370273
     31          6           0      -12.855114   -0.321599   -2.983124
     32          7           0       -7.406145   -1.271222   -0.200690
     33          6           0       -8.614452   -1.978832   -0.568420
     34          6           0       -8.175478   -3.409754   -0.572679
     35          6           0       -6.865783   -3.418674   -0.191077
     36          6           0       -6.441280   -2.079775    0.019030
     37          6           0       -9.083213   -4.562114   -0.959717
     38          6           0       -5.765714   -4.387444   -0.015736
     39          8           0       -5.783987   -5.582300    0.113437
     40          6           0       -4.512378   -3.479408    0.367917
     41          6           0       -3.794182   -3.775129    1.603118
     42          8           0       -3.983485   -3.356800    2.716617
     43          8           0       -2.974401   -4.855253    1.424754
     44          6           0       -2.335665   -5.369111    2.633244
     45          6           0        2.720558   -1.130388   -1.286385
     46          6           0        4.002326   -0.639846   -0.757553
     47          6           0        4.903008    0.245420   -1.419453
     48          6           0        4.821888    0.681252   -2.809433
     49          6           0        6.231208    0.680666   -0.718697
     50          6           0        7.433776   -0.288531   -1.149829
     51          6           0        8.702077   -0.097969   -0.256121
     52          6           0       10.015914   -0.838083   -0.838863
     53          6           0        9.790032   -2.432833   -0.827697
     54          6           0       11.220955   -0.304058    0.020073
     55          6           0       12.504064   -0.740006   -0.502188
     56          6           0       13.668725   -0.007418    0.235832
     57          6           0       15.105550   -0.240400   -0.389064
     58          6           0       15.483628   -1.791251   -0.197528
     59          6           0       16.166230    0.735783    0.437393
     60          6           0       17.520722    0.595459   -0.113963
     61          6           0       18.522546    1.747596    0.510987
     62          6           0       19.862381    1.642337    0.205322
     63          6           0       20.360571    2.202899   -1.123535
     64          6           0       20.829544    2.395067    1.315452
     65          1           0       -4.041540    3.472101    2.031716
     66          1           0      -10.008365    3.967659   -0.470180
     67          1           0      -10.569738   -2.204596   -0.919294
     68          1           0       -2.946881   -1.124834    2.216420
     69          1           0       -2.228166    1.580753    1.256877
     70          1           0       -2.125979    0.221906    3.889739
     71          1           0       -2.670867    2.034645    3.687310
     72          1           0       -3.812198    0.760316    3.928861
     73          1           0       -2.294863   -1.899691   -0.110369
     74          1           0       -2.317539   -0.014425   -0.688482
     75          1           0       -0.438224    0.435479    0.746431
     76          1           0       -0.243018   -1.325959    1.411075
     77          1           0       -4.048188    5.581570    1.214788
     78          1           0       -5.282344    6.792199    0.971907
     79          1           0       -5.004451    5.688887    2.642594
     80          1           0       -7.704030    7.076375    1.011374
     81          1           0       -9.327969    5.903508   -1.289887
     82          1           0       -9.354801    7.633102   -0.518033
     83          1           0      -12.490258    3.643887   -0.332801
     84          1           0      -11.712370    3.694894   -1.877059
     85          1           0      -13.221258    2.722177   -1.662056
     86          1           0      -12.492668   -1.082335   -1.038609
     87          1           0      -13.250884    0.641897   -0.859704
     88          1           0      -12.796257    0.651433   -3.558791
     89          1           0      -12.238008   -1.017329   -3.629014
     90          1           0      -13.648481   -0.955106   -2.987721
     91          1           0       -9.822632   -4.728552   -0.154372
     92          1           0       -9.595431   -4.391682   -1.873371
     93          1           0       -8.428726   -5.401999   -0.975274
     94          1           0       -3.881432   -3.489909   -0.591889
     95          1           0       -1.661465   -6.315484    2.251635
     96          1           0       -1.852122   -4.786496    3.272736
     97          1           0       -3.114788   -5.911682    3.376999
     98          1           0        2.628210   -2.168060   -1.235102
     99          1           0        2.563092   -0.729377   -2.191909
    100          1           0        4.181578   -0.778850    0.316694
    101          1           0        4.755562    1.929099   -2.986687
    102          1           0        5.638123    0.288419   -3.508188
    103          1           0        3.927285    0.088431   -3.575006
    104          1           0        6.221435    1.616650   -1.119528
    105          1           0        6.202354    0.617571    0.588484
    106          1           0        6.959636   -1.307666   -1.217077
    107          1           0        7.633258   -0.161311   -2.192013
    108          1           0        9.091746    0.912083   -0.242583
    109          1           0        8.611043   -0.354794    0.821323
    110          1           0       10.156271   -0.537172   -1.970256
    111          1           0        8.944970   -2.683170   -1.406668
    112          1           0       10.804038   -2.762347   -0.993526
    113          1           0        9.730748   -2.747139    0.214131
    114          1           0       11.370190    0.742619    0.051877
    115          1           0       10.876653   -0.692448    1.014654
    116          1           0       12.676927   -1.781830   -0.576080
    117          1           0       12.616930   -0.327103   -1.453475
    118          1           0       13.490790    1.145600    0.107341
    119          1           0       13.724554   -0.296799    1.267206
    120          1           0       15.280309   -0.101812   -1.367308
    121          1           0       14.851563   -2.413161   -1.033386
    122          1           0       16.436262   -2.097431   -0.470043
    123          1           0       15.426339   -2.131234    0.997462
    124          1           0       15.856798    1.807332    0.323642
    125          1           0       16.065955    0.418880    1.364727
    126          1           0       18.057961   -0.406463    0.226621
    127          1           0       17.768864    0.606968   -1.440297
    128          1           0       18.027018    2.818254    0.277571
    129          1           0       18.519307    1.541475    1.742079
    130          1           0       20.440223    0.658534    0.426022
    131          1           0       20.145791    3.286769   -1.432059
    132          1           0       21.346591    2.151778   -1.436077
    133          1           0       19.699758    1.563691   -1.881523
    134          1           0       20.751681    2.032495    2.349899
    135          1           0       21.988216    2.285647    1.133935
    136          1           0       20.503831    3.572089    1.415324
    137          1           0       -7.376227    1.773443    0.562335
    138          1           0       -7.491060   -0.171623   -0.220114
 ---------------------------------------------------------------------

 SCF Done:  E(RB3LYP) =  -2732.98888377     A.U. after   17 cycles

 Excitation energies and oscillator strengths:

 Excited State   1:      Singlet-A      1.9976 eV  620.66 nm  f=0.1930  <S**2>=0.000
     235 -> 238        0.26495
     236 -> 237        0.64726
 This state for optimization and/or second-order correction.
 Total Energy, E(TD-HF/TD-DFT) =  -2732.91547225
 Copying the excited state density for this state as the 1-particle RhoCI density.

 The electronic state is 1-A.
 Alpha  occ. eigenvalues --  -19.17551 -19.14675 -19.13141 -19.13075 -19.12641
 Alpha  occ. eigenvalues --  -14.37154 -14.37033 -14.32216 -14.30433 -10.31586
 Alpha  occ. eigenvalues --  -10.30297 -10.28751 -10.25164 -10.23673 -10.23468
 Alpha  occ. eigenvalues --  -10.23105 -10.22823 -10.22799 -10.22783 -10.22664
 Alpha  occ. eigenvalues --  -10.22344 -10.22186 -10.21386 -10.21348 -10.21255
 Alpha  occ. eigenvalues --  -10.21251 -10.21188 -10.21055 -10.20972 -10.20894
 Alpha  occ. eigenvalues --  -10.20878 -10.20876 -10.20352 -10.20323 -10.20288
 Alpha  occ. eigenvalues --  -10.20250 -10.20221 -10.20092 -10.19905 -10.19892
 Alpha  occ. eigenvalues --  -10.19852 -10.19828 -10.19692 -10.19606 -10.19412
 Alpha  occ. eigenvalues --  -10.19227 -10.19223 -10.19209 -10.19144 -10.19068
 Alpha  occ. eigenvalues --  -10.19028 -10.18899 -10.18878 -10.18752 -10.18742
 Alpha  occ. eigenvalues --  -10.18669 -10.18453 -10.18196 -10.18092 -10.17944
 Alpha  occ. eigenvalues --  -10.17601 -10.17439 -10.16984 -10.16740  -1.09677
 Alpha  occ. eigenvalues --   -1.09064  -1.04015  -1.00157  -1.00012  -0.98917
 Alpha  occ. eigenvalues --   -0.98744  -0.94776  -0.94493  -0.84720  -0.82069
 Alpha  occ. eigenvalues --   -0.81802  -0.81313  -0.81258  -0.81028  -0.80776
 Alpha  occ. eigenvalues --   -0.80568  -0.80094  -0.79209  -0.78731  -0.76596
 Alpha  occ. eigenvalues --   -0.76271  -0.75586  -0.75481  -0.74197  -0.73662
 Alpha  occ. eigenvalues --   -0.73409  -0.72725  -0.72165  -0.70925  -0.70437
 Alpha  occ. eigenvalues --   -0.69529  -0.69352  -0.68669  -0.67752  -0.67256
 Alpha  occ. eigenvalues --   -0.66985  -0.65913  -0.65700  -0.65596  -0.64565
 Alpha  occ. eigenvalues --   -0.64132  -0.63494  -0.62960  -0.62655  -0.61459
 Alpha  occ. eigenvalues --   -0.61024  -0.59144  -0.58955  -0.57882  -0.57117
 Alpha  occ. eigenvalues --   -0.56942  -0.56491  -0.56302  -0.55595  -0.54747
 Alpha  occ. eigenvalues --   -0.54554  -0.54248  -0.53695  -0.53363  -0.53122
 Alpha  occ. eigenvalues --   -0.52352  -0.52019  -0.51456  -0.51178  -0.49971
 Alpha  occ. eigenvalues --   -0.49712  -0.49578  -0.49419  -0.48399  -0.48389
 Alpha  occ. eigenvalues --   -0.47789  -0.47453  -0.47124  -0.47087  -0.46751
 Alpha  occ. eigenvalues --   -0.46352  -0.46171  -0.45968  -0.45848  -0.45729
 Alpha  occ. eigenvalues --   -0.45412  -0.45314  -0.44967  -0.44556  -0.44146
 Alpha  occ. eigenvalues --   -0.44037  -0.43951  -0.43680  -0.43382  -0.43221
 Alpha  occ. eigenvalues --   -0.43204  -0.42935  -0.42867  -0.42633  -0.42584
 Alpha  occ. eigenvalues --   -0.42480  -0.42011  -0.41824  -0.41603  -0.41502
 Alpha  occ. eigenvalues --   -0.41223  -0.41143  -0.41066  -0.40657  -0.40561
 Alpha  occ. eigenvalues --   -0.40277  -0.39891  -0.39795  -0.39521  -0.39253
 Alpha  occ. eigenvalues --   -0.39014  -0.38878  -0.38757  -0.38608  -0.38311
 Alpha  occ. eigenvalues --   -0.38091  -0.38030  -0.37982  -0.37666  -0.37655
 Alpha  occ. eigenvalues --   -0.37555  -0.37430  -0.37247  -0.36705  -0.36646
 Alpha  occ. eigenvalues --   -0.36496  -0.36351  -0.36247  -0.36015  -0.35810
 Alpha  occ. eigenvalues --   -0.35745  -0.35645  -0.35481  -0.35172  -0.35012
 Alpha  occ. eigenvalues --   -0.34839  -0.34441  -0.34303  -0.34227  -0.33647
 Alpha  occ. eigenvalues --   -0.33290  -0.33166  -0.33046  -0.32802  -0.32393
 Alpha  occ. eigenvalues --   -0.32174  -0.31622  -0.31584  -0.31458  -0.31450
 Alpha  occ. eigenvalues --   -0.31301  -0.30793  -0.30488  -0.29987  -0.29709
 Alpha  occ. eigenvalues --   -0.29444  -0.28583  -0.28378  -0.28293  -0.27894
 Alpha  occ. eigenvalues --   -0.27102  -0.26921  -0.26551  -0.26114  -0.25905
 Alpha  occ. eigenvalues --   -0.25347  -0.23911  -0.23387  -0.23302  -0.20066
 Alpha  occ. eigenvalues --   -0.18044
 Alpha virt. eigenvalues --   -0.09815  -0.07427  -0.04706  -0.01854  -0.01710
 Alpha virt. eigenvalues --   -0.00979   0.01049   0.02005   0.02581   0.03362
 Alpha virt. eigenvalues --    0.03667   0.03698   0.04380   0.04410   0.04683

 Mulliken charges:
               1
     1  C   -0.106694
     2  C   -0.103246
     3  C   -0.020895
     4  C   -0.093615
     5  N   -0.144806
     6  C   -0.077777
     7  C   -0.016925
     8  C   -0.118925
     9  C   -0.028774
    10  C    0.057384
    11  C    0.078436
    12  C    0.021924
    13  C    0.150154
    14  O   -0.145440
    15  O   -0.422821
    16  N   -0.040586
    17  C    0.112874
    18  C   -0.114037
    19  C    0.029358
    20  C    0.014416
    21  C    0.046470
    22  C   -0.032027
    23  C   -0.028130
    24  N   -0.221877
    25  C   -0.013497
    26  C   -0.122476
    27  C   -0.114473
    28  C    0.128721
    29  C    0.064647
    30  C    0.108377
    31  C    0.008793
    32  N   -0.033429
    33  C    0.083748
    34  C   -0.196290
    35  C   -0.050641
    36  C    0.116083
    37  C    0.160296
    38  C    0.092335
    39  O   -0.143693
    40  C   -0.034188
    41  C    0.230428
    42  O   -0.217141
    43  O   -0.312974
    44  C    0.168571
    45  C    0.436652
    46  C   -0.105449
    47  C   -0.126806
    48  C   -0.102438
    49  C    0.055758
    50  C    0.044577
    51  C    0.076631
    52  C   -0.192677
    53  C    0.101187
    54  C    0.051025
    55  C    0.120359
    56  C    0.010185
    57  C   -0.049835
    58  C   -0.050333
    59  C    0.147066
    60  C   -0.094720
    61  C   -0.008988
    62  C   -0.073336
    63  C    0.030437
    64  C   -0.073538
    65  H    0.000260
    66  H   -0.084960
    67  H   -0.066593
    68  H    0.025054
    69  H    0.013269
    70  H    0.043062
    71  H    0.013845
    72  H    0.023502
    73  H    0.026051
    74  H    0.032105
    75  H    0.046649
    76  H    0.037532
    77  H    0.015534
    78  H    0.033523
    79  H    0.045628
    80  H   -0.017731
    81  H    0.041686
    82  H    0.016520
    83  H    0.022745
    84  H    0.030133
    85  H    0.023743
    86  H   -0.038180
    87  H    0.033535
    88  H    0.034689
    89  H    0.003426
    90  H   -0.010015
    91  H    0.027874
    92  H    0.017882
    93  H    0.021364
    94  H    0.082484
    95  H    0.051088
    96  H    0.005135
    97  H    0.035588
    98  H   -0.008326
    99  H   -0.037197
   100  H   -0.005157
   101  H    0.063524
   102  H    0.045837
   103  H    0.031840
   104  H   -0.019233
   105  H    0.031786
   106  H    0.006661
   107  H   -0.019854
   108  H   -0.015718
   109  H   -0.002924
   110  H   -0.001575
   111  H    0.023063
   112  H   -0.012333
   113  H   -0.015776
   114  H   -0.023336
   115  H   -0.006107
   116  H   -0.007207
   117  H   -0.036406
   118  H    0.007945
   119  H   -0.009010
   120  H   -0.040405
   121  H    0.028826
   122  H   -0.005097
   123  H    0.024202
   124  H    0.004432
   125  H   -0.041220
   126  H    0.016811
   127  H    0.026291
   128  H    0.025738
   129  H    0.014283
   130  H    0.020587
   131  H    0.008285
   132  H   -0.009405
   133  H    0.000137
   134  H    0.005767
   135  H    0.022085
   136  H    0.013668
   137  H    0.208836
   138  H    0.185858
 Sum of Mulliken charges =  -0.00000

 Dipole moment (field-independent basis, Debye):
    X=              1.6725    Y=              3.6165    Z=             -0.2978  Tot=              3.9956
 Quadrupole moment (field-independent basis, Debye-Ang):
   XX=           -350.4903   YY=           -389.4542   ZZ=           -389.2844
   XY=            -24.0547   XZ=             10.0389   YZ=             -1.0790

 Normal termination of Gaussian 16 at Wed Aug 14 17:31:31 2019.
