 Gaussian 16, Revision A.03,
 Gaussian 16:  ES64L-G16RevA.03 25-Dec-2016

 --------------------------
 # td=(NStates=1) B3LYP/SVP
 --------------------------

 --
 TD
 --
 Symbolic Z-matrix:
 Charge =  0 Multiplicity = 1

                         Standard orientation:
 ---------------------------------------------------------------------
 Center     Atomic      Atomic             Coordinates (Angstroms)
 Number     Number       Type             X           Y           Z
 ---------------------------------------------------------------------
      1          6           0       -5.156965   -1.967583    0.477297
      2          6           0       -4.714108    2.767511    1.371011
      3          6           0       -9.229792    3.389934   -0.307644
      4          6           0       -9.815819   -1.385463   -0.824117
      5          7           0       -5.179326    0.418114    0.737646
      6          6           0       -4.462392   -0.816832    0.990751
      7          6           0       -2.985801   -0.587205    1.365916
      8          6           0       -3.113323    0.802785    1.967944
      9          6           0       -4.363752    1.379808    1.370898
     10          6           0       -3.012639    0.780682    3.514318
     11          6           0       -1.989725   -0.668301    0.219443
     12          6           0       -0.563759   -0.914755    0.706095
     13          6           0        0.302251   -1.166267   -0.551726
     14          8           0        0.047928   -1.653556   -1.602515
     15          8           0        1.645225   -0.954294   -0.215722
     16          7           0       -7.025086    2.868431    0.531944
     17          6           0       -5.817575    3.388542    0.870025
     18          6           0       -6.037638    4.861969    1.027206
     19          6           0       -7.344614    5.066135    0.526199
     20          6           0       -7.979596    3.722527    0.222185
     21          6           0       -5.075729    5.816917    1.490085
     22          6           0       -7.945356    6.352534    0.337476
     23          6           0       -8.831637    6.670442   -0.529834
     24          7           0       -9.089442    0.924652   -0.484508
     25          6           0       -9.759244    2.112307   -0.608805
     26          6           0      -11.233617    1.890708   -0.936459
     27          6           0      -11.451025    0.518774   -1.103840
     28          6           0      -10.090748   -0.027120   -0.869843
     29          6           0      -12.091649    3.082796   -1.189191
     30          6           0      -12.785209   -0.175969   -1.549724
     31          6           0      -12.648824   -0.423867   -3.143979
     32          7           0       -7.559498   -1.285132   -0.107001
     33          6           0       -8.590308   -1.963843   -0.426623
     34          6           0       -8.273957   -3.314560   -0.521774
     35          6           0       -6.938717   -3.323857   -0.260597
     36          6           0       -6.553288   -2.075138    0.091712
     37          6           0       -9.024049   -4.527058   -1.085502
     38          6           0       -5.738646   -4.288309   -0.025073
     39          8           0       -5.653044   -5.490076   -0.055151
     40          6           0       -4.523304   -3.323180    0.419359
     41          6           0       -3.908322   -3.779804    1.669536
     42          8           0       -4.234802   -3.458769    2.788403
     43          8           0       -3.034477   -4.860163    1.525524
     44          6           0       -2.627395   -5.400222    2.743957
     45          6           0        2.655940   -1.245007   -1.212800
     46          6           0        3.964395   -0.788389   -0.728405
     47          6           0        4.890811    0.060913   -1.267547
     48          6           0        4.859556    0.589389   -2.690262
     49          6           0        6.192902    0.165484   -0.554237
     50          6           0        7.426488   -0.428579   -1.258821
     51          6           0        8.675103   -0.186384   -0.429248
     52          6           0       10.057531   -0.801821   -0.890046
     53          6           0        9.947822   -2.326586   -0.968355
     54          6           0       11.325944   -0.201372   -0.265825
     55          6           0       12.670097   -0.709813   -0.698405
     56          6           0       13.804060    0.082474    0.116936
     57          6           0       15.248383   -0.140736   -0.434016
     58          6           0       15.582020   -1.606005   -0.316566
     59          6           0       16.142831    0.666499    0.428289
     60          6           0       17.573080    0.672645   -0.005297
     61          6           0       18.505779    1.671832    0.677785
     62          6           0       20.004681    1.715967    0.287995
     63          6           0       20.147931    2.297209   -1.082795
     64          6           0       20.834101    2.421730    1.389326
     65          1           0       -4.020320    3.567419    1.640164
     66          1           0       -9.776202    4.340558   -0.415800
     67          1           0      -10.552649   -2.053237   -1.054501
     68          1           0       -2.788956   -1.390498    2.254910
     69          1           0       -2.237746    1.581265    1.656792
     70          1           0       -2.233077    0.469759    3.921861
     71          1           0       -3.166302    1.895590    3.842880
     72          1           0       -3.909049    0.124119    3.647395
     73          1           0       -2.159523   -1.409436   -0.301807
     74          1           0       -2.075275    0.327136   -0.500051
     75          1           0       -0.103119   -0.016171    1.183323
     76          1           0       -0.498316   -1.798388    1.401018
     77          1           0       -4.038119    5.664594    1.117166
     78          1           0       -5.388070    6.954998    1.274103
     79          1           0       -5.105653    5.536439    2.643558
     80          1           0       -7.639997    6.937710    1.090039
     81          1           0       -9.317831    6.057125   -1.194032
     82          1           0       -9.190555    7.605645   -0.790752
     83          1           0      -12.520866    3.652312   -0.371682
     84          1           0      -11.796004    3.695755   -1.995060
     85          1           0      -13.055904    2.717255   -1.614271
     86          1           0      -12.960084   -1.079230   -1.104550
     87          1           0      -13.614831    0.586453   -1.248596
     88          1           0      -12.621786    0.595032   -3.557155
     89          1           0      -11.769640   -1.102716   -3.363811
     90          1           0      -13.532953   -0.954398   -3.379994
     91          1           0       -9.859219   -4.481031   -0.718407
     92          1           0       -9.210565   -4.638225   -2.104429
     93          1           0       -8.463840   -5.480940   -0.881702
     94          1           0       -3.859906   -3.467758   -0.330377
     95          1           0       -1.647554   -5.957199    2.575718
     96          1           0       -2.124311   -4.677926    3.459995
     97          1           0       -3.445247   -5.912143    3.336352
     98          1           0        2.624087   -2.291231   -1.595122
     99          1           0        2.435468   -0.918635   -2.196232
    100          1           0        4.349577   -0.878774    0.320583
    101          1           0        5.191842    1.571723   -2.643435
    102          1           0        5.501303    0.131419   -3.290228
    103          1           0        3.949569    0.628888   -3.229344
    104          1           0        6.395354    1.270195   -0.258333
    105          1           0        5.949962   -0.304023    0.468887
    106          1           0        7.374571   -1.528683   -1.353851
    107          1           0        7.621835   -0.012371   -2.176762
    108          1           0        8.944144    0.915908   -0.225594
    109          1           0        8.512762   -0.558374    0.596203
    110          1           0       10.092254   -0.339652   -1.930135
    111          1           0        8.983420   -2.808132   -1.258028
    112          1           0       10.607110   -2.810347   -1.698846
    113          1           0       10.276564   -2.808724    0.098547
    114          1           0       11.372213    0.951631   -0.326949
    115          1           0       11.322312   -0.480091    0.910713
    116          1           0       12.755348   -1.838106   -0.777796
    117          1           0       12.907478   -0.618514   -1.850617
    118          1           0       13.386160    1.322624   -0.059136
    119          1           0       13.622068    0.015902    1.221393
    120          1           0       15.312017    0.050811   -1.341903
    121          1           0       14.834876   -2.184115   -1.057783
    122          1           0       16.747924   -1.705830   -0.566253
    123          1           0       15.544327   -2.359189    0.677371
    124          1           0       15.587599    1.667388    0.458282
    125          1           0       16.097604    0.320405    1.450030
    126          1           0       17.837897   -0.379064   -0.079459
    127          1           0       17.483214    0.956259   -1.178379
    128          1           0       18.170318    2.782399    0.429388
    129          1           0       18.323932    1.557417    1.822840
    130          1           0       20.473806    0.738303    0.138502
    131          1           0       19.842875    3.391508   -1.143674
    132          1           0       21.190522    2.377000   -1.394400
    133          1           0       19.730906    1.505635   -1.835294
    134          1           0       20.875779    1.848858    2.261955
    135          1           0       22.030346    2.545173    1.106576
    136          1           0       20.265199    3.386826    1.731942
    137          1           0       -7.033899    1.763100    0.146613
    138          1           0       -7.799470   -0.219901   -0.027744
 ---------------------------------------------------------------------

 SCF Done:  E(RB3LYP) =  -2733.00571776     A.U. after   18 cycles

 Excitation energies and oscillator strengths:

 Excited State   1:      Singlet-A      2.1106 eV  587.44 nm  f=0.1454  <S**2>=0.000
     235 -> 238       -0.30350
     236 -> 237        0.63688
 This state for optimization and/or second-order correction.
 Total Energy, E(TD-HF/TD-DFT) =  -2732.92815562
 Copying the excited state density for this state as the 1-particle RhoCI density.

 The electronic state is 1-A.
 Alpha  occ. eigenvalues --  -19.17118 -19.16537 -19.13448 -19.13321 -19.12263
 Alpha  occ. eigenvalues --  -14.37155 -14.36101 -14.33424 -14.31489 -10.31754
 Alpha  occ. eigenvalues --  -10.31241 -10.29013 -10.24122 -10.24058 -10.23794
 Alpha  occ. eigenvalues --  -10.23658 -10.23586 -10.23197 -10.22487 -10.22226
 Alpha  occ. eigenvalues --  -10.22137 -10.21885 -10.21705 -10.21629 -10.21398
 Alpha  occ. eigenvalues --  -10.21256 -10.21092 -10.20894 -10.20758 -10.20732
 Alpha  occ. eigenvalues --  -10.20505 -10.20499 -10.20475 -10.20099 -10.19901
 Alpha  occ. eigenvalues --  -10.19746 -10.19742 -10.19710 -10.19687 -10.19608
 Alpha  occ. eigenvalues --  -10.19601 -10.19552 -10.19500 -10.19475 -10.19329
 Alpha  occ. eigenvalues --  -10.19229 -10.19204 -10.19199 -10.19018 -10.18868
 Alpha  occ. eigenvalues --  -10.18861 -10.18775 -10.18549 -10.18512 -10.18483
 Alpha  occ. eigenvalues --  -10.18412 -10.18335 -10.18120 -10.17841 -10.17734
 Alpha  occ. eigenvalues --  -10.17718 -10.17382 -10.17021 -10.16720  -1.08960
 Alpha  occ. eigenvalues --   -1.08887  -1.03764  -1.02680  -1.00382  -1.00105
 Alpha  occ. eigenvalues --   -0.98643  -0.92195  -0.91992  -0.84864  -0.83058
 Alpha  occ. eigenvalues --   -0.82626  -0.82557  -0.81990  -0.81243  -0.80503
 Alpha  occ. eigenvalues --   -0.80369  -0.79899  -0.79384  -0.78977  -0.78035
 Alpha  occ. eigenvalues --   -0.77044  -0.76721  -0.76074  -0.74904  -0.74396
 Alpha  occ. eigenvalues --   -0.73693  -0.73280  -0.72333  -0.71843  -0.71151
 Alpha  occ. eigenvalues --   -0.70423  -0.69780  -0.69188  -0.68510  -0.68140
 Alpha  occ. eigenvalues --   -0.67204  -0.66078  -0.65957  -0.65512  -0.64951
 Alpha  occ. eigenvalues --   -0.64318  -0.63627  -0.63325  -0.62730  -0.62127
 Alpha  occ. eigenvalues --   -0.61232  -0.59022  -0.58851  -0.57734  -0.57078
 Alpha  occ. eigenvalues --   -0.57066  -0.56637  -0.56469  -0.56187  -0.55494
 Alpha  occ. eigenvalues --   -0.54881  -0.54862  -0.54539  -0.53964  -0.52884
 Alpha  occ. eigenvalues --   -0.52736  -0.52243  -0.51917  -0.51217  -0.50735
 Alpha  occ. eigenvalues --   -0.49551  -0.49254  -0.48966  -0.48341  -0.48279
 Alpha  occ. eigenvalues --   -0.48049  -0.47626  -0.47401  -0.47356  -0.47101
 Alpha  occ. eigenvalues --   -0.46750  -0.46600  -0.46399  -0.46036  -0.45890
 Alpha  occ. eigenvalues --   -0.45814  -0.45625  -0.45110  -0.45023  -0.44669
 Alpha  occ. eigenvalues --   -0.44426  -0.44341  -0.44272  -0.44027  -0.43786
 Alpha  occ. eigenvalues --   -0.43667  -0.43598  -0.43480  -0.43240  -0.42897
 Alpha  occ. eigenvalues --   -0.42650  -0.42469  -0.42139  -0.41980  -0.41925
 Alpha  occ. eigenvalues --   -0.41880  -0.41427  -0.41243  -0.40929  -0.40658
 Alpha  occ. eigenvalues --   -0.40269  -0.40049  -0.39796  -0.39673  -0.39373
 Alpha  occ. eigenvalues --   -0.39339  -0.39002  -0.38814  -0.38568  -0.38497
 Alpha  occ. eigenvalues --   -0.38242  -0.38134  -0.37938  -0.37671  -0.37600
 Alpha  occ. eigenvalues --   -0.37502  -0.37232  -0.37157  -0.36986  -0.36681
 Alpha  occ. eigenvalues --   -0.36470  -0.36209  -0.36153  -0.36028  -0.35876
 Alpha  occ. eigenvalues --   -0.35793  -0.35705  -0.35428  -0.35357  -0.34862
 Alpha  occ. eigenvalues --   -0.34537  -0.34204  -0.34051  -0.33858  -0.33755
 Alpha  occ. eigenvalues --   -0.33527  -0.33414  -0.33289  -0.33258  -0.32723
 Alpha  occ. eigenvalues --   -0.32386  -0.32324  -0.31732  -0.31671  -0.31395
 Alpha  occ. eigenvalues --   -0.30852  -0.30714  -0.29959  -0.29752  -0.29711
 Alpha  occ. eigenvalues --   -0.29530  -0.29015  -0.28911  -0.28882  -0.28312
 Alpha  occ. eigenvalues --   -0.28188  -0.27959  -0.27696  -0.26700  -0.26059
 Alpha  occ. eigenvalues --   -0.25086  -0.24124  -0.23694  -0.23203  -0.19538
 Alpha  occ. eigenvalues --   -0.18827
 Alpha virt. eigenvalues --   -0.09796  -0.07314  -0.03974  -0.02042  -0.00773
 Alpha virt. eigenvalues --   -0.00572   0.00119   0.00251   0.01053   0.03656
 Alpha virt. eigenvalues --    0.03771   0.04152   0.04639   0.04767   0.04787

 Mulliken charges:
               1
     1  C   -0.042240
     2  C   -0.060099
     3  C   -0.080058
     4  C   -0.050185
     5  N   -0.255508
     6  C   -0.028458
     7  C   -0.078145
     8  C   -0.088106
     9  C    0.061100
    10  C    0.136998
    11  C    0.191570
    12  C    0.018491
    13  C    0.169839
    14  O   -0.198386
    15  O   -0.346886
    16  N   -0.091860
    17  C    0.072164
    18  C   -0.123245
    19  C    0.014350
    20  C    0.026414
    21  C    0.006347
    22  C    0.018603
    23  C    0.022173
    24  N   -0.316305
    25  C    0.131280
    26  C   -0.152498
    27  C   -0.091902
    28  C    0.103750
    29  C    0.135849
    30  C    0.069002
    31  C    0.013788
    32  N    0.114132
    33  C   -0.029837
    34  C   -0.198589
    35  C   -0.037555
    36  C    0.057937
    37  C    0.226287
    38  C    0.099537
    39  O   -0.140582
    40  C    0.058176
    41  C    0.177201
    42  O   -0.223723
    43  O   -0.304413
    44  C    0.158939
    45  C    0.343280
    46  C   -0.058351
    47  C   -0.194339
    48  C    0.176741
    49  C    0.016439
    50  C    0.129261
    51  C   -0.038441
    52  C   -0.019800
    53  C   -0.006143
    54  C   -0.007407
    55  C   -0.014215
    56  C   -0.061094
    57  C    0.118156
    58  C   -0.113363
    59  C    0.042685
    60  C    0.024693
    61  C    0.014667
    62  C   -0.064636
    63  C    0.014821
    64  C    0.005902
    65  H   -0.039213
    66  H   -0.024018
    67  H   -0.079932
    68  H    0.046406
    69  H    0.010129
    70  H   -0.042094
    71  H    0.015529
    72  H    0.034947
    73  H   -0.086536
    74  H    0.039744
    75  H    0.032346
    76  H    0.055080
    77  H    0.050998
    78  H    0.051828
    79  H    0.058664
    80  H   -0.042563
    81  H   -0.015884
    82  H   -0.006785
    83  H    0.016925
    84  H    0.010212
    85  H   -0.025190
    86  H   -0.015435
    87  H    0.029643
    88  H    0.029097
    89  H    0.034506
    90  H    0.006098
    91  H   -0.065416
    92  H    0.000340
    93  H    0.032453
    94  H    0.008137
    95  H    0.023925
    96  H    0.006630
    97  H    0.045854
    98  H    0.006590
    99  H   -0.028277
   100  H   -0.014517
   101  H   -0.022684
   102  H   -0.014793
   103  H   -0.008295
   104  H    0.009023
   105  H    0.000835
   106  H   -0.000022
   107  H   -0.023324
   108  H   -0.009092
   109  H   -0.017769
   110  H   -0.014438
   111  H    0.014559
   112  H    0.007025
   113  H    0.020303
   114  H    0.014385
   115  H    0.003706
   116  H    0.011383
   117  H   -0.011089
   118  H    0.002284
   119  H    0.014575
   120  H   -0.089672
   121  H    0.026414
   122  H    0.023396
   123  H    0.032932
   124  H   -0.010455
   125  H   -0.021544
   126  H   -0.010058
   127  H   -0.006207
   128  H    0.008925
   129  H    0.004348
   130  H   -0.015662
   131  H    0.009407
   132  H   -0.010458
   133  H    0.026576
   134  H   -0.006460
   135  H    0.023785
   136  H    0.016270
   137  H    0.229101
   138  H    0.178362
 Sum of Mulliken charges =  -0.00000

 Dipole moment (field-independent basis, Debye):
    X=              1.0177    Y=              5.0032    Z=             -0.5937  Tot=              5.1400
 Quadrupole moment (field-independent basis, Debye-Ang):
   XX=           -336.2760   YY=           -388.4881   ZZ=           -393.2700
   XY=            -34.0175   XZ=             13.1741   YZ=              2.3061

 Normal termination of Gaussian 16 at Sun Aug 11 06:13:23 2019.
