 Gaussian 16, Revision A.03,
 Gaussian 16:  ES64L-G16RevA.03 25-Dec-2016

 --------------------------
 # td=(NStates=1) B3LYP/SVP
 --------------------------

 --
 TD
 --
 Symbolic Z-matrix:
 Charge =  0 Multiplicity = 1

                         Standard orientation:
 ---------------------------------------------------------------------
 Center     Atomic      Atomic             Coordinates (Angstroms)
 Number     Number       Type             X           Y           Z
 ---------------------------------------------------------------------
      1          6           0       -5.067757   -1.956991    0.452468
      2          6           0       -4.642220    2.780412    1.241006
      3          6           0       -9.408111    3.299794   -0.163371
      4          6           0       -9.740152   -1.498795   -0.928678
      5          7           0       -5.068974    0.499138    0.749534
      6          6           0       -4.445599   -0.785362    0.790458
      7          6           0       -3.075758   -0.567773    1.275814
      8          6           0       -3.019530    0.842429    1.787515
      9          6           0       -4.314465    1.464945    1.247183
     10          6           0       -3.023556    0.851865    3.297768
     11          6           0       -2.023625   -0.861439    0.133873
     12          6           0       -0.516988   -0.684430    0.525552
     13          6           0        0.328405   -0.848340   -0.637636
     14          8           0        0.143105   -1.421017   -1.726494
     15          8           0        1.576608   -0.510540   -0.320038
     16          7           0       -7.010529    2.779161    0.582037
     17          6           0       -5.902976    3.424957    0.977999
     18          6           0       -6.219364    4.887063    0.891036
     19          6           0       -7.515618    5.020599    0.512864
     20          6           0       -8.078874    3.642884    0.304376
     21          6           0       -5.218903    5.817336    1.430179
     22          6           0       -8.146445    6.250708    0.210246
     23          6           0       -9.308033    6.547525   -0.574200
     24          7           0       -9.229998    0.851151   -0.298116
     25          6           0       -9.900986    2.026212   -0.385947
     26          6           0      -11.274658    1.734550   -0.846800
     27          6           0      -11.457085    0.473328   -1.097002
     28          6           0      -10.050218   -0.093067   -0.784010
     29          6           0      -12.399337    2.725261   -0.969082
     30          6           0      -12.688225   -0.293540   -1.540744
     31          6           0      -12.679814   -0.550930   -3.027579
     32          7           0       -7.441672   -1.293603   -0.136240
     33          6           0       -8.525566   -2.083943   -0.550640
     34          6           0       -8.187727   -3.486141   -0.550380
     35          6           0       -6.814955   -3.454944   -0.175990
     36          6           0       -6.448527   -2.112725   -0.081467
     37          6           0       -8.981573   -4.747759   -0.884883
     38          6           0       -5.678444   -4.316864   -0.081312
     39          8           0       -5.554314   -5.502377   -0.132580
     40          6           0       -4.561686   -3.389364    0.478640
     41          6           0       -3.942904   -3.854081    1.776590
     42          8           0       -4.231643   -3.401223    2.915596
     43          8           0       -3.117530   -4.803391    1.514116
     44          6           0       -2.509438   -5.491048    2.636681
     45          6           0        2.665066   -0.718163   -1.320790
     46          6           0        3.994974   -0.379382   -0.685838
     47          6           0        4.976561    0.394089   -1.254497
     48          6           0        4.919411    1.214031   -2.507712
     49          6           0        6.324520    0.501454   -0.450744
     50          6           0        7.450655   -0.217779   -1.138129
     51          6           0        8.809747   -0.097269   -0.264507
     52          6           0       10.021722   -0.703634   -0.919572
     53          6           0       10.016779   -2.268804   -1.321678
     54          6           0       11.290958   -0.380069   -0.099954
     55          6           0       12.621461   -0.696651   -0.720567
     56          6           0       13.749478   -0.103453    0.125053
     57          6           0       15.220834   -0.288129   -0.441707
     58          6           0       15.646994   -1.751957   -0.485210
     59          6           0       16.254350    0.481624    0.536591
     60          6           0       17.654108    0.437344   -0.022485
     61          6           0       18.620669    1.414920    0.802143
     62          6           0       20.021941    1.576844    0.354255
     63          6           0       20.113084    2.414972   -0.975326
     64          6           0       20.930500    2.167547    1.410598
     65          1           0       -3.796121    3.466098    1.681531
     66          1           0      -10.056712    4.091336   -0.374447
     67          1           0      -10.420577   -2.214768   -1.114726
     68          1           0       -2.965351   -1.381013    2.184840
     69          1           0       -2.083710    1.526455    1.474841
     70          1           0       -2.134043    0.107036    3.620614
     71          1           0       -2.991069    1.968926    3.748438
     72          1           0       -3.934319    0.358619    3.756741
     73          1           0       -2.125207   -1.610431   -0.447425
     74          1           0       -2.312782   -0.144240   -0.611475
     75          1           0       -0.424399    0.255288    1.020702
     76          1           0       -0.376490   -1.431326    1.230385
     77          1           0       -4.443029    6.113563    0.697107
     78          1           0       -5.870472    6.714833    1.884001
     79          1           0       -4.553782    5.493641    2.374274
     80          1           0       -7.542852    7.209488    0.674726
     81          1           0      -10.016734    5.724408   -1.113863
     82          1           0       -9.620582    7.638043   -0.683651
     83          1           0      -12.266535    3.295377   -0.065425
     84          1           0      -12.623627    3.510407   -1.936933
     85          1           0      -13.259560    2.073787   -1.166419
     86          1           0      -12.695448   -1.183520   -0.897633
     87          1           0      -13.616939    0.102288   -1.094100
     88          1           0      -12.366935    0.313014   -3.592943
     89          1           0      -11.799936   -1.097100   -3.546048
     90          1           0      -13.520057   -1.143282   -3.342766
     91          1           0       -9.696200   -5.169361    0.179918
     92          1           0       -9.636859   -4.529785   -1.749010
     93          1           0       -8.246584   -5.428793   -1.207203
     94          1           0       -3.755882   -3.438581   -0.257414
     95          1           0       -1.900045   -6.333618    2.132735
     96          1           0       -1.847506   -4.790010    3.187978
     97          1           0       -3.235837   -5.916273    3.296298
     98          1           0        2.679670   -1.770183   -1.539184
     99          1           0        2.332099   -0.223152   -2.300519
    100          1           0        4.088847   -0.692520    0.347592
    101          1           0        5.459089    2.251717   -2.411663
    102          1           0        5.317443    0.534994   -3.398826
    103          1           0        3.819980    1.479263   -2.663717
    104          1           0        6.544559    1.662471   -0.237037
    105          1           0        6.166442    0.080185    0.462093
    106          1           0        7.253717   -1.330643   -1.199585
    107          1           0        7.717287    0.299812   -2.215990
    108          1           0        8.865968    1.144379   -0.051666
    109          1           0        8.570070   -0.636737    0.739185
    110          1           0       10.109104   -0.074655   -1.781758
    111          1           0        9.312767   -2.560272   -2.247041
    112          1           0       10.959964   -2.530310   -1.859709
    113          1           0        9.715265   -2.874570   -0.437379
    114          1           0       11.210400    0.661221    0.457425
    115          1           0       11.438505   -0.840518    0.847462
    116          1           0       12.853002   -1.615577   -0.720833
    117          1           0       12.591133   -0.385116   -1.905100
    118          1           0       13.391591    0.919434    0.274264
    119          1           0       13.735403   -0.434866    1.228881
    120          1           0       15.487451    0.215867   -1.438731
    121          1           0       15.148381   -2.295642   -1.267470
    122          1           0       16.736442   -1.984688   -0.888425
    123          1           0       15.433144   -2.398202    0.419592
    124          1           0       16.154785    1.610729    0.881067
    125          1           0       16.336789   -0.092284    1.443766
    126          1           0       18.131108   -0.683296   -0.117382
    127          1           0       17.769255    0.889038   -0.900383
    128          1           0       18.269598    2.474262    0.705538
    129          1           0       18.397232    0.968765    1.775876
    130          1           0       20.432668    0.509612    0.170504
    131          1           0       19.912886    3.556680   -0.661161
    132          1           0       21.264116    2.460033   -1.557351
    133          1           0       19.294935    1.872046   -1.724312
    134          1           0       21.068177    1.496695    2.308698
    135          1           0       21.851030    2.458736    0.882866
    136          1           0       20.756552    3.215207    1.836223
    137          1           0       -7.220078    1.772407    0.681453
    138          1           0       -7.670777   -0.262585   -0.028934
 ---------------------------------------------------------------------

 SCF Done:  E(RB3LYP) =  -2733.05743081     A.U. after   17 cycles

 Excitation energies and oscillator strengths:

 Excited State   1:      Singlet-A      1.9852 eV  624.55 nm  f=0.2108  <S**2>=0.000
     235 -> 237       -0.16399
     235 -> 238        0.22646
     236 -> 237        0.63097
     236 -> 238        0.14056
 This state for optimization and/or second-order correction.
 Total Energy, E(TD-HF/TD-DFT) =  -2732.98447643
 Copying the excited state density for this state as the 1-particle RhoCI density.

 The electronic state is 1-A.
 Alpha  occ. eigenvalues --  -19.19069 -19.16761 -19.11971 -19.11398 -19.11383
 Alpha  occ. eigenvalues --  -14.37943 -14.37204 -14.31294 -14.31135 -10.31410
 Alpha  occ. eigenvalues --  -10.30953 -10.27190 -10.25621 -10.24988 -10.24847
 Alpha  occ. eigenvalues --  -10.24664 -10.23455 -10.23013 -10.22506 -10.22480
 Alpha  occ. eigenvalues --  -10.22424 -10.22105 -10.22045 -10.21851 -10.21809
 Alpha  occ. eigenvalues --  -10.21766 -10.21696 -10.21681 -10.21063 -10.21022
 Alpha  occ. eigenvalues --  -10.20947 -10.20633 -10.20628 -10.20626 -10.20489
 Alpha  occ. eigenvalues --  -10.20449 -10.20429 -10.20231 -10.20208 -10.20204
 Alpha  occ. eigenvalues --  -10.20151 -10.20070 -10.20050 -10.20023 -10.19726
 Alpha  occ. eigenvalues --  -10.19587 -10.19531 -10.19462 -10.19404 -10.19224
 Alpha  occ. eigenvalues --  -10.19070 -10.18820 -10.18804 -10.18796 -10.18414
 Alpha  occ. eigenvalues --  -10.18400 -10.18293 -10.18012 -10.18011 -10.17919
 Alpha  occ. eigenvalues --  -10.17788 -10.17655 -10.17456 -10.17385  -1.11125
 Alpha  occ. eigenvalues --   -1.08347  -1.03738  -0.99903  -0.98342  -0.98268
 Alpha  occ. eigenvalues --   -0.97740  -0.94592  -0.93494  -0.84701  -0.82452
 Alpha  occ. eigenvalues --   -0.82036  -0.81668  -0.81281  -0.80940  -0.80746
 Alpha  occ. eigenvalues --   -0.80649  -0.79830  -0.79067  -0.78820  -0.77719
 Alpha  occ. eigenvalues --   -0.76868  -0.76466  -0.75802  -0.74703  -0.74556
 Alpha  occ. eigenvalues --   -0.74168  -0.73040  -0.72552  -0.71651  -0.70378
 Alpha  occ. eigenvalues --   -0.69902  -0.69084  -0.68549  -0.67345  -0.67041
 Alpha  occ. eigenvalues --   -0.66600  -0.66433  -0.66271  -0.65235  -0.64777
 Alpha  occ. eigenvalues --   -0.64083  -0.63371  -0.63231  -0.62680  -0.61806
 Alpha  occ. eigenvalues --   -0.61119  -0.58739  -0.58490  -0.58247  -0.57531
 Alpha  occ. eigenvalues --   -0.56969  -0.56111  -0.55962  -0.55779  -0.55646
 Alpha  occ. eigenvalues --   -0.54965  -0.54781  -0.53734  -0.53502  -0.53323
 Alpha  occ. eigenvalues --   -0.52886  -0.51851  -0.51246  -0.50938  -0.50732
 Alpha  occ. eigenvalues --   -0.50124  -0.49703  -0.49023  -0.48753  -0.47903
 Alpha  occ. eigenvalues --   -0.47858  -0.47607  -0.47352  -0.47189  -0.46613
 Alpha  occ. eigenvalues --   -0.46533  -0.46432  -0.46059  -0.45737  -0.45285
 Alpha  occ. eigenvalues --   -0.45150  -0.45029  -0.44893  -0.44835  -0.44477
 Alpha  occ. eigenvalues --   -0.44189  -0.44071  -0.43990  -0.43805  -0.43613
 Alpha  occ. eigenvalues --   -0.43217  -0.42909  -0.42671  -0.42522  -0.42409
 Alpha  occ. eigenvalues --   -0.42271  -0.41985  -0.41713  -0.41659  -0.41414
 Alpha  occ. eigenvalues --   -0.41306  -0.41151  -0.40938  -0.40839  -0.40600
 Alpha  occ. eigenvalues --   -0.40293  -0.39819  -0.39591  -0.39502  -0.39420
 Alpha  occ. eigenvalues --   -0.39303  -0.38976  -0.38777  -0.38630  -0.38471
 Alpha  occ. eigenvalues --   -0.38343  -0.38097  -0.37932  -0.37580  -0.37523
 Alpha  occ. eigenvalues --   -0.36803  -0.36562  -0.36368  -0.36305  -0.36224
 Alpha  occ. eigenvalues --   -0.36054  -0.35979  -0.35625  -0.35539  -0.35417
 Alpha  occ. eigenvalues --   -0.35239  -0.35191  -0.34764  -0.34672  -0.34510
 Alpha  occ. eigenvalues --   -0.34369  -0.34173  -0.34047  -0.33960  -0.33809
 Alpha  occ. eigenvalues --   -0.33257  -0.33153  -0.32909  -0.32746  -0.32585
 Alpha  occ. eigenvalues --   -0.32317  -0.32113  -0.32068  -0.31448  -0.31248
 Alpha  occ. eigenvalues --   -0.31188  -0.30870  -0.30291  -0.30092  -0.29865
 Alpha  occ. eigenvalues --   -0.29690  -0.29154  -0.27852  -0.27588  -0.27273
 Alpha  occ. eigenvalues --   -0.27143  -0.27075  -0.26494  -0.26366  -0.24935
 Alpha  occ. eigenvalues --   -0.24827  -0.24437  -0.24050  -0.23533  -0.19913
 Alpha  occ. eigenvalues --   -0.18742
 Alpha virt. eigenvalues --   -0.10760  -0.07469  -0.04246  -0.02627  -0.00609
 Alpha virt. eigenvalues --   -0.00247   0.00030   0.00840   0.02257   0.03196
 Alpha virt. eigenvalues --    0.03605   0.03873   0.03874   0.04196   0.04705

 Mulliken charges:
               1
     1  C    0.068753
     2  C   -0.037707
     3  C   -0.039644
     4  C   -0.002808
     5  N   -0.205528
     6  C   -0.085768
     7  C   -0.043499
     8  C   -0.058104
     9  C   -0.009873
    10  C   -0.008503
    11  C    0.100275
    12  C    0.147593
    13  C    0.173843
    14  O   -0.278116
    15  O   -0.325985
    16  N   -0.042281
    17  C    0.046653
    18  C   -0.082550
    19  C    0.059548
    20  C    0.070136
    21  C   -0.006413
    22  C   -0.102938
    23  C   -0.102053
    24  N   -0.222305
    25  C    0.086015
    26  C   -0.114424
    27  C   -0.108920
    28  C    0.044467
    29  C    0.027517
    30  C    0.101787
    31  C    0.034403
    32  N    0.007997
    33  C    0.008686
    34  C   -0.123965
    35  C   -0.051407
    36  C    0.025313
    37  C    0.070678
    38  C    0.058399
    39  O   -0.150352
    40  C   -0.012823
    41  C    0.190185
    42  O   -0.286514
    43  O   -0.243990
    44  C    0.177535
    45  C    0.266094
    46  C   -0.072357
    47  C   -0.159418
    48  C    0.016720
    49  C    0.102988
    50  C   -0.026992
    51  C   -0.090932
    52  C    0.062201
    53  C   -0.017733
    54  C   -0.020780
    55  C    0.141741
    56  C   -0.010783
    57  C   -0.040537
    58  C   -0.007999
    59  C    0.021538
    60  C    0.024403
    61  C   -0.009333
    62  C   -0.057160
    63  C   -0.115997
    64  C    0.025305
    65  H   -0.005288
    66  H   -0.076702
    67  H   -0.075534
    68  H    0.048608
    69  H    0.024143
    70  H    0.029479
    71  H    0.028698
    72  H    0.035695
    73  H   -0.066944
    74  H   -0.018138
    75  H    0.007024
    76  H    0.014341
    77  H    0.039484
    78  H    0.042359
    79  H    0.049894
    80  H    0.030448
    81  H    0.072584
    82  H    0.044305
    83  H    0.030995
    84  H    0.032852
    85  H    0.006419
    86  H   -0.007915
    87  H    0.004992
    88  H    0.006383
    89  H    0.004365
    90  H    0.016406
    91  H    0.069737
    92  H    0.026580
    93  H    0.031819
    94  H    0.039026
    95  H    0.051191
    96  H    0.038852
    97  H    0.039197
    98  H    0.017492
    99  H    0.036753
   100  H   -0.000213
   101  H    0.041609
   102  H    0.058956
   103  H    0.030110
   104  H    0.013275
   105  H   -0.044541
   106  H    0.017624
   107  H    0.019412
   108  H    0.023376
   109  H    0.004114
   110  H   -0.022430
   111  H    0.017452
   112  H    0.025667
   113  H    0.030521
   114  H   -0.010639
   115  H   -0.042003
   116  H   -0.065997
   117  H   -0.000439
   118  H   -0.014840
   119  H    0.001305
   120  H    0.010050
   121  H   -0.003332
   122  H    0.021905
   123  H    0.018484
   124  H    0.016582
   125  H   -0.016002
   126  H    0.018916
   127  H   -0.062187
   128  H   -0.006639
   129  H   -0.005145
   130  H   -0.001140
   131  H    0.038805
   132  H    0.041935
   133  H    0.052647
   134  H    0.020516
   135  H   -0.005440
   136  H   -0.002104
   137  H    0.159928
   138  H    0.166020
 Sum of Mulliken charges =  -0.00000

 Dipole moment (field-independent basis, Debye):
    X=              1.5288    Y=              2.5263    Z=              0.5714  Tot=              3.0076
 Quadrupole moment (field-independent basis, Debye-Ang):
   XX=           -353.5852   YY=           -381.2650   ZZ=           -397.8703
   XY=            -19.2382   XZ=              9.0594   YZ=             -1.5068

 Normal termination of Gaussian 16 at Mon Aug 19 10:30:56 2019.
