 Gaussian 16, Revision A.03,
 Gaussian 16:  ES64L-G16RevA.03 25-Dec-2016

 --------------------------
 # td=(NStates=1) B3LYP/SVP
 --------------------------

 --
 TD
 --
 Symbolic Z-matrix:
 Charge =  0 Multiplicity = 1

                         Standard orientation:
 ---------------------------------------------------------------------
 Center     Atomic      Atomic             Coordinates (Angstroms)
 Number     Number       Type             X           Y           Z
 ---------------------------------------------------------------------
      1          6           0       -5.204132   -1.972068    0.440152
      2          6           0       -4.658557    2.653117    1.340615
      3          6           0       -9.246177    3.575037   -0.183256
      4          6           0       -9.721121   -1.216874   -1.117588
      5          7           0       -5.203531    0.342859    0.855886
      6          6           0       -4.587347   -0.833349    0.861226
      7          6           0       -3.143369   -0.677135    1.330926
      8          6           0       -2.992105    0.771466    1.720131
      9          6           0       -4.351288    1.300320    1.274778
     10          6           0       -2.783752    0.850857    3.246683
     11          6           0       -2.056549   -1.086832    0.253703
     12          6           0       -0.584716   -1.337436    0.654851
     13          6           0        0.386506   -1.616209   -0.475534
     14          8           0        0.056510   -1.938547   -1.601780
     15          8           0        1.658622   -1.310660   -0.097169
     16          7           0       -6.903050    2.876714    0.530697
     17          6           0       -5.783939    3.432070    1.063793
     18          6           0       -5.897726    4.840239    1.064024
     19          6           0       -7.261983    5.123878    0.557163
     20          6           0       -7.889030    3.875618    0.242395
     21          6           0       -4.871903    5.890138    1.490841
     22          6           0       -7.757121    6.532941    0.408521
     23          6           0       -8.848781    6.880434   -0.374687
     24          7           0       -9.101740    1.139338   -0.557607
     25          6           0       -9.711999    2.353666   -0.504921
     26          6           0      -11.166107    2.134408   -0.928056
     27          6           0      -11.350485    0.818424   -1.224262
     28          6           0      -10.040368    0.240436   -0.894822
     29          6           0      -12.167857    3.207775   -1.007552
     30          6           0      -12.525101    0.142741   -1.730833
     31          6           0      -12.589748   -0.140621   -3.194702
     32          7           0       -7.407862   -1.104625   -0.396421
     33          6           0       -8.555784   -1.718379   -0.771254
     34          6           0       -8.276013   -3.219829   -0.767067
     35          6           0       -7.014827   -3.322638   -0.333410
     36          6           0       -6.479619   -1.991695   -0.038005
     37          6           0       -9.165811   -4.399413   -1.173208
     38          6           0       -5.923896   -4.292904   -0.050527
     39          8           0       -5.934359   -5.533383   -0.080028
     40          6           0       -4.690156   -3.411144    0.450549
     41          6           0       -4.155587   -3.968278    1.698142
     42          8           0       -4.232697   -3.560401    2.772614
     43          8           0       -3.266724   -4.933065    1.430033
     44          6           0       -2.682677   -5.609649    2.522967
     45          6           0        2.692294   -1.647939   -1.021331
     46          6           0        3.916601   -1.103086   -0.381291
     47          6           0        4.827073   -0.295480   -1.023678
     48          6           0        4.686725    0.304392   -2.387503
     49          6           0        6.095165    0.138012   -0.261681
     50          6           0        7.401685   -0.565026   -0.896431
     51          6           0        8.701056   -0.293408   -0.126077
     52          6           0       10.035390   -0.852474   -0.593466
     53          6           0       10.019288   -2.354612   -0.576653
     54          6           0       11.237189   -0.371728    0.112619
     55          6           0       12.602422   -0.640862   -0.519846
     56          6           0       13.778813    0.113164    0.175094
     57          6           0       15.123436   -0.157049   -0.354644
     58          6           0       15.600322   -1.505938   -0.343605
     59          6           0       16.154965    0.788971    0.443125
     60          6           0       17.596472    0.933856   -0.240859
     61          6           0       18.467535    1.881140    0.403950
     62          6           0       19.938558    1.908291   -0.037310
     63          6           0       20.067144    2.488998   -1.504051
     64          6           0       20.917554    2.762359    0.883573
     65          1           0       -3.819619    3.307543    2.030288
     66          1           0       -9.861976    4.423466   -0.105385
     67          1           0      -10.540573   -2.021878   -1.021098
     68          1           0       -3.045346   -1.482235    2.118404
     69          1           0       -2.133487    1.333143    1.228357
     70          1           0       -1.733919    0.452202    3.544337
     71          1           0       -2.679131    1.952174    3.530187
     72          1           0       -3.716581    0.390847    3.784578
     73          1           0       -2.370780   -2.171268   -0.302517
     74          1           0       -1.995776   -0.314727   -0.555092
     75          1           0       -0.256236   -0.310948    1.263414
     76          1           0       -0.723145   -2.228466    1.337968
     77          1           0       -3.828862    5.749269    0.879899
     78          1           0       -5.213031    6.930531    1.777195
     79          1           0       -4.369453    5.430640    2.367665
     80          1           0       -7.353890    7.162209    1.076915
     81          1           0       -9.359615    5.938798   -1.075108
     82          1           0       -9.017295    7.883689   -0.252759
     83          1           0      -12.296610    3.657982    0.048667
     84          1           0      -11.750518    4.004931   -1.781080
     85          1           0      -12.915369    2.947523   -1.441416
     86          1           0      -12.507019   -0.822688   -1.091767
     87          1           0      -13.440740    0.692040   -1.294273
     88          1           0      -12.723098    0.810223   -3.720056
     89          1           0      -11.407279   -0.584994   -3.498605
     90          1           0      -13.377454   -0.730545   -3.528732
     91          1           0       -9.882563   -4.610000   -0.451720
     92          1           0       -9.736555   -4.323887   -2.198751
     93          1           0       -8.522793   -5.161416   -1.099778
     94          1           0       -3.921339   -3.810273   -0.346683
     95          1           0       -1.978695   -6.568850    2.135566
     96          1           0       -1.821453   -4.917373    3.077405
     97          1           0       -3.394553   -6.019948    3.173888
     98          1           0        2.706767   -2.756901   -1.089409
     99          1           0        2.631541   -1.316409   -2.002786
    100          1           0        3.967908   -1.248561    0.818763
    101          1           0        5.067326    1.432831   -2.774640
    102          1           0        5.156890   -0.231890   -3.209789
    103          1           0        3.702166    0.237217   -2.740647
    104          1           0        6.247958    1.122333   -0.184808
    105          1           0        6.187621   -0.334465    0.822855
    106          1           0        7.344899   -1.690668   -0.833547
    107          1           0        7.400501   -0.350097   -2.042339
    108          1           0        8.890322    0.749821    0.214612
    109          1           0        8.628767   -0.541241    0.888922
    110          1           0       10.275089   -0.708543   -1.603862
    111          1           0        9.198237   -2.968311   -1.028801
    112          1           0       10.859909   -2.814787   -1.018817
    113          1           0        9.980712   -2.960256    0.401031
    114          1           0       11.111538    0.682213    0.125515
    115          1           0       11.277684   -0.867415    1.034691
    116          1           0       13.079928   -1.703345   -0.605322
    117          1           0       12.612231   -0.125535   -1.480259
    118          1           0       13.350108    1.231971    0.305042
    119          1           0       13.646762   -0.256233    1.266812
    120          1           0       15.027791    0.289440   -1.300430
    121          1           0       14.792494   -1.905243   -1.020526
    122          1           0       16.682754   -1.535412   -0.833435
    123          1           0       15.506770   -2.119383    0.570567
    124          1           0       15.856624    1.840350    0.430711
    125          1           0       16.287923    0.400220    1.447527
    126          1           0       17.977543   -0.231529   -0.113465
    127          1           0       17.481777    0.904785   -1.389671
    128          1           0       18.237058    2.885658    0.129426
    129          1           0       18.286360    1.903168    1.519533
    130          1           0       20.370741    0.851199   -0.047338
    131          1           0       19.778290    3.649556   -1.366171
    132          1           0       21.104962    2.311375   -2.103204
    133          1           0       19.307344    1.979598   -2.208777
    134          1           0       20.779853    2.113432    1.896181
    135          1           0       21.938881    2.784249    0.240949
    136          1           0       20.546294    3.774236    1.200031
    137          1           0       -6.934149    1.942726    0.177342
    138          1           0       -7.260338   -0.023601   -0.129879
 ---------------------------------------------------------------------

 SCF Done:  E(RB3LYP) =  -2733.01990066     A.U. after   17 cycles

 Excitation energies and oscillator strengths:

 Excited State   1:      Singlet-A      2.0474 eV  605.57 nm  f=0.1964  <S**2>=0.000
     235 -> 238       -0.24264
     236 -> 237        0.65131
 This state for optimization and/or second-order correction.
 Total Energy, E(TD-HF/TD-DFT) =  -2732.94466061
 Copying the excited state density for this state as the 1-particle RhoCI density.

 The electronic state is 1-A.
 Alpha  occ. eigenvalues --  -19.18157 -19.17306 -19.13583 -19.13007 -19.12533
 Alpha  occ. eigenvalues --  -14.38036 -14.36186 -14.32584 -14.30318 -10.32165
 Alpha  occ. eigenvalues --  -10.31177 -10.29431 -10.26304 -10.24383 -10.23892
 Alpha  occ. eigenvalues --  -10.23855 -10.23546 -10.23177 -10.23024 -10.22760
 Alpha  occ. eigenvalues --  -10.22586 -10.22446 -10.22427 -10.22033 -10.21388
 Alpha  occ. eigenvalues --  -10.21337 -10.21074 -10.21051 -10.20699 -10.20580
 Alpha  occ. eigenvalues --  -10.20476 -10.20457 -10.20364 -10.20359 -10.20324
 Alpha  occ. eigenvalues --  -10.20215 -10.20207 -10.20181 -10.20180 -10.20160
 Alpha  occ. eigenvalues --  -10.20149 -10.20052 -10.19944 -10.19892 -10.19873
 Alpha  occ. eigenvalues --  -10.19859 -10.19837 -10.19653 -10.19482 -10.19398
 Alpha  occ. eigenvalues --  -10.19289 -10.18861 -10.18739 -10.18537 -10.18358
 Alpha  occ. eigenvalues --  -10.18228 -10.18184 -10.18015 -10.17924 -10.17917
 Alpha  occ. eigenvalues --  -10.17902 -10.17632 -10.17260 -10.17036  -1.12083
 Alpha  occ. eigenvalues --   -1.09499  -1.02549  -1.02333  -1.01025  -0.99788
 Alpha  occ. eigenvalues --   -0.96830  -0.95696  -0.93634  -0.85757  -0.83461
 Alpha  occ. eigenvalues --   -0.82262  -0.81829  -0.81616  -0.80821  -0.80662
 Alpha  occ. eigenvalues --   -0.80457  -0.80243  -0.79828  -0.79232  -0.77872
 Alpha  occ. eigenvalues --   -0.77162  -0.76270  -0.75824  -0.74930  -0.74567
 Alpha  occ. eigenvalues --   -0.74136  -0.73499  -0.73114  -0.72196  -0.71130
 Alpha  occ. eigenvalues --   -0.69826  -0.69417  -0.68976  -0.68528  -0.67632
 Alpha  occ. eigenvalues --   -0.67549  -0.66661  -0.66151  -0.65359  -0.65029
 Alpha  occ. eigenvalues --   -0.64352  -0.62390  -0.62297  -0.62021  -0.61505
 Alpha  occ. eigenvalues --   -0.60930  -0.59055  -0.58650  -0.58432  -0.57772
 Alpha  occ. eigenvalues --   -0.57218  -0.56887  -0.56248  -0.56067  -0.55726
 Alpha  occ. eigenvalues --   -0.55188  -0.55073  -0.54295  -0.53734  -0.53086
 Alpha  occ. eigenvalues --   -0.52953  -0.52343  -0.51948  -0.51076  -0.50545
 Alpha  occ. eigenvalues --   -0.50093  -0.49524  -0.49288  -0.49256  -0.49023
 Alpha  occ. eigenvalues --   -0.47916  -0.47567  -0.47404  -0.47207  -0.46959
 Alpha  occ. eigenvalues --   -0.46722  -0.46581  -0.46389  -0.46167  -0.45955
 Alpha  occ. eigenvalues --   -0.45900  -0.45461  -0.45322  -0.44927  -0.44797
 Alpha  occ. eigenvalues --   -0.44609  -0.44222  -0.43971  -0.43761  -0.43526
 Alpha  occ. eigenvalues --   -0.43338  -0.43106  -0.43016  -0.42928  -0.42733
 Alpha  occ. eigenvalues --   -0.42540  -0.42221  -0.42093  -0.41961  -0.41518
 Alpha  occ. eigenvalues --   -0.41370  -0.41209  -0.40992  -0.40919  -0.40393
 Alpha  occ. eigenvalues --   -0.40301  -0.40065  -0.40016  -0.39719  -0.39603
 Alpha  occ. eigenvalues --   -0.39396  -0.39115  -0.38634  -0.38409  -0.38190
 Alpha  occ. eigenvalues --   -0.38061  -0.37912  -0.37829  -0.37779  -0.37580
 Alpha  occ. eigenvalues --   -0.37140  -0.36978  -0.36886  -0.36802  -0.36602
 Alpha  occ. eigenvalues --   -0.36541  -0.36483  -0.36281  -0.35891  -0.35587
 Alpha  occ. eigenvalues --   -0.35566  -0.35470  -0.35328  -0.35285  -0.34923
 Alpha  occ. eigenvalues --   -0.34725  -0.34696  -0.34488  -0.34112  -0.34072
 Alpha  occ. eigenvalues --   -0.33529  -0.33225  -0.33061  -0.32649  -0.32132
 Alpha  occ. eigenvalues --   -0.32080  -0.31801  -0.31450  -0.31235  -0.30939
 Alpha  occ. eigenvalues --   -0.30878  -0.30550  -0.30359  -0.30291  -0.30249
 Alpha  occ. eigenvalues --   -0.30153  -0.28643  -0.28610  -0.28319  -0.28180
 Alpha  occ. eigenvalues --   -0.27823  -0.27744  -0.27407  -0.26622  -0.26269
 Alpha  occ. eigenvalues --   -0.25877  -0.24528  -0.22861  -0.22721  -0.20645
 Alpha  occ. eigenvalues --   -0.18645
 Alpha virt. eigenvalues --   -0.10261  -0.07949  -0.05027  -0.02063  -0.01449
 Alpha virt. eigenvalues --   -0.00765  -0.00458   0.00336   0.02355   0.02997
 Alpha virt. eigenvalues --    0.03426   0.03948   0.04170   0.04246   0.04762

 Mulliken charges:
               1
     1  C    0.068758
     2  C   -0.092728
     3  C   -0.102001
     4  C   -0.122535
     5  N   -0.165992
     6  C   -0.101007
     7  C    0.034834
     8  C   -0.024738
     9  C   -0.020232
    10  C    0.003532
    11  C   -0.079495
    12  C   -0.018407
    13  C    0.200872
    14  O   -0.228982
    15  O   -0.312428
    16  N   -0.085629
    17  C    0.091939
    18  C   -0.135994
    19  C   -0.016532
    20  C    0.053798
    21  C    0.076463
    22  C   -0.006767
    23  C   -0.019249
    24  N   -0.215208
    25  C    0.149102
    26  C   -0.197864
    27  C   -0.082460
    28  C   -0.002144
    29  C    0.227555
    30  C    0.027210
    31  C    0.032221
    32  N   -0.039601
    33  C    0.118318
    34  C   -0.203330
    35  C    0.030789
    36  C    0.037148
    37  C    0.174879
    38  C    0.074762
    39  O   -0.184608
    40  C   -0.096372
    41  C    0.175283
    42  O   -0.161276
    43  O   -0.292380
    44  C    0.122261
    45  C    0.323358
    46  C   -0.134205
    47  C   -0.093689
    48  C    0.039813
    49  C    0.087826
    50  C   -0.011549
    51  C    0.102367
    52  C    0.038434
    53  C   -0.018146
    54  C    0.103410
    55  C   -0.015444
    56  C   -0.084483
    57  C    0.027840
    58  C    0.025480
    59  C    0.015677
    60  C   -0.062252
    61  C    0.117157
    62  C   -0.112676
    63  C   -0.079213
    64  C   -0.032884
    65  H    0.009849
    66  H   -0.030905
    67  H    0.025506
    68  H    0.024271
    69  H    0.021376
    70  H    0.029060
    71  H    0.008029
    72  H    0.052993
    73  H    0.038047
    74  H    0.013950
    75  H    0.053220
    76  H    0.045933
    77  H    0.030216
    78  H    0.047070
    79  H    0.006052
    80  H   -0.043690
    81  H    0.079166
    82  H   -0.000792
    83  H    0.045166
    84  H    0.017802
    85  H   -0.104524
    86  H    0.001935
    87  H    0.009431
    88  H    0.005691
    89  H    0.039451
    90  H    0.006108
    91  H    0.007352
    92  H    0.049944
    93  H   -0.009045
    94  H    0.095867
    95  H    0.047178
    96  H    0.041692
    97  H    0.031902
    98  H    0.014845
    99  H   -0.012725
   100  H    0.037433
   101  H    0.043646
   102  H    0.016285
   103  H   -0.007342
   104  H   -0.020579
   105  H    0.008320
   106  H    0.011141
   107  H    0.011062
   108  H   -0.046281
   109  H   -0.048239
   110  H   -0.041031
   111  H   -0.005443
   112  H   -0.019345
   113  H   -0.016666
   114  H   -0.020043
   115  H   -0.024358
   116  H    0.023071
   117  H   -0.021739
   118  H    0.002923
   119  H   -0.020386
   120  H   -0.032634
   121  H    0.008475
   122  H    0.038198
   123  H    0.017138
   124  H   -0.010759
   125  H   -0.003158
   126  H   -0.006192
   127  H    0.011420
   128  H   -0.028331
   129  H   -0.002909
   130  H    0.003986
   131  H    0.028872
   132  H    0.035854
   133  H    0.021188
   134  H    0.025414
   135  H    0.047700
   136  H    0.019667
   137  H    0.124451
   138  H    0.213180
 Sum of Mulliken charges =  -0.00000

 Dipole moment (field-independent basis, Debye):
    X=              0.9384    Y=              2.5390    Z=              0.3907  Tot=              2.7349
 Quadrupole moment (field-independent basis, Debye-Ang):
   XX=           -361.7345   YY=           -387.7106   ZZ=           -397.6512
   XY=            -12.5243   XZ=              3.0507   YZ=              0.3577

 Normal termination of Gaussian 16 at Sat Aug 24 05:50:47 2019.
