 Gaussian 16, Revision A.03,
 Gaussian 16:  ES64L-G16RevA.03 25-Dec-2016

 --------------------------
 # td=(NStates=1) B3LYP/SVP
 --------------------------

 --
 TD
 --
 Symbolic Z-matrix:
 Charge =  0 Multiplicity = 1

                         Standard orientation:
 ---------------------------------------------------------------------
 Center     Atomic      Atomic             Coordinates (Angstroms)
 Number     Number       Type             X           Y           Z
 ---------------------------------------------------------------------
      1          6           0       -5.100759   -1.903544    0.472608
      2          6           0       -4.688577    2.802422    1.496304
      3          6           0       -9.215475    3.281691   -0.237976
      4          6           0       -9.825555   -1.470291   -0.898013
      5          7           0       -5.197926    0.461752    0.884421
      6          6           0       -4.451692   -0.636218    0.864280
      7          6           0       -3.038248   -0.549273    1.411435
      8          6           0       -3.082698    0.782072    2.103464
      9          6           0       -4.381759    1.485071    1.387458
     10          6           0       -3.245390    0.661160    3.639873
     11          6           0       -2.034781   -0.674812    0.254672
     12          6           0       -0.591120   -0.599950    0.620216
     13          6           0        0.328613   -0.837758   -0.585134
     14          8           0       -0.007330   -1.191300   -1.684743
     15          8           0        1.537356   -0.483844   -0.180853
     16          7           0       -7.026317    2.713723    0.463279
     17          6           0       -5.971720    3.423253    1.062303
     18          6           0       -6.266856    4.880238    1.065534
     19          6           0       -7.428410    5.047222    0.494889
     20          6           0       -7.914012    3.670298    0.149407
     21          6           0       -5.371220    5.900030    1.570852
     22          6           0       -8.007671    6.370379    0.186622
     23          6           0       -9.050952    6.521361   -0.630539
     24          7           0       -9.156853    0.886747   -0.511959
     25          6           0       -9.790359    1.976245   -0.493141
     26          6           0      -11.130010    1.915702   -0.947462
     27          6           0      -11.384798    0.559314   -1.181203
     28          6           0      -10.195027   -0.178974   -0.844190
     29          6           0      -12.233362    2.948788   -1.106766
     30          6           0      -12.578084   -0.149845   -1.742633
     31          6           0      -12.576209   -0.373956   -3.291566
     32          7           0       -7.522683   -1.320316   -0.191166
     33          6           0       -8.553061   -2.104435   -0.663392
     34          6           0       -8.168884   -3.507294   -0.725159
     35          6           0       -6.811090   -3.409800   -0.230293
     36          6           0       -6.442330   -2.070444    0.106459
     37          6           0       -8.914946   -4.648869   -1.439083
     38          6           0       -5.555278   -4.257886   -0.059262
     39          8           0       -5.508585   -5.522716   -0.302566
     40          6           0       -4.445692   -3.350707    0.449275
     41          6           0       -3.983559   -3.986541    1.797879
     42          8           0       -4.175114   -3.386101    2.865239
     43          8           0       -3.100841   -4.954528    1.660073
     44          6           0       -2.707300   -5.586186    2.814537
     45          6           0        2.596931   -0.871826   -1.121644
     46          6           0        4.000929   -0.717248   -0.518496
     47          6           0        4.909188    0.053061   -0.973351
     48          6           0        4.727704    0.858153   -2.354833
     49          6           0        6.271152    0.154052   -0.386990
     50          6           0        7.484558   -0.369052   -1.088712
     51          6           0        8.747211   -0.237545   -0.294174
     52          6           0       10.024180   -0.804434   -0.922797
     53          6           0        9.974194   -2.340580   -1.015333
     54          6           0       11.305663   -0.322964    0.020291
     55          6           0       12.582893   -0.600970   -0.770298
     56          6           0       13.791153   -0.171496    0.302982
     57          6           0       15.178104   -0.324429   -0.376997
     58          6           0       15.549734   -1.816414   -0.467329
     59          6           0       16.281443    0.609350    0.300015
     60          6           0       17.679437    0.741168   -0.141049
     61          6           0       18.678600    1.502659    0.665552
     62          6           0       20.139618    1.688283    0.135324
     63          6           0       20.232841    2.404471   -1.360384
     64          6           0       20.984670    2.561237    1.191659
     65          1           0       -3.929354    3.340436    2.251111
     66          1           0       -9.938353    4.184896   -0.213596
     67          1           0      -10.527277   -2.179815   -1.129830
     68          1           0       -2.892829   -1.347474    2.017718
     69          1           0       -2.092042    1.405934    1.799525
     70          1           0       -2.304105    0.511873    4.158169
     71          1           0       -3.475727    1.585327    4.320423
     72          1           0       -4.140929    0.035671    3.949997
     73          1           0       -2.488233   -1.513643   -0.357708
     74          1           0       -2.324250    0.268298   -0.296688
     75          1           0       -0.299235    0.175272    0.951415
     76          1           0       -0.423082   -1.365689    1.401800
     77          1           0       -4.147216    5.904972    1.153970
     78          1           0       -5.820829    6.773074    1.258565
     79          1           0       -5.042886    5.804547    2.627260
     80          1           0       -7.592688    7.113754    0.833376
     81          1           0       -9.377794    5.708097   -1.352715
     82          1           0       -9.553355    7.512639   -0.811414
     83          1           0      -12.531469    3.408092   -0.131637
     84          1           0      -12.019260    3.536866   -1.978913
     85          1           0      -13.218925    2.708287   -1.440873
     86          1           0      -12.629243   -1.182329   -1.295409
     87          1           0      -13.561894    0.223484   -1.358433
     88          1           0      -12.439210    0.547025   -3.824075
     89          1           0      -11.784702   -0.990901   -3.663711
     90          1           0      -13.215400   -1.089527   -3.653194
     91          1           0       -9.624583   -5.168158   -0.845825
     92          1           0       -9.225528   -4.300513   -2.290176
     93          1           0       -8.137825   -5.500384   -1.776688
     94          1           0       -3.644313   -3.416524   -0.341268
     95          1           0       -1.809202   -6.040286    2.375216
     96          1           0       -2.362654   -4.971966    3.543968
     97          1           0       -3.540315   -6.434733    3.164873
     98          1           0        2.510561   -2.110022   -1.194581
     99          1           0        2.522212   -0.220876   -1.977187
    100          1           0        4.152595   -1.418475    0.396466
    101          1           0        4.877181    1.882789   -2.278302
    102          1           0        5.355452    0.482267   -3.206991
    103          1           0        3.680029    0.827727   -2.553284
    104          1           0        6.495458    1.192321   -0.118293
    105          1           0        6.236730   -0.200288    0.766366
    106          1           0        7.429638   -1.413949   -1.379703
    107          1           0        7.450379    0.230518   -2.132851
    108          1           0        8.847230    0.773109   -0.126523
    109          1           0        8.594731   -0.668935    0.707383
    110          1           0       10.287345   -0.553113   -1.915520
    111          1           0        9.043737   -2.878391   -1.186430
    112          1           0       10.811390   -2.606336   -1.772724
    113          1           0       10.187958   -2.814994    0.015343
    114          1           0       11.323666    0.848752    0.032413
    115          1           0       11.091228   -0.652102    0.987979
    116          1           0       12.774061   -1.675575   -0.971220
    117          1           0       12.762236   -0.065457   -1.725960
    118          1           0       13.536463    0.864860    0.699395
    119          1           0       13.746251   -0.822620    0.986631
    120          1           0       15.244386    0.229653   -1.399186
    121          1           0       14.892129   -2.516596   -1.126059
    122          1           0       16.584494   -2.006196   -0.857533
    123          1           0       15.523394   -2.392110    0.554356
    124          1           0       15.744517    1.557721    0.420600
    125          1           0       16.222968    0.129680    1.227134
    126          1           0       18.155133   -0.382579   -0.167671
    127          1           0       17.600110    1.169217   -1.369298
    128          1           0       18.168520    2.511122    0.737821
    129          1           0       18.359182    1.136122    1.655010
    130          1           0       20.557803    0.705421    0.003896
    131          1           0       19.495044    3.272419   -1.432171
    132          1           0       21.333531    2.558664   -1.701433
    133          1           0       19.982137    1.642122   -2.020006
    134          1           0       20.883112    2.155389    2.272850
    135          1           0       22.108506    2.495667    1.101043
    136          1           0       20.608214    3.566276    1.240634
    137          1           0       -7.066979    1.744377    0.262143
    138          1           0       -7.627049   -0.253226   -0.043141
 ---------------------------------------------------------------------

 SCF Done:  E(RB3LYP) =  -2733.02112763     A.U. after   18 cycles

 Excitation energies and oscillator strengths:

 Excited State   1:      Singlet-A      1.9631 eV  631.56 nm  f=0.2811  <S**2>=0.000
     235 -> 237       -0.10178
     235 -> 238        0.20870
     236 -> 237        0.66581
 This state for optimization and/or second-order correction.
 Total Energy, E(TD-HF/TD-DFT) =  -2732.94898334
 Copying the excited state density for this state as the 1-particle RhoCI density.

 The electronic state is 1-A.
 Alpha  occ. eigenvalues --  -19.18753 -19.18058 -19.12179 -19.12103 -19.10843
 Alpha  occ. eigenvalues --  -14.38171 -14.36165 -14.32443 -14.29534 -10.32079
 Alpha  occ. eigenvalues --  -10.30973 -10.27233 -10.26105 -10.25493 -10.24578
 Alpha  occ. eigenvalues --  -10.24261 -10.23168 -10.23064 -10.22862 -10.22463
 Alpha  occ. eigenvalues --  -10.22237 -10.21660 -10.21656 -10.21183 -10.21085
 Alpha  occ. eigenvalues --  -10.20955 -10.20906 -10.20857 -10.20743 -10.20705
 Alpha  occ. eigenvalues --  -10.20602 -10.20583 -10.20533 -10.20338 -10.20228
 Alpha  occ. eigenvalues --  -10.20089 -10.19987 -10.19598 -10.19482 -10.19458
 Alpha  occ. eigenvalues --  -10.19438 -10.19419 -10.19223 -10.19211 -10.19196
 Alpha  occ. eigenvalues --  -10.19121 -10.19117 -10.19072 -10.18989 -10.18938
 Alpha  occ. eigenvalues --  -10.18865 -10.18759 -10.18685 -10.18653 -10.18620
 Alpha  occ. eigenvalues --  -10.18603 -10.18562 -10.18410 -10.18353 -10.18130
 Alpha  occ. eigenvalues --  -10.17651 -10.17594 -10.17417 -10.17078  -1.11700
 Alpha  occ. eigenvalues --   -1.09965  -1.00927  -0.99942  -0.99231  -0.97829
 Alpha  occ. eigenvalues --   -0.96936  -0.93781  -0.93222  -0.84522  -0.83266
 Alpha  occ. eigenvalues --   -0.83210  -0.81950  -0.81404  -0.80712  -0.80223
 Alpha  occ. eigenvalues --   -0.79056  -0.78783  -0.78631  -0.77971  -0.77621
 Alpha  occ. eigenvalues --   -0.76932  -0.76450  -0.75754  -0.74576  -0.74366
 Alpha  occ. eigenvalues --   -0.74043  -0.72789  -0.72129  -0.71714  -0.71154
 Alpha  occ. eigenvalues --   -0.70173  -0.69984  -0.69036  -0.68776  -0.67669
 Alpha  occ. eigenvalues --   -0.67112  -0.66762  -0.66453  -0.65925  -0.65201
 Alpha  occ. eigenvalues --   -0.64469  -0.63314  -0.62691  -0.61800  -0.60897
 Alpha  occ. eigenvalues --   -0.60574  -0.58965  -0.58043  -0.57830  -0.57498
 Alpha  occ. eigenvalues --   -0.57037  -0.56760  -0.56633  -0.55982  -0.55628
 Alpha  occ. eigenvalues --   -0.55385  -0.55117  -0.54345  -0.53996  -0.53330
 Alpha  occ. eigenvalues --   -0.52796  -0.51601  -0.51354  -0.50956  -0.50707
 Alpha  occ. eigenvalues --   -0.50220  -0.49815  -0.49242  -0.48666  -0.48339
 Alpha  occ. eigenvalues --   -0.48123  -0.47892  -0.47610  -0.47299  -0.47217
 Alpha  occ. eigenvalues --   -0.47115  -0.46664  -0.46369  -0.45753  -0.45441
 Alpha  occ. eigenvalues --   -0.45348  -0.45217  -0.44963  -0.44356  -0.44274
 Alpha  occ. eigenvalues --   -0.44210  -0.44000  -0.43864  -0.43566  -0.43432
 Alpha  occ. eigenvalues --   -0.43369  -0.43123  -0.43022  -0.42480  -0.42270
 Alpha  occ. eigenvalues --   -0.42049  -0.41971  -0.41637  -0.41589  -0.41504
 Alpha  occ. eigenvalues --   -0.41153  -0.40800  -0.40615  -0.40481  -0.40328
 Alpha  occ. eigenvalues --   -0.40065  -0.39768  -0.39745  -0.39627  -0.39327
 Alpha  occ. eigenvalues --   -0.39307  -0.38811  -0.38624  -0.38512  -0.38357
 Alpha  occ. eigenvalues --   -0.38313  -0.38165  -0.37693  -0.37685  -0.37417
 Alpha  occ. eigenvalues --   -0.37227  -0.37191  -0.37116  -0.36688  -0.36560
 Alpha  occ. eigenvalues --   -0.36446  -0.36267  -0.35856  -0.35709  -0.35561
 Alpha  occ. eigenvalues --   -0.35276  -0.35092  -0.34987  -0.34827  -0.34724
 Alpha  occ. eigenvalues --   -0.34285  -0.34234  -0.33993  -0.33492  -0.33131
 Alpha  occ. eigenvalues --   -0.33045  -0.32797  -0.32729  -0.32689  -0.32479
 Alpha  occ. eigenvalues --   -0.32429  -0.32240  -0.32165  -0.31933  -0.31518
 Alpha  occ. eigenvalues --   -0.31130  -0.31031  -0.30799  -0.30656  -0.30351
 Alpha  occ. eigenvalues --   -0.29322  -0.28678  -0.28151  -0.27674  -0.27447
 Alpha  occ. eigenvalues --   -0.27341  -0.26702  -0.26446  -0.26342  -0.26127
 Alpha  occ. eigenvalues --   -0.25240  -0.24970  -0.23589  -0.22293  -0.20570
 Alpha  occ. eigenvalues --   -0.17629
 Alpha virt. eigenvalues --   -0.10091  -0.07554  -0.04175  -0.02338  -0.01163
 Alpha virt. eigenvalues --    0.00160   0.00596   0.01072   0.01669   0.04005
 Alpha virt. eigenvalues --    0.04098   0.04322   0.04611   0.04910   0.05202

 Mulliken charges:
               1
     1  C   -0.038044
     2  C   -0.081725
     3  C   -0.126426
     4  C   -0.030252
     5  N   -0.185653
     6  C   -0.097675
     7  C    0.087488
     8  C   -0.081409
     9  C    0.010761
    10  C    0.040764
    11  C   -0.002474
    12  C    0.257850
    13  C    0.146259
    14  O   -0.219312
    15  O   -0.305664
    16  N   -0.009640
    17  C    0.085949
    18  C   -0.081644
    19  C    0.009707
    20  C    0.038059
    21  C    0.063641
    22  C    0.002837
    23  C   -0.052681
    24  N   -0.259882
    25  C    0.062520
    26  C   -0.157793
    27  C   -0.026684
    28  C    0.122593
    29  C    0.117588
    30  C    0.038071
    31  C    0.085819
    32  N   -0.062469
    33  C    0.007903
    34  C   -0.130507
    35  C   -0.041526
    36  C    0.108578
    37  C    0.150221
    38  C    0.056096
    39  O   -0.255644
    40  C   -0.013852
    41  C    0.221304
    42  O   -0.256423
    43  O   -0.239128
    44  C    0.178338
    45  C    0.235299
    46  C   -0.115975
    47  C   -0.089574
    48  C    0.107385
    49  C    0.038876
    50  C    0.031389
    51  C    0.097895
    52  C   -0.041058
    53  C   -0.020531
    54  C    0.023696
    55  C   -0.007034
    56  C    0.090796
    57  C   -0.076827
    58  C   -0.031689
    59  C    0.042165
    60  C   -0.042781
    61  C    0.049055
    62  C   -0.052106
    63  C    0.003290
    64  C    0.012422
    65  H    0.022424
    66  H    0.010062
    67  H   -0.074804
    68  H   -0.045083
    69  H    0.010759
    70  H    0.009820
    71  H   -0.001524
    72  H    0.049636
    73  H    0.023762
    74  H   -0.004884
    75  H   -0.105075
    76  H    0.016703
    77  H    0.035426
    78  H   -0.004041
    79  H    0.034770
    80  H   -0.002003
    81  H    0.056064
    82  H    0.033709
    83  H    0.033326
    84  H    0.006110
    85  H   -0.019036
    86  H   -0.008782
    87  H    0.005095
    88  H    0.010706
    89  H   -0.024171
    90  H   -0.019519
    91  H    0.023584
    92  H   -0.015963
    93  H    0.048318
    94  H    0.077784
    95  H    0.022253
    96  H    0.007336
    97  H    0.062118
    98  H    0.050981
    99  H    0.020817
   100  H    0.009212
   101  H   -0.006527
   102  H    0.048357
   103  H   -0.027089
   104  H   -0.011011
   105  H   -0.012621
   106  H   -0.017074
   107  H    0.002957
   108  H   -0.043065
   109  H   -0.014648
   110  H   -0.026085
   111  H    0.014052
   112  H    0.028866
   113  H   -0.002588
   114  H    0.008026
   115  H   -0.008860
   116  H    0.003149
   117  H    0.014282
   118  H    0.003580
   119  H   -0.065019
   120  H   -0.002265
   121  H    0.024604
   122  H    0.017607
   123  H    0.014016
   124  H   -0.011150
   125  H   -0.035584
   126  H    0.002734
   127  H   -0.000651
   128  H   -0.021685
   129  H   -0.010733
   130  H   -0.006198
   131  H    0.036184
   132  H    0.022697
   133  H   -0.001298
   134  H    0.004335
   135  H    0.016524
   136  H    0.011278
   137  H    0.128189
   138  H    0.176292
 Sum of Mulliken charges =  -0.00000

 Dipole moment (field-independent basis, Debye):
    X=              2.7589    Y=              5.0115    Z=              1.3330  Tot=              5.8740
 Quadrupole moment (field-independent basis, Debye-Ang):
   XX=           -351.1796   YY=           -379.7425   ZZ=           -393.0098
   XY=            -34.3919   XZ=             10.3048   YZ=             -1.4866

 Normal termination of Gaussian 16 at Mon Aug 26 03:47:41 2019.
