 Gaussian 16, Revision A.03,
 Gaussian 16:  ES64L-G16RevA.03 25-Dec-2016

 --------------------------
 # td=(NStates=1) B3LYP/SVP
 --------------------------

 --
 TD
 --
 Symbolic Z-matrix:
 Charge =  0 Multiplicity = 1

                         Standard orientation:
 ---------------------------------------------------------------------
 Center     Atomic      Atomic             Coordinates (Angstroms)
 Number     Number       Type             X           Y           Z
 ---------------------------------------------------------------------
      1          6           0       -5.102418   -1.871383    0.534296
      2          6           0       -4.657323    2.928011    1.482733
      3          6           0       -9.243919    3.281146   -0.339410
      4          6           0       -9.779453   -1.496151   -1.131076
      5          7           0       -5.114896    0.466410    0.887229
      6          6           0       -4.505209   -0.690598    0.928003
      7          6           0       -3.089797   -0.508000    1.362942
      8          6           0       -3.032844    0.998518    1.892323
      9          6           0       -4.300925    1.578364    1.403292
     10          6           0       -3.161338    1.055593    3.327123
     11          6           0       -2.125604   -0.721875    0.224159
     12          6           0       -0.576027   -0.778297    0.670403
     13          6           0        0.400000   -1.167020   -0.461582
     14          8           0        0.108513   -1.684012   -1.549998
     15          8           0        1.600405   -0.904214   -0.066931
     16          7           0       -6.977813    2.779341    0.535897
     17          6           0       -5.942188    3.469108    1.005326
     18          6           0       -6.366065    4.871357    0.963179
     19          6           0       -7.537299    4.939643    0.289767
     20          6           0       -7.966554    3.609190   -0.012006
     21          6           0       -5.408955    5.886626    1.482745
     22          6           0       -8.304098    6.262918    0.154483
     23          6           0       -9.198137    6.555491   -0.775071
     24          7           0       -9.233284    0.836700   -0.629571
     25          6           0       -9.781492    1.969988   -0.589604
     26          6           0      -11.229289    1.870652   -0.969529
     27          6           0      -11.445224    0.512196   -1.152053
     28          6           0      -10.097803   -0.084159   -0.919231
     29          6           0      -12.248132    2.981416   -1.072162
     30          6           0      -12.719758   -0.224925   -1.572316
     31          6           0      -12.703672   -0.563495   -3.100234
     32          7           0       -7.500019   -1.274777   -0.196781
     33          6           0       -8.576854   -2.077479   -0.631719
     34          6           0       -8.118028   -3.397026   -0.692307
     35          6           0       -6.763203   -3.462568   -0.232462
     36          6           0       -6.440200   -2.085491    0.158345
     37          6           0       -8.991627   -4.619084   -0.982332
     38          6           0       -5.654165   -4.238668    0.177221
     39          8           0       -5.576847   -5.472747    0.081416
     40          6           0       -4.387404   -3.304216    0.503279
     41          6           0       -3.849518   -3.673178    1.803323
     42          8           0       -3.924151   -3.120179    2.863465
     43          8           0       -3.099139   -4.849983    1.629310
     44          6           0       -2.416190   -5.368336    2.715572
     45          6           0        2.655461   -1.226796   -1.064992
     46          6           0        3.952625   -0.998493   -0.495305
     47          6           0        4.806747   -0.101097   -1.130413
     48          6           0        4.713713    0.506666   -2.488547
     49          6           0        6.168584    0.135262   -0.469364
     50          6           0        7.458410   -0.480831   -1.123607
     51          6           0        8.729953   -0.253126   -0.331358
     52          6           0       10.121897   -0.824535   -0.992300
     53          6           0       10.009400   -2.379320   -0.973767
     54          6           0       11.234152   -0.374483   -0.118907
     55          6           0       12.656117   -0.495344   -0.765224
     56          6           0       13.866867   -0.075039    0.255853
     57          6           0       15.278781   -0.192428   -0.422184
     58          6           0       15.632332   -1.662841   -0.826017
     59          6           0       16.360715    0.483401    0.481274
     60          6           0       17.640950    0.809672   -0.202235
     61          6           0       18.687760    1.542825    0.841941
     62          6           0       20.140254    1.827550    0.208442
     63          6           0       20.039243    2.638247   -1.124346
     64          6           0       20.913850    2.619660    1.277547
     65          1           0       -3.943340    3.436818    1.992357
     66          1           0       -9.932015    4.135474   -0.494826
     67          1           0      -10.483449   -2.135970   -1.219239
     68          1           0       -3.012203   -1.339280    2.339163
     69          1           0       -2.076667    1.587949    1.437722
     70          1           0       -2.294289    0.697357    3.701440
     71          1           0       -3.251538    2.203861    3.600565
     72          1           0       -3.989144    0.585016    3.877027
     73          1           0       -2.359678   -1.533794   -0.640833
     74          1           0       -1.894472    0.140438   -0.419454
     75          1           0       -0.185279    0.030075    0.959544
     76          1           0       -0.343270   -1.443273    1.444493
     77          1           0       -4.355483    5.804999    0.996520
     78          1           0       -5.758228    6.997322    1.262309
     79          1           0       -5.407032    5.906630    2.593404
     80          1           0       -8.077895    6.943334    0.906684
     81          1           0       -9.476721    6.137073   -1.626347
     82          1           0       -9.506443    7.530529   -0.523348
     83          1           0      -12.335435    3.311096    0.046884
     84          1           0      -11.784340    3.773400   -1.677987
     85          1           0      -13.193933    2.739472   -1.521686
     86          1           0      -12.545371   -1.150783   -0.831695
     87          1           0      -13.679821    0.274631   -1.258069
     88          1           0      -13.132815    0.368030   -3.694399
     89          1           0      -11.610009   -0.886959   -3.263694
     90          1           0      -13.344369   -1.578936   -3.171651
     91          1           0       -9.635328   -4.872681   -0.330631
     92          1           0       -9.441189   -4.346437   -2.034328
     93          1           0       -8.405032   -5.479018   -0.933653
     94          1           0       -3.796078   -3.441254   -0.464505
     95          1           0       -1.938657   -6.251374    2.265286
     96          1           0       -1.795416   -4.512955    3.168888
     97          1           0       -3.115490   -5.633575    3.560367
     98          1           0        2.621123   -2.251938   -1.254665
     99          1           0        2.470046   -0.540418   -2.106538
    100          1           0        4.245790   -1.388227    0.466853
    101          1           0        4.924305    1.610279   -2.298107
    102          1           0        5.516310    0.021839   -3.112209
    103          1           0        3.685678    0.335688   -3.106127
    104          1           0        6.296926    1.262429   -0.273626
    105          1           0        6.041679   -0.088878    0.517511
    106          1           0        7.025456   -1.692439   -1.213746
    107          1           0        7.594724   -0.125184   -2.219028
    108          1           0        8.735863    0.880015   -0.021825
    109          1           0        8.599116   -0.600996    0.575000
    110          1           0       10.107603   -0.510408   -2.086781
    111          1           0        9.212959   -2.711508   -1.739902
    112          1           0       11.006977   -2.944001   -1.281866
    113          1           0        9.633075   -2.787055    0.026496
    114          1           0       11.214540    0.822272    0.114848
    115          1           0       11.108915   -0.946220    0.949187
    116          1           0       12.759233   -1.685959   -1.155218
    117          1           0       12.684402    0.129256   -1.800006
    118          1           0       13.904245    0.988652    0.858996
    119          1           0       13.960344   -0.864662    1.190669
    120          1           0       15.053468    0.485699   -1.471724
    121          1           0       15.006981   -2.317325   -1.665335
    122          1           0       16.575345   -1.647934   -1.384561
    123          1           0       15.866859   -2.237044   -0.007565
    124          1           0       15.950209    1.332477    1.046249
    125          1           0       16.434321   -0.366586    1.336093
    126          1           0       18.293539   -0.171907   -0.623011
    127          1           0       17.568283    1.670282   -1.112883
    128          1           0       18.190388    2.597740    0.899570
    129          1           0       18.740452    1.092241    1.688331
    130          1           0       20.690446    0.864491    0.014503
    131          1           0       19.480858    3.703046   -0.851702
    132          1           0       21.018588    2.810345   -1.695843
    133          1           0       19.537575    1.917769   -1.757108
    134          1           0       20.775849    2.378092    2.183735
    135          1           0       22.040774    2.649653    0.987200
    136          1           0       20.521136    3.673112    1.348021
    137          1           0       -7.029199    1.917811    0.322798
    138          1           0       -7.535501   -0.289651   -0.059963
 ---------------------------------------------------------------------

 SCF Done:  E(RB3LYP) =  -2732.95010608     A.U. after   17 cycles

 Excitation energies and oscillator strengths:

 Excited State   1:      Singlet-A      2.0095 eV  617.00 nm  f=0.2221  <S**2>=0.000
     235 -> 237       -0.13393
     235 -> 238        0.26424
     236 -> 237        0.63347
     236 -> 238        0.11311
 This state for optimization and/or second-order correction.
 Total Energy, E(TD-HF/TD-DFT) =  -2732.87625981
 Copying the excited state density for this state as the 1-particle RhoCI density.

 The electronic state is 1-A.
 Alpha  occ. eigenvalues --  -19.18181 -19.15878 -19.13475 -19.11153 -19.10883
 Alpha  occ. eigenvalues --  -14.36996 -14.36239 -14.31331 -14.29322 -10.31670
 Alpha  occ. eigenvalues --  -10.30502 -10.27356 -10.25078 -10.25054 -10.23804
 Alpha  occ. eigenvalues --  -10.23522 -10.23330 -10.23295 -10.23257 -10.22142
 Alpha  occ. eigenvalues --  -10.22141 -10.21786 -10.21756 -10.21550 -10.21435
 Alpha  occ. eigenvalues --  -10.21299 -10.21248 -10.21167 -10.21122 -10.21117
 Alpha  occ. eigenvalues --  -10.21015 -10.20902 -10.20766 -10.20759 -10.20659
 Alpha  occ. eigenvalues --  -10.20633 -10.20547 -10.20517 -10.20433 -10.20307
 Alpha  occ. eigenvalues --  -10.20279 -10.20212 -10.20106 -10.19982 -10.19960
 Alpha  occ. eigenvalues --  -10.19897 -10.19815 -10.19758 -10.19577 -10.19404
 Alpha  occ. eigenvalues --  -10.19354 -10.19099 -10.19089 -10.18989 -10.18683
 Alpha  occ. eigenvalues --  -10.18527 -10.18411 -10.18360 -10.18197 -10.18080
 Alpha  occ. eigenvalues --  -10.18064 -10.17876 -10.17689 -10.16786  -1.10168
 Alpha  occ. eigenvalues --   -1.08730  -1.01207  -1.00540  -1.00161  -0.98317
 Alpha  occ. eigenvalues --   -0.97252  -0.96320  -0.93170  -0.84053  -0.82932
 Alpha  occ. eigenvalues --   -0.82821  -0.81439  -0.80928  -0.80544  -0.80240
 Alpha  occ. eigenvalues --   -0.80095  -0.79424  -0.78620  -0.78476  -0.78002
 Alpha  occ. eigenvalues --   -0.77442  -0.76712  -0.75708  -0.74673  -0.73969
 Alpha  occ. eigenvalues --   -0.73323  -0.73037  -0.72425  -0.71437  -0.70933
 Alpha  occ. eigenvalues --   -0.70458  -0.69247  -0.68177  -0.67995  -0.67750
 Alpha  occ. eigenvalues --   -0.67127  -0.66978  -0.66790  -0.65592  -0.64879
 Alpha  occ. eigenvalues --   -0.64567  -0.63375  -0.61940  -0.61645  -0.60602
 Alpha  occ. eigenvalues --   -0.60149  -0.59116  -0.58378  -0.58119  -0.57305
 Alpha  occ. eigenvalues --   -0.56551  -0.56528  -0.56083  -0.55919  -0.55208
 Alpha  occ. eigenvalues --   -0.54823  -0.54403  -0.54241  -0.53294  -0.53212
 Alpha  occ. eigenvalues --   -0.52704  -0.52496  -0.51553  -0.51149  -0.50438
 Alpha  occ. eigenvalues --   -0.49910  -0.49399  -0.48489  -0.48355  -0.47813
 Alpha  occ. eigenvalues --   -0.47584  -0.47490  -0.47441  -0.47072  -0.46673
 Alpha  occ. eigenvalues --   -0.46474  -0.46317  -0.45758  -0.45655  -0.45602
 Alpha  occ. eigenvalues --   -0.45041  -0.44932  -0.44862  -0.44750  -0.44478
 Alpha  occ. eigenvalues --   -0.44342  -0.44338  -0.44013  -0.43746  -0.43583
 Alpha  occ. eigenvalues --   -0.43440  -0.43100  -0.42862  -0.42740  -0.42592
 Alpha  occ. eigenvalues --   -0.42287  -0.42196  -0.41954  -0.41816  -0.41593
 Alpha  occ. eigenvalues --   -0.41361  -0.41120  -0.40893  -0.40670  -0.40419
 Alpha  occ. eigenvalues --   -0.40334  -0.40173  -0.40026  -0.39523  -0.39366
 Alpha  occ. eigenvalues --   -0.39251  -0.38633  -0.38498  -0.38440  -0.38063
 Alpha  occ. eigenvalues --   -0.37978  -0.37850  -0.37720  -0.37623  -0.37338
 Alpha  occ. eigenvalues --   -0.36909  -0.36876  -0.36744  -0.36555  -0.36373
 Alpha  occ. eigenvalues --   -0.36285  -0.36151  -0.35954  -0.35677  -0.35584
 Alpha  occ. eigenvalues --   -0.35512  -0.35326  -0.35231  -0.34799  -0.34656
 Alpha  occ. eigenvalues --   -0.34358  -0.34214  -0.34025  -0.33951  -0.33910
 Alpha  occ. eigenvalues --   -0.33681  -0.33310  -0.32718  -0.32445  -0.32273
 Alpha  occ. eigenvalues --   -0.32086  -0.31843  -0.31434  -0.31159  -0.30901
 Alpha  occ. eigenvalues --   -0.30739  -0.30526  -0.30465  -0.30188  -0.29693
 Alpha  occ. eigenvalues --   -0.29219  -0.28824  -0.28437  -0.28096  -0.27989
 Alpha  occ. eigenvalues --   -0.26743  -0.26553  -0.25812  -0.25687  -0.25294
 Alpha  occ. eigenvalues --   -0.24898  -0.24407  -0.24234  -0.22349  -0.20384
 Alpha  occ. eigenvalues --   -0.18663
 Alpha virt. eigenvalues --   -0.10572  -0.07751  -0.04159  -0.01853  -0.01203
 Alpha virt. eigenvalues --   -0.01068   0.00305   0.01511   0.02680   0.03510
 Alpha virt. eigenvalues --    0.04046   0.04069   0.04330   0.04445   0.04615

 Mulliken charges:
               1
     1  C   -0.008221
     2  C    0.016592
     3  C   -0.123175
     4  C    0.074237
     5  N   -0.217557
     6  C   -0.082824
     7  C   -0.075120
     8  C   -0.056701
     9  C   -0.023366
    10  C    0.121120
    11  C    0.002784
    12  C    0.167462
    13  C    0.120212
    14  O   -0.279310
    15  O   -0.284565
    16  N    0.075720
    17  C    0.095623
    18  C   -0.139226
    19  C    0.004108
    20  C    0.099182
    21  C    0.040988
    22  C   -0.025669
    23  C    0.074470
    24  N   -0.070259
    25  C    0.004561
    26  C   -0.196421
    27  C   -0.087801
    28  C   -0.041363
    29  C    0.107272
    30  C   -0.013154
    31  C   -0.031472
    32  N   -0.061179
    33  C    0.080463
    34  C   -0.168986
    35  C    0.061125
    36  C    0.063290
    37  C    0.184818
    38  C   -0.003097
    39  O   -0.202030
    40  C   -0.022814
    41  C    0.249479
    42  O   -0.207134
    43  O   -0.322936
    44  C    0.169315
    45  C    0.275913
    46  C   -0.069596
    47  C   -0.178587
    48  C    0.027345
    49  C    0.079308
    50  C   -0.043869
    51  C    0.082310
    52  C   -0.043652
    53  C   -0.041012
    54  C   -0.009881
    55  C   -0.043980
    56  C   -0.021351
    57  C   -0.122484
    58  C    0.044640
    59  C    0.038532
    60  C   -0.072225
    61  C    0.046267
    62  C   -0.122076
    63  C   -0.015055
    64  C    0.118608
    65  H   -0.068140
    66  H   -0.013727
    67  H   -0.093190
    68  H    0.085316
    69  H    0.030819
    70  H   -0.023656
    71  H    0.001652
    72  H    0.034798
    73  H    0.057497
    74  H    0.005822
    75  H   -0.061630
    76  H   -0.002753
    77  H    0.055565
    78  H    0.017322
    79  H    0.031693
    80  H   -0.015084
    81  H   -0.018449
    82  H    0.010257
    83  H    0.041560
    84  H    0.018974
    85  H    0.006632
    86  H    0.024373
    87  H    0.012044
    88  H    0.050111
    89  H    0.036521
    90  H    0.029712
    91  H   -0.025822
    92  H    0.042521
    93  H    0.001607
    94  H    0.099374
    95  H    0.044388
    96  H    0.019987
    97  H    0.020944
    98  H    0.010727
    99  H    0.061118
   100  H   -0.009096
   101  H    0.037077
   102  H    0.048247
   103  H    0.035850
   104  H   -0.007868
   105  H   -0.045919
   106  H    0.021060
   107  H    0.019732
   108  H   -0.002543
   109  H   -0.060726
   110  H    0.008317
   111  H    0.022649
   112  H    0.032475
   113  H    0.021392
   114  H    0.016014
   115  H    0.022718
   116  H    0.026604
   117  H    0.026819
   118  H    0.021965
   119  H    0.003390
   120  H    0.004294
   121  H    0.033380
   122  H   -0.005700
   123  H   -0.015922
   124  H   -0.003319
   125  H    0.006989
   126  H    0.028820
   127  H    0.041537
   128  H    0.006070
   129  H   -0.044057
   130  H    0.003974
   131  H    0.035562
   132  H    0.019447
   133  H    0.015925
   134  H   -0.060364
   135  H    0.016052
   136  H   -0.015203
   137  H    0.042080
   138  H    0.125801
 Sum of Mulliken charges =  -0.00000

 Dipole moment (field-independent basis, Debye):
    X=              3.1397    Y=              5.8115    Z=              1.3497  Tot=              6.7419
 Quadrupole moment (field-independent basis, Debye-Ang):
   XX=           -342.6193   YY=           -386.5910   ZZ=           -394.9628
   XY=            -36.7703   XZ=              5.9559   YZ=             -0.1344

 Normal termination of Gaussian 16 at Thu Aug 22 22:25:42 2019.
