 Gaussian 16, Revision A.03,
 Gaussian 16:  ES64L-G16RevA.03 25-Dec-2016

 --------------------------
 # td=(NStates=1) B3LYP/SVP
 --------------------------

 --
 TD
 --
 Symbolic Z-matrix:
 Charge =  0 Multiplicity = 1

                         Standard orientation:
 ---------------------------------------------------------------------
 Center     Atomic      Atomic             Coordinates (Angstroms)
 Number     Number       Type             X           Y           Z
 ---------------------------------------------------------------------
      1          6           0       -5.132041   -1.946161    0.462549
      2          6           0       -4.728824    2.719824    1.597184
      3          6           0       -9.203051    3.398233   -0.339477
      4          6           0       -9.829802   -1.324365   -0.958654
      5          7           0       -5.155353    0.472611    0.780118
      6          6           0       -4.455983   -0.775004    0.834303
      7          6           0       -3.014102   -0.638119    1.261149
      8          6           0       -3.064583    0.782771    2.001701
      9          6           0       -4.370690    1.347089    1.513387
     10          6           0       -3.170222    0.699814    3.511400
     11          6           0       -2.087719   -0.710104    0.136223
     12          6           0       -0.646507   -0.686197    0.530352
     13          6           0        0.354116   -1.030082   -0.575844
     14          8           0        0.111439   -1.486973   -1.628522
     15          8           0        1.628620   -0.711318   -0.257315
     16          7           0       -6.930512    2.771642    0.381968
     17          6           0       -5.871711    3.358705    1.020120
     18          6           0       -6.133195    4.767120    1.046794
     19          6           0       -7.442256    4.985701    0.443159
     20          6           0       -7.868902    3.692297   -0.049691
     21          6           0       -5.178538    5.767536    1.791225
     22          6           0       -8.051608    6.289850    0.308515
     23          6           0       -9.011653    6.780894   -0.489171
     24          7           0       -9.187402    0.907845   -0.521657
     25          6           0       -9.815827    2.145395   -0.577494
     26          6           0      -11.176334    1.946405   -1.041433
     27          6           0      -11.419195    0.624550   -1.234683
     28          6           0      -10.095639    0.013324   -0.893549
     29          6           0      -12.199365    3.166474   -1.081613
     30          6           0      -12.656608   -0.157840   -1.768696
     31          6           0      -12.698974   -0.475523   -3.234344
     32          7           0       -7.544473   -1.244029   -0.180361
     33          6           0       -8.636342   -1.989619   -0.678380
     34          6           0       -8.221559   -3.393087   -0.669302
     35          6           0       -6.830900   -3.337870   -0.254865
     36          6           0       -6.377300   -2.050000    0.005758
     37          6           0       -9.048548   -4.510658   -0.972793
     38          6           0       -5.653822   -4.319111   -0.025171
     39          8           0       -5.650955   -5.553727   -0.039065
     40          6           0       -4.448515   -3.354345    0.330639
     41          6           0       -3.824140   -3.828429    1.601205
     42          8           0       -4.321324   -3.515116    2.752391
     43          8           0       -3.034584   -4.791092    1.435080
     44          6           0       -2.485818   -5.392547    2.704740
     45          6           0        2.698407   -1.131510   -1.231298
     46          6           0        3.945435   -0.810684   -0.514652
     47          6           0        5.008244   -0.087461   -0.919115
     48          6           0        4.917066    0.914531   -2.243274
     49          6           0        6.242061    0.014016   -0.191458
     50          6           0        7.536823   -0.446468   -0.940652
     51          6           0        8.712326   -0.384722   -0.167496
     52          6           0       10.041121   -1.002846   -0.792882
     53          6           0        9.961047   -2.515979   -0.957769
     54          6           0       11.239202   -0.612416    0.106193
     55          6           0       12.630916   -0.746499   -0.605401
     56          6           0       13.818675   -0.090477    0.184980
     57          6           0       15.163964   -0.153761   -0.327953
     58          6           0       15.574523   -1.620721   -0.447234
     59          6           0       16.158328    0.559301    0.413834
     60          6           0       17.567404    0.877980   -0.278295
     61          6           0       18.569715    1.678522    0.598397
     62          6           0       19.997616    1.929642    0.026061
     63          6           0       20.000085    2.448107   -1.390634
     64          6           0       20.912201    2.776291    0.996232
     65          1           0       -3.891063    3.172358    1.984765
     66          1           0       -9.775775    4.311548   -0.205887
     67          1           0      -10.575828   -2.227744   -1.228417
     68          1           0       -2.996656   -1.501878    2.044435
     69          1           0       -2.191231    1.564162    1.709968
     70          1           0       -2.027004    0.237295    3.797479
     71          1           0       -3.233162    1.730025    4.098407
     72          1           0       -3.978936    0.099586    4.144795
     73          1           0       -2.536173   -1.555358   -0.481198
     74          1           0       -2.303999    0.207243   -0.584620
     75          1           0       -0.534772    0.361399    0.886157
     76          1           0       -0.459287   -1.322201    1.529271
     77          1           0       -4.026377    5.611620    1.281335
     78          1           0       -5.343749    6.867275    1.486887
     79          1           0       -5.153681    5.533146    2.782279
     80          1           0       -7.462052    6.909515    1.008359
     81          1           0       -9.122523    6.226927   -1.509013
     82          1           0       -9.318866    7.700383   -0.270866
     83          1           0      -12.274990    3.577919   -0.013142
     84          1           0      -11.772599    3.766048   -2.032587
     85          1           0      -13.268196    3.077325   -1.359384
     86          1           0      -13.000152   -1.015201   -1.252766
     87          1           0      -13.612554    0.566805   -1.272518
     88          1           0      -12.646693    0.501454   -3.913786
     89          1           0      -11.805075   -1.063324   -3.429185
     90          1           0      -13.605548   -1.179730   -3.680009
     91          1           0       -9.474152   -5.064517    0.335128
     92          1           0      -10.069047   -4.357483   -1.886941
     93          1           0       -8.218906   -5.389033   -1.283658
     94          1           0       -3.721196   -3.632954   -0.517375
     95          1           0       -1.814284   -6.034916    2.357859
     96          1           0       -2.077773   -4.609323    3.315023
     97          1           0       -3.283491   -6.106048    3.153253
     98          1           0        2.774798   -2.180108   -1.825230
     99          1           0        2.570005   -0.519943   -2.256148
    100          1           0        3.936320   -1.393730    0.411526
    101          1           0        5.315983    1.837863   -1.870557
    102          1           0        5.787675    0.587571   -2.918466
    103          1           0        3.759659    1.199044   -2.540771
    104          1           0        6.335024    1.068791    0.109859
    105          1           0        6.354589   -0.854965    0.630660
    106          1           0        7.373070   -1.554607   -1.349739
    107          1           0        7.505796    0.206602   -1.742621
    108          1           0        8.999677    0.683833    0.137482
    109          1           0        8.422805   -1.159641    0.686927
    110          1           0       10.228793   -0.454617   -1.912404
    111          1           0        8.908576   -3.006525   -1.355492
    112          1           0       10.874856   -2.904631   -1.607752
    113          1           0        9.909437   -2.968719    0.161526
    114          1           0       11.145804    0.540130    0.403631
    115          1           0       11.190821   -1.117018    0.985851
    116          1           0       12.841032   -1.853658   -0.808033
    117          1           0       12.423139   -0.307698   -1.573241
    118          1           0       13.600016    0.977872    0.518285
    119          1           0       13.801471   -0.577041    1.098776
    120          1           0       15.391857    0.314509   -1.296287
    121          1           0       15.119167   -2.359669   -1.226487
    122          1           0       16.811843   -1.714544   -0.716350
    123          1           0       15.565049   -2.144986    0.528759
    124          1           0       15.822166    1.516040    0.736356
    125          1           0       16.356252    0.106574    1.424558
    126          1           0       18.262509   -0.152305   -0.654540
    127          1           0       17.180762    1.723597   -1.117718
    128          1           0       17.936640    2.605422    0.921534
    129          1           0       18.696594    1.214024    1.535227
    130          1           0       20.436055    0.906812   -0.000455
    131          1           0       19.156537    3.216112   -1.438708
    132          1           0       21.130295    2.665757   -1.759519
    133          1           0       19.450719    1.503426   -1.868802
    134          1           0       21.028342    2.253850    2.056500
    135          1           0       21.863879    2.856812    0.401484
    136          1           0       20.547029    3.769715    1.107570
    137          1           0       -6.859353    1.740010    0.152157
    138          1           0       -7.715288   -0.093575    0.078593
 ---------------------------------------------------------------------

 SCF Done:  E(RB3LYP) =  -2732.90320764     A.U. after   17 cycles

 Excitation energies and oscillator strengths:

 Excited State   1:      Singlet-A      1.9924 eV  622.30 nm  f=0.1705  <S**2>=0.000
     235 -> 238        0.30897
     236 -> 237        0.62640
 This state for optimization and/or second-order correction.
 Total Energy, E(TD-HF/TD-DFT) =  -2732.82998991
 Copying the excited state density for this state as the 1-particle RhoCI density.

 The electronic state is 1-A.
 Alpha  occ. eigenvalues --  -19.19731 -19.17601 -19.13014 -19.12469 -19.10441
 Alpha  occ. eigenvalues --  -14.37104 -14.35796 -14.32779 -14.30573 -10.31442
 Alpha  occ. eigenvalues --  -10.31263 -10.28902 -10.26446 -10.25520 -10.25076
 Alpha  occ. eigenvalues --  -10.24082 -10.23606 -10.23415 -10.23178 -10.22887
 Alpha  occ. eigenvalues --  -10.22876 -10.22444 -10.22431 -10.22033 -10.21987
 Alpha  occ. eigenvalues --  -10.21980 -10.21963 -10.21837 -10.21702 -10.21290
 Alpha  occ. eigenvalues --  -10.21289 -10.21269 -10.21235 -10.21205 -10.21013
 Alpha  occ. eigenvalues --  -10.20783 -10.20732 -10.20702 -10.20577 -10.20558
 Alpha  occ. eigenvalues --  -10.20546 -10.20518 -10.20345 -10.20232 -10.20060
 Alpha  occ. eigenvalues --  -10.19786 -10.19658 -10.19637 -10.19609 -10.19368
 Alpha  occ. eigenvalues --  -10.19337 -10.19271 -10.19118 -10.19108 -10.19068
 Alpha  occ. eigenvalues --  -10.19003 -10.18719 -10.18606 -10.18601 -10.18552
 Alpha  occ. eigenvalues --  -10.18516 -10.18263 -10.18196 -10.18017  -1.11804
 Alpha  occ. eigenvalues --   -1.09870  -1.01884  -1.00685  -0.97608  -0.96216
 Alpha  occ. eigenvalues --   -0.95173  -0.93819  -0.92658  -0.84847  -0.83709
 Alpha  occ. eigenvalues --   -0.83130  -0.82277  -0.81325  -0.80644  -0.80167
 Alpha  occ. eigenvalues --   -0.79908  -0.79055  -0.78632  -0.78336  -0.77783
 Alpha  occ. eigenvalues --   -0.77377  -0.76440  -0.75769  -0.75008  -0.74480
 Alpha  occ. eigenvalues --   -0.73864  -0.73162  -0.72435  -0.71191  -0.70507
 Alpha  occ. eigenvalues --   -0.69935  -0.69681  -0.67941  -0.67391  -0.66922
 Alpha  occ. eigenvalues --   -0.66717  -0.66553  -0.66306  -0.64989  -0.64824
 Alpha  occ. eigenvalues --   -0.63735  -0.62831  -0.62137  -0.61087  -0.60701
 Alpha  occ. eigenvalues --   -0.60459  -0.58578  -0.58476  -0.57599  -0.57158
 Alpha  occ. eigenvalues --   -0.56598  -0.55974  -0.55766  -0.55517  -0.54759
 Alpha  occ. eigenvalues --   -0.54473  -0.53563  -0.53483  -0.52923  -0.52593
 Alpha  occ. eigenvalues --   -0.52182  -0.51577  -0.50972  -0.50624  -0.50206
 Alpha  occ. eigenvalues --   -0.49477  -0.49261  -0.48922  -0.48771  -0.48588
 Alpha  occ. eigenvalues --   -0.48286  -0.47725  -0.47591  -0.47217  -0.46939
 Alpha  occ. eigenvalues --   -0.46847  -0.46483  -0.45968  -0.45741  -0.45457
 Alpha  occ. eigenvalues --   -0.45297  -0.45220  -0.44693  -0.44454  -0.44152
 Alpha  occ. eigenvalues --   -0.44065  -0.43711  -0.43607  -0.43333  -0.43242
 Alpha  occ. eigenvalues --   -0.42982  -0.42901  -0.42742  -0.42202  -0.42114
 Alpha  occ. eigenvalues --   -0.42030  -0.41893  -0.41672  -0.41525  -0.41410
 Alpha  occ. eigenvalues --   -0.41061  -0.40766  -0.40493  -0.40369  -0.40322
 Alpha  occ. eigenvalues --   -0.39968  -0.39679  -0.39408  -0.39321  -0.39180
 Alpha  occ. eigenvalues --   -0.39081  -0.38625  -0.38519  -0.38303  -0.38249
 Alpha  occ. eigenvalues --   -0.37892  -0.37728  -0.37543  -0.37345  -0.37164
 Alpha  occ. eigenvalues --   -0.37125  -0.36915  -0.36827  -0.36581  -0.36483
 Alpha  occ. eigenvalues --   -0.36389  -0.36264  -0.35819  -0.35405  -0.35373
 Alpha  occ. eigenvalues --   -0.35326  -0.34951  -0.34787  -0.34649  -0.34472
 Alpha  occ. eigenvalues --   -0.34144  -0.34036  -0.33766  -0.33739  -0.33316
 Alpha  occ. eigenvalues --   -0.33197  -0.32831  -0.32773  -0.32442  -0.32024
 Alpha  occ. eigenvalues --   -0.31787  -0.31664  -0.31636  -0.31281  -0.31015
 Alpha  occ. eigenvalues --   -0.30865  -0.30750  -0.30743  -0.30354  -0.30188
 Alpha  occ. eigenvalues --   -0.29644  -0.29583  -0.29525  -0.28457  -0.28258
 Alpha  occ. eigenvalues --   -0.27574  -0.26646  -0.26434  -0.26074  -0.25098
 Alpha  occ. eigenvalues --   -0.24403  -0.23895  -0.23602  -0.23205  -0.19639
 Alpha  occ. eigenvalues --   -0.19182
 Alpha virt. eigenvalues --   -0.10680  -0.07914  -0.04999  -0.02748  -0.01118
 Alpha virt. eigenvalues --   -0.00010   0.00147   0.00351   0.00639   0.01386
 Alpha virt. eigenvalues --    0.02529   0.03010   0.03200   0.03379   0.04130

 Mulliken charges:
               1
     1  C    0.005133
     2  C   -0.024841
     3  C   -0.082973
     4  C   -0.105182
     5  N   -0.241371
     6  C   -0.112054
     7  C   -0.006933
     8  C   -0.069702
     9  C   -0.015205
    10  C   -0.057918
    11  C    0.049762
    12  C    0.026944
    13  C    0.183350
    14  O   -0.189508
    15  O   -0.327503
    16  N   -0.088080
    17  C    0.146153
    18  C   -0.149376
    19  C   -0.040137
    20  C    0.087593
    21  C    0.061315
    22  C   -0.046839
    23  C    0.023723
    24  N   -0.233033
    25  C    0.099579
    26  C   -0.123211
    27  C   -0.060914
    28  C    0.104246
    29  C    0.013827
    30  C    0.041073
    31  C   -0.028196
    32  N   -0.232173
    33  C    0.033527
    34  C   -0.010727
    35  C   -0.056784
    36  C    0.209108
    37  C   -0.172161
    38  C    0.103841
    39  O   -0.185971
    40  C   -0.049481
    41  C    0.175430
    42  O   -0.336415
    43  O   -0.238600
    44  C    0.233968
    45  C    0.176853
    46  C   -0.081048
    47  C   -0.092139
    48  C    0.012096
    49  C    0.040491
    50  C    0.021687
    51  C    0.034723
    52  C   -0.111679
    53  C   -0.066517
    54  C    0.037210
    55  C    0.045352
    56  C    0.084314
    57  C    0.068616
    58  C   -0.065488
    59  C    0.016604
    60  C   -0.100380
    61  C    0.031612
    62  C   -0.105967
    63  C   -0.026501
    64  C    0.024780
    65  H   -0.071173
    66  H   -0.000873
    67  H    0.010815
    68  H    0.043017
    69  H    0.041511
    70  H    0.021531
    71  H    0.030634
    72  H    0.070164
    73  H    0.026062
    74  H    0.021147
    75  H    0.027701
    76  H    0.051301
    77  H    0.039419
    78  H    0.044368
    79  H    0.026235
    80  H   -0.008858
    81  H    0.057149
    82  H   -0.010518
    83  H    0.052077
    84  H    0.045207
    85  H    0.015465
    86  H   -0.004007
    87  H    0.005138
    88  H    0.031965
    89  H    0.012957
    90  H    0.033486
    91  H    0.064333
    92  H    0.081231
    93  H    0.086389
    94  H    0.070595
    95  H   -0.005948
    96  H    0.051042
    97  H    0.066125
    98  H    0.065628
    99  H    0.021812
   100  H   -0.010801
   101  H   -0.003232
   102  H    0.045515
   103  H    0.064387
   104  H    0.013908
   105  H    0.009028
   106  H    0.012343
   107  H   -0.046176
   108  H    0.007288
   109  H   -0.004842
   110  H    0.009180
   111  H    0.036294
   112  H    0.049964
   113  H    0.021802
   114  H    0.001771
   115  H   -0.033538
   116  H    0.008498
   117  H   -0.015555
   118  H   -0.016532
   119  H   -0.039387
   120  H   -0.024883
   121  H    0.034915
   122  H    0.003780
   123  H    0.001461
   124  H   -0.030782
   125  H   -0.026296
   126  H    0.044665
   127  H    0.028608
   128  H   -0.009879
   129  H   -0.022717
   130  H   -0.005584
   131  H    0.022180
   132  H    0.046161
   133  H    0.028328
   134  H    0.027928
   135  H    0.007102
   136  H    0.001391
   137  H    0.166369
   138  H    0.226308
 Sum of Mulliken charges =  -0.00000

 Dipole moment (field-independent basis, Debye):
    X=              4.0760    Y=              3.3076    Z=              1.2644  Tot=              5.3993
 Quadrupole moment (field-independent basis, Debye-Ang):
   XX=           -383.5652   YY=           -382.1299   ZZ=           -398.9512
   XY=            -21.8766   XZ=             13.8471   YZ=             -0.8733

 Normal termination of Gaussian 16 at Sun Aug 25 02:11:21 2019.
