 Gaussian 16, Revision A.03,
 Gaussian 16:  ES64L-G16RevA.03 25-Dec-2016

 --------------------------
 # td=(NStates=1) B3LYP/SVP
 --------------------------

 --
 TD
 --
 Symbolic Z-matrix:
 Charge =  0 Multiplicity = 1

                         Standard orientation:
 ---------------------------------------------------------------------
 Center     Atomic      Atomic             Coordinates (Angstroms)
 Number     Number       Type             X           Y           Z
 ---------------------------------------------------------------------
      1          6           0       -5.120130   -1.896230    0.614761
      2          6           0       -4.755253    2.879947    1.368222
      3          6           0       -9.382425    3.330741   -0.217062
      4          6           0       -9.797294   -1.548151   -1.100669
      5          7           0       -5.216991    0.509592    0.859069
      6          6           0       -4.544861   -0.733209    1.024066
      7          6           0       -3.100351   -0.444445    1.317748
      8          6           0       -3.028298    0.962784    1.824707
      9          6           0       -4.420497    1.481065    1.403270
     10          6           0       -2.920453    0.983909    3.335927
     11          6           0       -2.085326   -0.701675    0.110349
     12          6           0       -0.673759   -0.415738    0.473980
     13          6           0        0.392233   -1.085239   -0.526417
     14          8           0        0.115040   -1.763710   -1.465840
     15          8           0        1.643139   -0.471603   -0.196201
     16          7           0       -6.989553    2.771979    0.462941
     17          6           0       -5.932714    3.431844    1.034985
     18          6           0       -6.211577    4.851706    1.062359
     19          6           0       -7.571166    4.935732    0.518826
     20          6           0       -8.078348    3.588250    0.206237
     21          6           0       -5.361148    5.873260    1.491953
     22          6           0       -8.330999    6.156261    0.232544
     23          6           0       -9.179070    6.524651   -0.727822
     24          7           0       -9.211895    0.852413   -0.533420
     25          6           0       -9.814345    1.979447   -0.540374
     26          6           0      -11.203349    1.769130   -1.033104
     27          6           0      -11.405346    0.439529   -1.339470
     28          6           0      -10.149551   -0.134490   -1.079281
     29          6           0      -12.244913    2.811374   -1.160543
     30          6           0      -12.627453   -0.347928   -1.707315
     31          6           0      -12.673166   -0.584899   -3.256351
     32          7           0       -7.526879   -1.287087   -0.181329
     33          6           0       -8.588234   -2.104791   -0.589828
     34          6           0       -8.118104   -3.477973   -0.660175
     35          6           0       -6.859000   -3.404082   -0.172639
     36          6           0       -6.417606   -2.062549    0.060561
     37          6           0       -8.879861   -4.702876   -1.107652
     38          6           0       -5.697199   -4.216046    0.158345
     39          8           0       -5.622943   -5.509689    0.314903
     40          6           0       -4.481563   -3.263509    0.511915
     41          6           0       -3.910220   -3.714967    1.839964
     42          8           0       -4.083644   -3.221587    2.892974
     43          8           0       -2.953177   -4.641757    1.649197
     44          6           0       -2.464903   -5.261831    2.869989
     45          6           0        2.639786   -1.050446   -1.061975
     46          6           0        3.919980   -0.695265   -0.395645
     47          6           0        4.977686   -0.053106   -1.020617
     48          6           0        4.912107    0.580023   -2.441336
     49          6           0        6.300442    0.119314   -0.356951
     50          6           0        7.458714   -0.475623   -1.080059
     51          6           0        8.759031   -0.193463   -0.349489
     52          6           0       10.093088   -0.748509   -0.983509
     53          6           0       10.053034   -2.186270   -1.256584
     54          6           0       11.158830   -0.262448   -0.133618
     55          6           0       12.619680   -0.690113   -0.625572
     56          6           0       13.771997   -0.006141    0.110596
     57          6           0       15.263328   -0.194047   -0.377787
     58          6           0       15.624522   -1.635105   -0.509448
     59          6           0       16.253638    0.599412    0.337829
     60          6           0       17.658135    0.677966   -0.258557
     61          6           0       18.529564    1.521709    0.677732
     62          6           0       20.101142    1.666199    0.257460
     63          6           0       20.195264    2.234189   -1.147325
     64          6           0       21.001688    2.420284    1.236798
     65          1           0       -3.982952    3.610399    1.731127
     66          1           0       -9.943024    4.220535   -0.401263
     67          1           0      -10.476423   -2.385283   -1.338085
     68          1           0       -2.703735   -1.154383    2.267319
     69          1           0       -2.230442    1.563569    1.560888
     70          1           0       -1.882022    0.829851    3.667907
     71          1           0       -3.200441    2.130964    3.641825
     72          1           0       -3.799993    0.306990    3.702743
     73          1           0       -2.050725   -1.883479   -0.070401
     74          1           0       -2.457042   -0.048767   -0.677375
     75          1           0       -0.417446    0.530597    0.699327
     76          1           0       -0.471642   -0.875482    1.713789
     77          1           0       -4.328226    6.076753    0.815715
     78          1           0       -5.897644    6.976109    1.718243
     79          1           0       -5.145290    5.811848    2.562075
     80          1           0       -7.934925    6.831223    1.016798
     81          1           0       -9.476374    5.952896   -1.715056
     82          1           0       -9.558410    7.546580   -0.766343
     83          1           0      -12.527550    3.160648   -0.033787
     84          1           0      -11.791105    3.678930   -1.743856
     85          1           0      -13.098280    2.380956   -1.760115
     86          1           0      -12.634743   -1.196638   -1.079630
     87          1           0      -13.633543    0.017524   -1.318902
     88          1           0      -12.635207    0.298404   -3.856079
     89          1           0      -11.718233   -1.255093   -3.356285
     90          1           0      -13.476124   -1.210736   -3.567041
     91          1           0       -9.954683   -4.804922   -0.733194
     92          1           0       -8.927256   -4.572981   -2.238141
     93          1           0       -8.043994   -5.346222   -0.982215
     94          1           0       -3.676099   -3.398411   -0.199786
     95          1           0       -1.892793   -6.063251    2.504726
     96          1           0       -1.984212   -4.855886    3.538474
     97          1           0       -3.512079   -5.793456    3.243518
     98          1           0        2.393294   -2.157649   -1.279936
     99          1           0        2.521029   -0.511384   -2.078710
    100          1           0        4.115837   -1.240634    0.497536
    101          1           0        5.149148    1.673780   -2.305861
    102          1           0        5.782691    0.342466   -3.258113
    103          1           0        3.724237    0.521749   -2.671220
    104          1           0        6.440088    1.150868   -0.056716
    105          1           0        6.357198   -0.432162    0.787410
    106          1           0        7.387669   -1.477091   -1.139920
    107          1           0        7.625083   -0.175695   -2.084483
    108          1           0        9.069350    0.842444   -0.077498
    109          1           0        8.677970   -0.804141    0.640064
    110          1           0       10.191062    0.041842   -1.967264
    111          1           0        8.983427   -2.387744   -1.697836
    112          1           0       10.875403   -2.748244   -1.786201
    113          1           0        9.991869   -2.540900   -0.283273
    114          1           0       11.090277    0.770498   -0.021625
    115          1           0       11.122182   -0.691867    0.698041
    116          1           0       12.785153   -1.838463   -0.647020
    117          1           0       12.545316   -0.577208   -1.860450
    118          1           0       13.625548    1.171861    0.001580
    119          1           0       13.874340   -0.272663    1.131923
    120          1           0       15.072849    0.087648   -1.493355
    121          1           0       14.847760   -2.224943   -1.027209
    122          1           0       16.595632   -1.772113   -0.838814
    123          1           0       15.647249   -2.085611    0.450367
    124          1           0       15.954533    1.680168    0.565723
    125          1           0       16.419641    0.251089    1.399248
    126          1           0       17.948104   -0.322284   -0.387466
    127          1           0       17.785099    1.052601   -1.331944
    128          1           0       18.301998    2.655877    0.645243
    129          1           0       18.402109    1.199766    1.747207
    130          1           0       20.294816    0.681943    0.041145
    131          1           0       19.915865    3.148369   -1.131120
    132          1           0       21.258698    2.483125   -1.522642
    133          1           0       19.631842    1.643060   -1.920119
    134          1           0       20.823499    2.046373    2.317449
    135          1           0       21.985381    2.420557    1.022294
    136          1           0       20.623074    3.537084    1.274448
    137          1           0       -6.924494    1.810374    0.241190
    138          1           0       -7.551728   -0.259430   -0.133797
 ---------------------------------------------------------------------

 SCF Done:  E(RB3LYP) =  -2733.02453608     A.U. after   17 cycles

 Excitation energies and oscillator strengths:

 Excited State   1:      Singlet-A      1.9943 eV  621.70 nm  f=0.1493  <S**2>=0.000
     235 -> 238       -0.28376
     236 -> 237        0.64460
 This state for optimization and/or second-order correction.
 Total Energy, E(TD-HF/TD-DFT) =  -2732.95124745
 Copying the excited state density for this state as the 1-particle RhoCI density.

 The electronic state is 1-A.
 Alpha  occ. eigenvalues --  -19.17713 -19.16798 -19.15155 -19.11936 -19.11424
 Alpha  occ. eigenvalues --  -14.36989 -14.36609 -14.33127 -14.30053 -10.32810
 Alpha  occ. eigenvalues --  -10.30524 -10.27874 -10.24969 -10.24104 -10.23886
 Alpha  occ. eigenvalues --  -10.23875 -10.23613 -10.23331 -10.23053 -10.23009
 Alpha  occ. eigenvalues --  -10.22471 -10.22051 -10.21642 -10.21569 -10.21521
 Alpha  occ. eigenvalues --  -10.21498 -10.21433 -10.21343 -10.21318 -10.21164
 Alpha  occ. eigenvalues --  -10.21145 -10.21105 -10.21099 -10.20916 -10.20730
 Alpha  occ. eigenvalues --  -10.20557 -10.20312 -10.20191 -10.20142 -10.20102
 Alpha  occ. eigenvalues --  -10.20074 -10.19880 -10.19658 -10.19535 -10.19481
 Alpha  occ. eigenvalues --  -10.19477 -10.19049 -10.19018 -10.18876 -10.18814
 Alpha  occ. eigenvalues --  -10.18761 -10.18665 -10.18541 -10.18516 -10.18399
 Alpha  occ. eigenvalues --  -10.18393 -10.18212 -10.18145 -10.18033 -10.17844
 Alpha  occ. eigenvalues --  -10.17600 -10.16511 -10.16355 -10.15963  -1.09755
 Alpha  occ. eigenvalues --   -1.08960  -1.02235  -1.00755  -0.98136  -0.97989
 Alpha  occ. eigenvalues --   -0.96853  -0.93619  -0.93357  -0.84888  -0.83768
 Alpha  occ. eigenvalues --   -0.82243  -0.82181  -0.81763  -0.81599  -0.81280
 Alpha  occ. eigenvalues --   -0.80765  -0.79920  -0.79692  -0.78298  -0.77784
 Alpha  occ. eigenvalues --   -0.77184  -0.76361  -0.75633  -0.75291  -0.74521
 Alpha  occ. eigenvalues --   -0.73669  -0.73352  -0.72909  -0.71746  -0.71088
 Alpha  occ. eigenvalues --   -0.70268  -0.69701  -0.68847  -0.68531  -0.67981
 Alpha  occ. eigenvalues --   -0.67261  -0.67016  -0.66686  -0.65817  -0.64658
 Alpha  occ. eigenvalues --   -0.63443  -0.63021  -0.62604  -0.62485  -0.61604
 Alpha  occ. eigenvalues --   -0.60866  -0.59717  -0.58719  -0.58232  -0.57295
 Alpha  occ. eigenvalues --   -0.57170  -0.56493  -0.56339  -0.55698  -0.55364
 Alpha  occ. eigenvalues --   -0.55184  -0.55120  -0.54287  -0.53675  -0.53257
 Alpha  occ. eigenvalues --   -0.52734  -0.51994  -0.51746  -0.50899  -0.50701
 Alpha  occ. eigenvalues --   -0.49811  -0.49646  -0.49231  -0.49056  -0.48714
 Alpha  occ. eigenvalues --   -0.47900  -0.47706  -0.47491  -0.47284  -0.47152
 Alpha  occ. eigenvalues --   -0.46755  -0.46662  -0.46412  -0.46236  -0.45923
 Alpha  occ. eigenvalues --   -0.45623  -0.45552  -0.45415  -0.45066  -0.44796
 Alpha  occ. eigenvalues --   -0.44733  -0.44584  -0.44398  -0.44270  -0.43784
 Alpha  occ. eigenvalues --   -0.43577  -0.42899  -0.42778  -0.42733  -0.42654
 Alpha  occ. eigenvalues --   -0.42293  -0.42180  -0.41925  -0.41789  -0.41415
 Alpha  occ. eigenvalues --   -0.41303  -0.41170  -0.40825  -0.40636  -0.40548
 Alpha  occ. eigenvalues --   -0.40391  -0.40251  -0.40073  -0.39969  -0.39513
 Alpha  occ. eigenvalues --   -0.39405  -0.39066  -0.38981  -0.38643  -0.38400
 Alpha  occ. eigenvalues --   -0.38270  -0.38253  -0.38040  -0.37967  -0.37752
 Alpha  occ. eigenvalues --   -0.37622  -0.37392  -0.37351  -0.37181  -0.36930
 Alpha  occ. eigenvalues --   -0.36788  -0.36279  -0.36069  -0.35767  -0.35607
 Alpha  occ. eigenvalues --   -0.35432  -0.35324  -0.35225  -0.34931  -0.34870
 Alpha  occ. eigenvalues --   -0.34747  -0.34707  -0.34378  -0.34054  -0.33957
 Alpha  occ. eigenvalues --   -0.33849  -0.33631  -0.33022  -0.32758  -0.32321
 Alpha  occ. eigenvalues --   -0.32250  -0.31935  -0.31796  -0.31648  -0.31538
 Alpha  occ. eigenvalues --   -0.30782  -0.30606  -0.30428  -0.29931  -0.29868
 Alpha  occ. eigenvalues --   -0.29788  -0.29266  -0.28779  -0.28280  -0.27701
 Alpha  occ. eigenvalues --   -0.27556  -0.27473  -0.26836  -0.26284  -0.25951
 Alpha  occ. eigenvalues --   -0.24563  -0.24359  -0.23919  -0.22612  -0.20160
 Alpha  occ. eigenvalues --   -0.18891
 Alpha virt. eigenvalues --   -0.10311  -0.08410  -0.05250  -0.02523  -0.01778
 Alpha virt. eigenvalues --   -0.01173  -0.00231   0.00795   0.01262   0.03195
 Alpha virt. eigenvalues --    0.03447   0.03812   0.04441   0.04586   0.04740

 Mulliken charges:
               1
     1  C    0.032955
     2  C   -0.109773
     3  C   -0.093125
     4  C   -0.051763
     5  N   -0.235629
     6  C    0.000734
     7  C   -0.119320
     8  C    0.007187
     9  C    0.034775
    10  C   -0.003356
    11  C    0.107771
    12  C   -0.048564
    13  C    0.227916
    14  O   -0.184157
    15  O   -0.351331
    16  N   -0.050874
    17  C    0.132182
    18  C   -0.041464
    19  C   -0.047695
    20  C    0.114271
    21  C   -0.035558
    22  C   -0.008428
    23  C   -0.060533
    24  N   -0.224705
    25  C    0.104570
    26  C   -0.217247
    27  C   -0.038352
    28  C    0.075902
    29  C    0.058672
    30  C    0.058280
    31  C    0.030766
    32  N   -0.053343
    33  C    0.029619
    34  C   -0.190301
    35  C    0.046812
    36  C    0.059166
    37  C    0.129159
    38  C    0.064170
    39  O   -0.271049
    40  C   -0.001389
    41  C    0.179258
    42  O   -0.189917
    43  O   -0.319082
    44  C    0.259039
    45  C    0.192866
    46  C   -0.027600
    47  C   -0.107691
    48  C   -0.005859
    49  C    0.023991
    50  C    0.163073
    51  C   -0.082740
    52  C   -0.129779
    53  C    0.078822
    54  C    0.194267
    55  C   -0.067608
    56  C    0.036046
    57  C   -0.066611
    58  C    0.095459
    59  C    0.023923
    60  C    0.050316
    61  C   -0.044177
    62  C   -0.033367
    63  C    0.056326
    64  C    0.057493
    65  H   -0.014214
    66  H   -0.035882
    67  H   -0.014194
    68  H    0.042301
    69  H   -0.032655
    70  H    0.027938
    71  H    0.010660
    72  H    0.055220
    73  H    0.050372
    74  H    0.016084
    75  H   -0.007562
    76  H    0.034395
    77  H    0.069995
    78  H    0.027135
    79  H    0.030080
    80  H    0.003950
    81  H    0.057185
    82  H    0.028201
    83  H    0.045988
    84  H    0.027942
    85  H    0.024920
    86  H   -0.012791
    87  H   -0.003930
    88  H    0.020460
    89  H    0.016859
    90  H    0.002430
    91  H    0.058380
    92  H    0.025390
    93  H    0.028501
    94  H    0.057870
    95  H    0.006064
    96  H   -0.026898
    97  H    0.045247
    98  H    0.051530
    99  H    0.017938
   100  H   -0.018505
   101  H    0.017209
   102  H    0.064830
   103  H    0.037012
   104  H    0.008703
   105  H    0.002048
   106  H   -0.034224
   107  H   -0.023228
   108  H   -0.000343
   109  H   -0.012189
   110  H   -0.014605
   111  H    0.014573
   112  H    0.036463
   113  H   -0.025782
   114  H   -0.026622
   115  H   -0.086465
   116  H    0.008867
   117  H    0.001602
   118  H    0.010236
   119  H   -0.016260
   120  H   -0.008135
   121  H    0.005499
   122  H   -0.014714
   123  H   -0.036401
   124  H   -0.008449
   125  H   -0.011700
   126  H   -0.026778
   127  H    0.003468
   128  H    0.003942
   129  H    0.002302
   130  H   -0.036378
   131  H   -0.066016
   132  H   -0.004506
   133  H    0.023060
   134  H    0.015054
   135  H   -0.006045
   136  H    0.010363
   137  H    0.118465
   138  H    0.145342
 Sum of Mulliken charges =  -0.00000

 Dipole moment (field-independent basis, Debye):
    X=              2.2933    Y=              5.1922    Z=             -0.0982  Tot=              5.6769
 Quadrupole moment (field-independent basis, Debye-Ang):
   XX=           -353.5909   YY=           -387.0298   ZZ=           -396.0315
   XY=            -30.1398   XZ=             18.9779   YZ=              2.8177

 Normal termination of Gaussian 16 at Fri Aug 16 09:21:41 2019.
