 Gaussian 16, Revision A.03,
 Gaussian 16:  ES64L-G16RevA.03 25-Dec-2016

 --------------------------
 # td=(NStates=1) B3LYP/SVP
 --------------------------

 --
 TD
 --
 Symbolic Z-matrix:
 Charge =  0 Multiplicity = 1

                         Standard orientation:
 ---------------------------------------------------------------------
 Center     Atomic      Atomic             Coordinates (Angstroms)
 Number     Number       Type             X           Y           Z
 ---------------------------------------------------------------------
      1          6           0       -5.178346   -1.963371    0.453673
      2          6           0       -4.684101    2.697493    1.388737
      3          6           0       -9.300681    3.516544   -0.270705
      4          6           0       -9.848667   -1.336656   -0.889403
      5          7           0       -5.111278    0.380083    0.827019
      6          6           0       -4.589269   -0.795219    0.843547
      7          6           0       -3.103550   -0.686322    1.237583
      8          6           0       -3.031692    0.687404    1.888502
      9          6           0       -4.362129    1.331617    1.332527
     10          6           0       -2.878604    0.817313    3.347995
     11          6           0       -2.073390   -0.911646    0.055769
     12          6           0       -0.636876   -0.928519    0.634418
     13          6           0        0.369624   -1.223450   -0.427094
     14          8           0        0.072446   -1.723058   -1.499099
     15          8           0        1.591862   -0.807028   -0.155278
     16          7           0       -6.972247    2.799706    0.491072
     17          6           0       -5.933365    3.394241    1.061891
     18          6           0       -6.116607    4.842933    1.063322
     19          6           0       -7.343038    5.029695    0.576534
     20          6           0       -7.897522    3.778693    0.245392
     21          6           0       -5.079426    5.876344    1.614309
     22          6           0       -7.929284    6.308444    0.365971
     23          6           0       -8.922066    6.724486   -0.482509
     24          7           0       -9.203604    0.993744   -0.471692
     25          6           0       -9.849757    2.283263   -0.540353
     26          6           0      -11.270278    2.030673   -1.040156
     27          6           0      -11.422455    0.689340   -1.216274
     28          6           0      -10.108680    0.089629   -0.809392
     29          6           0      -12.213117    3.203078   -1.270363
     30          6           0      -12.686821   -0.013813   -1.694099
     31          6           0      -12.519619   -0.424328   -3.219789
     32          7           0       -7.581751   -1.203184   -0.164235
     33          6           0       -8.651055   -1.944690   -0.581642
     34          6           0       -8.230246   -3.336272   -0.706287
     35          6           0       -6.974742   -3.398588   -0.256385
     36          6           0       -6.556624   -2.038985    0.072270
     37          6           0       -9.181051   -4.449585   -1.087518
     38          6           0       -5.824201   -4.272413   -0.049247
     39          8           0       -5.772904   -5.461257   -0.198503
     40          6           0       -4.576855   -3.456743    0.531989
     41          6           0       -3.958603   -3.895695    1.777377
     42          8           0       -4.128679   -3.473291    2.855709
     43          8           0       -3.206583   -4.956226    1.490998
     44          6           0       -2.629169   -5.509773    2.741908
     45          6           0        2.544889   -1.183722   -1.064039
     46          6           0        3.908181   -0.822953   -0.444289
     47          6           0        4.947023   -0.218223   -1.025852
     48          6           0        4.872452    0.290273   -2.433200
     49          6           0        6.276721   -0.005274   -0.369956
     50          6           0        7.543263   -0.494460   -1.079847
     51          6           0        8.778070   -0.262716   -0.201664
     52          6           0       10.095035   -0.872432   -0.763586
     53          6           0       10.059199   -2.363068   -1.042785
     54          6           0       11.370487   -0.294688   -0.021968
     55          6           0       12.763059   -0.669648   -0.632186
     56          6           0       13.829009    0.066073    0.167612
     57          6           0       15.377979   -0.192053   -0.299892
     58          6           0       15.691729   -1.700310   -0.211619
     59          6           0       16.230245    0.766752    0.389975
     60          6           0       17.615322    0.822440   -0.181917
     61          6           0       18.431426    1.862582    0.471793
     62          6           0       19.969836    1.851181    0.177246
     63          6           0       20.338067    2.275669   -1.408292
     64          6           0       20.678421    2.796688    1.064292
     65          1           0       -4.035882    3.354054    1.809946
     66          1           0       -9.921565    4.411669   -0.379683
     67          1           0      -10.644579   -1.979190   -1.254383
     68          1           0       -2.946158   -1.528042    2.056599
     69          1           0       -2.098112    1.268701    1.595902
     70          1           0       -1.980124    0.116346    3.614937
     71          1           0       -2.704126    1.819512    3.780040
     72          1           0       -3.849671    0.506462    3.848845
     73          1           0       -2.258637   -1.951037   -0.450318
     74          1           0       -2.301131   -0.039117   -0.870095
     75          1           0       -0.417028    0.051720    1.178638
     76          1           0       -0.601679   -1.627475    1.461449
     77          1           0       -4.051751    5.598294    1.213326
     78          1           0       -5.253746    7.033722    0.954430
     79          1           0       -4.909882    6.000029    2.821774
     80          1           0       -7.568175    7.031612    1.038336
     81          1           0       -9.409357    6.147089   -1.322952
     82          1           0       -9.289581    7.767863   -0.389773
     83          1           0      -12.196956    3.716377   -0.307910
     84          1           0      -11.719642    4.006329   -2.095631
     85          1           0      -13.058485    2.774577   -1.696343
     86          1           0      -13.014942   -0.836635   -1.159241
     87          1           0      -13.468093    0.813583   -1.531314
     88          1           0      -12.212872    0.458531   -3.963588
     89          1           0      -11.781614   -1.194468   -3.309129
     90          1           0      -13.456145   -0.865722   -3.780892
     91          1           0       -9.999145   -4.551443   -0.494277
     92          1           0       -9.573394   -4.184063   -2.118728
     93          1           0       -8.535888   -5.385868   -1.216420
     94          1           0       -3.859723   -3.445087   -0.140975
     95          1           0       -1.991505   -6.234198    2.177048
     96          1           0       -1.756594   -4.889355    3.188314
     97          1           0       -3.282138   -6.075093    3.344988
     98          1           0        2.409765   -2.198031   -1.514715
     99          1           0        2.417018   -0.414336   -1.730652
    100          1           0        3.993611   -1.041755    0.699518
    101          1           0        5.181455    1.319781   -2.729273
    102          1           0        5.716911   -0.287504   -3.196614
    103          1           0        3.907685    0.007777   -2.936170
    104          1           0        6.366003    1.223241   -0.159092
    105          1           0        6.224267   -0.499225    0.636913
    106          1           0        7.511459   -1.607139   -1.485285
    107          1           0        7.663196    0.096828   -2.066032
    108          1           0        8.846154    0.845437    0.054800
    109          1           0        8.699215   -0.773199    0.831774
    110          1           0       10.288732   -0.282582   -1.713542
    111          1           0        9.186906   -2.642704   -1.367438
    112          1           0       11.010914   -2.779240   -1.707657
    113          1           0       10.227589   -2.766067   -0.066060
    114          1           0       11.157990    0.749194    0.141269
    115          1           0       11.357961   -0.931892    0.888243
    116          1           0       12.961151   -1.779824   -0.509538
    117          1           0       12.796902   -0.153044   -1.799383
    118          1           0       13.534026    1.212188    0.220141
    119          1           0       13.683500   -0.375582    1.228357
    120          1           0       15.501498   -0.184115   -1.460141
    121          1           0       14.885624   -2.316934   -0.560994
    122          1           0       16.695261   -1.899665   -0.676548
    123          1           0       16.101799   -2.067532    0.818645
    124          1           0       15.647157    1.728208    0.343623
    125          1           0       16.105565    0.545653    1.498901
    126          1           0       17.828706   -0.252862   -0.426065
    127          1           0       17.444997    1.107976   -1.242208
    128          1           0       18.187900    2.878074    0.221933
    129          1           0       18.398192    1.841483    1.612137
    130          1           0       20.477709    0.811807    0.354813
    131          1           0       19.704231    3.200940   -1.827935
    132          1           0       21.188905    2.091861   -1.639058
    133          1           0       19.892538    1.372836   -2.026514
    134          1           0       20.330844    2.476991    2.266510
    135          1           0       21.842476    2.616036    1.004054
    136          1           0       20.467145    3.941574    0.879576
    137          1           0       -7.176895    1.753040    0.239119
    138          1           0       -7.653632   -0.286343   -0.122032
 ---------------------------------------------------------------------

 SCF Done:  E(RB3LYP) =  -2733.06546317     A.U. after   17 cycles

 Excitation energies and oscillator strengths:

 Excited State   1:      Singlet-A      2.0384 eV  608.25 nm  f=0.2175  <S**2>=0.000
     235 -> 237       -0.11038
     235 -> 238       -0.24196
     236 -> 237        0.64713
 This state for optimization and/or second-order correction.
 Total Energy, E(TD-HF/TD-DFT) =  -2732.99055408
 Copying the excited state density for this state as the 1-particle RhoCI density.

 The electronic state is 1-A.
 Alpha  occ. eigenvalues --  -19.18448 -19.18182 -19.12963 -19.12553 -19.12008
 Alpha  occ. eigenvalues --  -14.37866 -14.37043 -14.31106 -14.30808 -10.31438
 Alpha  occ. eigenvalues --  -10.30932 -10.28753 -10.25085 -10.24233 -10.24221
 Alpha  occ. eigenvalues --  -10.23608 -10.23560 -10.23522 -10.23428 -10.22365
 Alpha  occ. eigenvalues --  -10.22267 -10.22068 -10.21994 -10.21826 -10.21784
 Alpha  occ. eigenvalues --  -10.20950 -10.20871 -10.20599 -10.20570 -10.20545
 Alpha  occ. eigenvalues --  -10.20487 -10.20366 -10.20282 -10.20244 -10.20229
 Alpha  occ. eigenvalues --  -10.20169 -10.20166 -10.20150 -10.20134 -10.20108
 Alpha  occ. eigenvalues --  -10.20044 -10.20013 -10.19911 -10.19870 -10.19791
 Alpha  occ. eigenvalues --  -10.19641 -10.19589 -10.19554 -10.19526 -10.19469
 Alpha  occ. eigenvalues --  -10.19317 -10.19223 -10.19125 -10.18959 -10.18912
 Alpha  occ. eigenvalues --  -10.18885 -10.18835 -10.18460 -10.18423 -10.18422
 Alpha  occ. eigenvalues --  -10.18149 -10.18121 -10.17825 -10.17670  -1.12321
 Alpha  occ. eigenvalues --   -1.11019  -1.04270  -1.01989  -1.00982  -1.00340
 Alpha  occ. eigenvalues --   -0.99389  -0.96088  -0.92428  -0.84722  -0.82548
 Alpha  occ. eigenvalues --   -0.82529  -0.82231  -0.81934  -0.80963  -0.80472
 Alpha  occ. eigenvalues --   -0.79505  -0.79265  -0.79145  -0.78620  -0.78037
 Alpha  occ. eigenvalues --   -0.76977  -0.76322  -0.75487  -0.74850  -0.73918
 Alpha  occ. eigenvalues --   -0.73545  -0.73182  -0.72672  -0.72131  -0.70682
 Alpha  occ. eigenvalues --   -0.69538  -0.69137  -0.68108  -0.68102  -0.67833
 Alpha  occ. eigenvalues --   -0.67704  -0.67051  -0.66645  -0.66257  -0.65203
 Alpha  occ. eigenvalues --   -0.64176  -0.63765  -0.62242  -0.61813  -0.61669
 Alpha  occ. eigenvalues --   -0.60805  -0.59482  -0.58614  -0.58110  -0.57099
 Alpha  occ. eigenvalues --   -0.56748  -0.56037  -0.55836  -0.55753  -0.55308
 Alpha  occ. eigenvalues --   -0.54721  -0.54224  -0.53747  -0.53535  -0.53107
 Alpha  occ. eigenvalues --   -0.52795  -0.52475  -0.52147  -0.51850  -0.51349
 Alpha  occ. eigenvalues --   -0.50830  -0.50181  -0.49828  -0.48705  -0.48402
 Alpha  occ. eigenvalues --   -0.47905  -0.47886  -0.47402  -0.47352  -0.46954
 Alpha  occ. eigenvalues --   -0.46850  -0.46725  -0.46379  -0.46307  -0.45972
 Alpha  occ. eigenvalues --   -0.45588  -0.45402  -0.45203  -0.45032  -0.44804
 Alpha  occ. eigenvalues --   -0.44466  -0.44285  -0.44234  -0.43866  -0.43633
 Alpha  occ. eigenvalues --   -0.43566  -0.43116  -0.42954  -0.42705  -0.42544
 Alpha  occ. eigenvalues --   -0.42416  -0.42283  -0.42036  -0.41639  -0.41370
 Alpha  occ. eigenvalues --   -0.40916  -0.40774  -0.40529  -0.40459  -0.40193
 Alpha  occ. eigenvalues --   -0.40057  -0.39655  -0.39533  -0.39440  -0.39345
 Alpha  occ. eigenvalues --   -0.39168  -0.39081  -0.38729  -0.38591  -0.38514
 Alpha  occ. eigenvalues --   -0.38371  -0.38226  -0.38127  -0.37785  -0.37528
 Alpha  occ. eigenvalues --   -0.37506  -0.37469  -0.37306  -0.37058  -0.36750
 Alpha  occ. eigenvalues --   -0.36641  -0.36488  -0.36342  -0.36152  -0.36026
 Alpha  occ. eigenvalues --   -0.35934  -0.35602  -0.35489  -0.34847  -0.34662
 Alpha  occ. eigenvalues --   -0.34601  -0.34395  -0.34323  -0.33856  -0.33738
 Alpha  occ. eigenvalues --   -0.33475  -0.32967  -0.32736  -0.32550  -0.32244
 Alpha  occ. eigenvalues --   -0.32228  -0.32079  -0.31794  -0.31443  -0.31271
 Alpha  occ. eigenvalues --   -0.31234  -0.30747  -0.30558  -0.30018  -0.29691
 Alpha  occ. eigenvalues --   -0.29595  -0.28772  -0.28277  -0.28108  -0.28090
 Alpha  occ. eigenvalues --   -0.28036  -0.27394  -0.26935  -0.26692  -0.25692
 Alpha  occ. eigenvalues --   -0.25271  -0.24573  -0.24181  -0.23224  -0.20118
 Alpha  occ. eigenvalues --   -0.18447
 Alpha virt. eigenvalues --   -0.10275  -0.07219  -0.04267  -0.02096  -0.00204
 Alpha virt. eigenvalues --   -0.00061   0.00261   0.00521   0.02863   0.03387
 Alpha virt. eigenvalues --    0.03782   0.03875   0.04083   0.04208   0.04385

 Mulliken charges:
               1
     1  C   -0.050558
     2  C    0.004923
     3  C   -0.068004
     4  C   -0.087521
     5  N   -0.076900
     6  C   -0.105681
     7  C   -0.095425
     8  C   -0.042794
     9  C   -0.009560
    10  C    0.038168
    11  C   -0.029124
    12  C    0.043416
    13  C    0.170313
    14  O   -0.251708
    15  O   -0.265402
    16  N   -0.037692
    17  C    0.023863
    18  C   -0.097882
    19  C    0.086954
    20  C    0.004417
    21  C   -0.046212
    22  C   -0.053950
    23  C   -0.060774
    24  N   -0.273335
    25  C    0.104679
    26  C   -0.146454
    27  C   -0.118773
    28  C    0.057320
    29  C    0.103899
    30  C    0.106894
    31  C   -0.052482
    32  N    0.085832
    33  C    0.061836
    34  C   -0.189387
    35  C    0.034592
    36  C    0.072633
    37  C    0.126793
    38  C    0.047676
    39  O   -0.138049
    40  C    0.144094
    41  C    0.165342
    42  O   -0.187410
    43  O   -0.304644
    44  C    0.170934
    45  C    0.325978
    46  C   -0.153403
    47  C   -0.074288
    48  C   -0.021358
    49  C    0.045607
    50  C   -0.022894
    51  C   -0.010790
    52  C   -0.085703
    53  C    0.116651
    54  C    0.018970
    55  C   -0.017302
    56  C   -0.036345
    57  C   -0.107248
    58  C    0.003776
    59  C    0.048064
    60  C    0.103661
    61  C    0.089760
    62  C   -0.133777
    63  C    0.082152
    64  C   -0.045934
    65  H   -0.083101
    66  H   -0.025187
    67  H   -0.032244
    68  H    0.029943
    69  H   -0.000050
    70  H    0.019794
    71  H    0.016335
    72  H    0.018369
    73  H    0.045737
    74  H    0.046700
    75  H    0.031173
    76  H    0.020509
    77  H    0.041954
    78  H    0.047308
    79  H    0.071118
    80  H   -0.014246
    81  H    0.040093
    82  H    0.025766
    83  H    0.041924
    84  H    0.038927
    85  H    0.000014
    86  H   -0.008494
    87  H    0.010470
    88  H    0.030908
    89  H    0.008726
    90  H    0.020592
    91  H    0.014729
    92  H    0.022066
    93  H    0.049722
    94  H   -0.024135
    95  H    0.020039
    96  H    0.050066
    97  H    0.047590
    98  H    0.053660
    99  H   -0.024506
   100  H    0.006891
   101  H    0.032991
   102  H    0.024036
   103  H    0.020002
   104  H    0.026472
   105  H   -0.001997
   106  H    0.028599
   107  H    0.011806
   108  H    0.002678
   109  H   -0.004171
   110  H   -0.022416
   111  H   -0.043160
   112  H    0.037026
   113  H   -0.015802
   114  H   -0.003071
   115  H   -0.015789
   116  H    0.024307
   117  H    0.015142
   118  H    0.013418
   119  H    0.003721
   120  H   -0.001894
   121  H    0.016421
   122  H    0.005154
   123  H   -0.007040
   124  H   -0.015704
   125  H   -0.008735
   126  H   -0.017131
   127  H   -0.019537
   128  H   -0.012051
   129  H   -0.002653
   130  H    0.008777
   131  H    0.040266
   132  H   -0.077740
   133  H   -0.007943
   134  H    0.016449
   135  H    0.024748
   136  H    0.030095
   137  H    0.201544
   138  H    0.043594
 Sum of Mulliken charges =  -0.00000

 Dipole moment (field-independent basis, Debye):
    X=              1.5624    Y=              2.3314    Z=              0.4963  Tot=              2.8500
 Quadrupole moment (field-independent basis, Debye-Ang):
   XX=           -357.9901   YY=           -385.1355   ZZ=           -398.4567
   XY=            -16.0631   XZ=              4.3330   YZ=             -4.6303

 Normal termination of Gaussian 16 at Sun Aug 25 03:30:44 2019.
