 Gaussian 16, Revision A.03,
 Gaussian 16:  ES64L-G16RevA.03 25-Dec-2016

 --------------------------
 # td=(NStates=1) B3LYP/SVP
 --------------------------

 --
 TD
 --
 Symbolic Z-matrix:
 Charge =  0 Multiplicity = 1

                         Standard orientation:
 ---------------------------------------------------------------------
 Center     Atomic      Atomic             Coordinates (Angstroms)
 Number     Number       Type             X           Y           Z
 ---------------------------------------------------------------------
      1          6           0       -5.233863   -1.962048    0.374500
      2          6           0       -4.722946    2.666037    1.560384
      3          6           0       -9.210300    3.553568   -0.170899
      4          6           0       -9.793667   -1.172353   -1.102327
      5          7           0       -5.131876    0.376220    0.861600
      6          6           0       -4.525884   -0.784235    0.850284
      7          6           0       -3.125001   -0.723942    1.285667
      8          6           0       -3.069504    0.754534    1.899204
      9          6           0       -4.424228    1.240665    1.380785
     10          6           0       -3.029339    0.763106    3.421879
     11          6           0       -2.082272   -0.851065    0.154394
     12          6           0       -0.623285   -1.099083    0.570874
     13          6           0        0.331901   -1.231939   -0.594296
     14          8           0       -0.016226   -1.710282   -1.676609
     15          8           0        1.631283   -0.950695   -0.284192
     16          7           0       -6.990589    2.749741    0.473184
     17          6           0       -5.835577    3.374532    1.052963
     18          6           0       -6.065056    4.771914    1.108042
     19          6           0       -7.368149    4.983603    0.674038
     20          6           0       -7.944071    3.797013    0.313502
     21          6           0       -5.046484    5.630771    1.802892
     22          6           0       -7.847280    6.365332    0.653138
     23          6           0       -8.826676    6.837550   -0.160838
     24          7           0       -9.112163    1.123751   -0.570302
     25          6           0       -9.760019    2.337857   -0.544654
     26          6           0      -11.123625    2.202556   -1.063882
     27          6           0      -11.313719    0.841412   -1.374428
     28          6           0      -10.062075    0.100828   -0.975419
     29          6           0      -12.111615    3.245090   -1.300068
     30          6           0      -12.557763    0.098052   -1.785471
     31          6           0      -12.584261   -0.095914   -3.317828
     32          7           0       -7.464860   -1.269055   -0.401381
     33          6           0       -8.613596   -1.920643   -0.745685
     34          6           0       -8.331178   -3.418010   -0.717110
     35          6           0       -6.940909   -3.482858   -0.425729
     36          6           0       -6.447395   -2.055349   -0.137458
     37          6           0       -9.180315   -4.486712   -1.029932
     38          6           0       -5.775848   -4.294466   -0.042652
     39          8           0       -5.776399   -5.501224   -0.052152
     40          6           0       -4.674494   -3.428390    0.347422
     41          6           0       -4.006274   -3.932556    1.651810
     42          8           0       -4.060249   -3.414728    2.713529
     43          8           0       -3.249639   -5.039481    1.304284
     44          6           0       -2.636078   -5.662751    2.461932
     45          6           0        2.567495   -1.183834   -1.151924
     46          6           0        3.869995   -0.790420   -0.579123
     47          6           0        4.969563   -0.036639   -1.148480
     48          6           0        5.046970    0.453018   -2.473149
     49          6           0        6.249242    0.126739   -0.298120
     50          6           0        7.461900   -0.591104   -0.699815
     51          6           0        8.721797   -0.298571    0.057774
     52          6           0       10.063635   -0.932648   -0.415624
     53          6           0        9.991163   -2.531225   -0.331127
     54          6           0       11.220204   -0.435102    0.313721
     55          6           0       12.610896   -0.812800   -0.221589
     56          6           0       13.826920   -0.101079    0.461279
     57          6           0       15.134379   -0.354050   -0.060646
     58          6           0       15.798454   -1.834194    0.318385
     59          6           0       16.114442    0.898006    0.345424
     60          6           0       17.667608    0.688941   -0.247125
     61          6           0       18.492583    1.987942    0.183321
     62          6           0       20.042296    2.061538   -0.355041
     63          6           0       20.055881    2.148140   -1.998652
     64          6           0       20.774579    3.296510    0.376195
     65          1           0       -4.030617    3.333375    1.947051
     66          1           0       -9.927492    4.349191   -0.242354
     67          1           0      -10.557841   -1.939375   -1.325408
     68          1           0       -2.806848   -1.274174    2.141487
     69          1           0       -2.052971    1.368903    1.655971
     70          1           0       -2.109625    0.440195    3.667381
     71          1           0       -3.216446    1.630699    3.904255
     72          1           0       -3.771606    0.043667    3.866987
     73          1           0       -2.454134   -1.641363   -0.568751
     74          1           0       -2.019952    0.187053   -0.555600
     75          1           0       -0.389219   -0.202997    1.020958
     76          1           0       -0.589747   -2.018623    1.056514
     77          1           0       -3.962618    5.274202    1.566570
     78          1           0       -5.166620    6.764364    1.607828
     79          1           0       -4.978578    5.657224    2.933215
     80          1           0       -7.841672    7.049248    1.580179
     81          1           0       -9.257913    5.966509   -0.802538
     82          1           0       -9.207528    7.766247    0.076039
     83          1           0      -12.660417    4.023798   -0.513570
     84          1           0      -11.653998    3.891720   -1.999242
     85          1           0      -12.975911    2.819890   -2.104013
     86          1           0      -12.621933   -0.950600   -1.405968
     87          1           0      -13.274401    0.726619   -1.149930
     88          1           0      -12.396671    0.699361   -4.085533
     89          1           0      -11.881977   -0.862338   -3.665992
     90          1           0      -13.466501   -0.599633   -3.802540
     91          1           0       -9.900619   -4.466731   -0.348165
     92          1           0       -9.703604   -4.529742   -2.062407
     93          1           0       -8.455573   -5.231406   -0.889208
     94          1           0       -3.938359   -3.427282   -0.485759
     95          1           0       -1.772290   -6.452605    2.078439
     96          1           0       -1.956508   -5.004498    2.911755
     97          1           0       -3.382963   -6.107429    2.965611
     98          1           0        2.452078   -2.175338   -1.180979
     99          1           0        2.314680   -0.785492   -2.151590
    100          1           0        4.203345   -1.202837    0.485718
    101          1           0        5.348913    1.534139   -2.504498
    102          1           0        6.011567   -0.321664   -3.076635
    103          1           0        4.203433    0.418853   -3.053943
    104          1           0        6.513563    1.199660   -0.336614
    105          1           0        6.160691   -0.105787    0.811998
    106          1           0        7.245296   -1.697952   -0.825925
    107          1           0        7.723701   -0.191488   -1.836131
    108          1           0        8.933173    0.730535   -0.263852
    109          1           0        8.615679   -0.394448    1.187372
    110          1           0       10.005251   -0.396477   -1.509564
    111          1           0        8.975672   -3.146461   -0.818434
    112          1           0       10.853851   -3.260401   -1.023523
    113          1           0        9.819270   -2.832612    0.887364
    114          1           0       11.308184    0.739334    0.206215
    115          1           0       10.873903   -0.582267    1.477233
    116          1           0       12.677084   -2.005209   -0.371355
    117          1           0       12.699041   -0.656215   -1.350976
    118          1           0       13.629790    1.090471    0.629439
    119          1           0       13.806184   -0.331680    1.637015
    120          1           0       14.977565   -0.460168   -1.186130
    121          1           0       14.845426   -2.919013    0.407955
    122          1           0       16.615972   -2.182331   -0.233545
    123          1           0       16.125488   -1.924003    1.546690
    124          1           0       15.814712    2.142990   -0.000939
    125          1           0       16.190543    1.005937    1.602655
    126          1           0       18.047786   -0.376691    0.371944
    127          1           0       17.619383    0.538767   -1.604277
    128          1           0       17.890103    2.859054    0.093631
    129          1           0       18.712328    1.863436    1.379988
    130          1           0       20.473894    1.071937   -0.017540
    131          1           0       19.371946    3.029808   -2.262821
    132          1           0       21.188754    2.301972   -2.203806
    133          1           0       19.617185    1.477637   -2.618870
    134          1           0       20.880498    3.232329    1.490695
    135          1           0       21.757100    3.362310   -0.178218
    136          1           0       20.243361    4.375986    0.054359
    137          1           0       -6.916752    1.710845    0.075284
    138          1           0       -7.495163   -0.281902   -0.193558
 ---------------------------------------------------------------------

 SCF Done:  E(RB3LYP) =  -2732.80371267     A.U. after   18 cycles

 Excitation energies and oscillator strengths:

 Excited State   1:      Singlet-A      2.0625 eV  601.13 nm  f=0.1529  <S**2>=0.000
     235 -> 238        0.33688
     236 -> 237        0.60928
 This state for optimization and/or second-order correction.
 Total Energy, E(TD-HF/TD-DFT) =  -2732.72791700
 Copying the excited state density for this state as the 1-particle RhoCI density.

 The electronic state is 1-A.
 Alpha  occ. eigenvalues --  -19.18031 -19.17722 -19.14153 -19.12930 -19.11306
 Alpha  occ. eigenvalues --  -14.37406 -14.36035 -14.32466 -14.29687 -10.32528
 Alpha  occ. eigenvalues --  -10.32212 -10.27070 -10.24541 -10.24088 -10.23565
 Alpha  occ. eigenvalues --  -10.23433 -10.23424 -10.23239 -10.23214 -10.23184
 Alpha  occ. eigenvalues --  -10.22938 -10.22881 -10.22743 -10.22413 -10.22386
 Alpha  occ. eigenvalues --  -10.21665 -10.21459 -10.21401 -10.21313 -10.21250
 Alpha  occ. eigenvalues --  -10.21221 -10.21158 -10.21126 -10.21044 -10.20980
 Alpha  occ. eigenvalues --  -10.20624 -10.20606 -10.20586 -10.20449 -10.20407
 Alpha  occ. eigenvalues --  -10.20297 -10.20187 -10.20177 -10.20165 -10.20151
 Alpha  occ. eigenvalues --  -10.20106 -10.20063 -10.20042 -10.19987 -10.19945
 Alpha  occ. eigenvalues --  -10.19786 -10.19614 -10.19477 -10.19375 -10.19302
 Alpha  occ. eigenvalues --  -10.19147 -10.19136 -10.19115 -10.19065 -10.18984
 Alpha  occ. eigenvalues --  -10.18795 -10.18738 -10.18274 -10.17164  -1.12426
 Alpha  occ. eigenvalues --   -1.09693  -1.02938  -1.02081  -1.01444  -0.99646
 Alpha  occ. eigenvalues --   -0.98951  -0.95391  -0.90685  -0.85617  -0.83005
 Alpha  occ. eigenvalues --   -0.82167  -0.82068  -0.81460  -0.81301  -0.80769
 Alpha  occ. eigenvalues --   -0.79779  -0.79214  -0.78978  -0.78705  -0.77387
 Alpha  occ. eigenvalues --   -0.77117  -0.76366  -0.75599  -0.74986  -0.74421
 Alpha  occ. eigenvalues --   -0.73938  -0.73136  -0.72284  -0.71871  -0.70409
 Alpha  occ. eigenvalues --   -0.70270  -0.69963  -0.68778  -0.67310  -0.67130
 Alpha  occ. eigenvalues --   -0.66785  -0.65709  -0.65458  -0.64823  -0.64612
 Alpha  occ. eigenvalues --   -0.63822  -0.62803  -0.62506  -0.62098  -0.61382
 Alpha  occ. eigenvalues --   -0.61039  -0.58841  -0.58643  -0.57891  -0.57264
 Alpha  occ. eigenvalues --   -0.57154  -0.56704  -0.55786  -0.55483  -0.55031
 Alpha  occ. eigenvalues --   -0.54588  -0.53945  -0.53652  -0.53342  -0.52954
 Alpha  occ. eigenvalues --   -0.52821  -0.52511  -0.52109  -0.51710  -0.51626
 Alpha  occ. eigenvalues --   -0.50702  -0.50403  -0.49827  -0.49674  -0.49311
 Alpha  occ. eigenvalues --   -0.48727  -0.48353  -0.48059  -0.47794  -0.47680
 Alpha  occ. eigenvalues --   -0.47368  -0.47070  -0.46133  -0.45967  -0.45816
 Alpha  occ. eigenvalues --   -0.45398  -0.45171  -0.45045  -0.44769  -0.44257
 Alpha  occ. eigenvalues --   -0.43850  -0.43799  -0.43610  -0.43545  -0.43214
 Alpha  occ. eigenvalues --   -0.43144  -0.43068  -0.42685  -0.42593  -0.42428
 Alpha  occ. eigenvalues --   -0.42191  -0.41970  -0.41786  -0.41675  -0.41473
 Alpha  occ. eigenvalues --   -0.41244  -0.41017  -0.40619  -0.40469  -0.40167
 Alpha  occ. eigenvalues --   -0.39948  -0.39798  -0.39374  -0.39256  -0.39119
 Alpha  occ. eigenvalues --   -0.39075  -0.38807  -0.38606  -0.38366  -0.38071
 Alpha  occ. eigenvalues --   -0.37882  -0.37731  -0.37536  -0.37434  -0.37316
 Alpha  occ. eigenvalues --   -0.37028  -0.36976  -0.36843  -0.36730  -0.36457
 Alpha  occ. eigenvalues --   -0.36375  -0.36264  -0.36011  -0.35870  -0.35430
 Alpha  occ. eigenvalues --   -0.35165  -0.35038  -0.34905  -0.34784  -0.34657
 Alpha  occ. eigenvalues --   -0.34593  -0.34148  -0.33974  -0.33849  -0.33608
 Alpha  occ. eigenvalues --   -0.33231  -0.32765  -0.32203  -0.32197  -0.31947
 Alpha  occ. eigenvalues --   -0.31794  -0.31584  -0.31498  -0.31200  -0.31105
 Alpha  occ. eigenvalues --   -0.30702  -0.30314  -0.30055  -0.29931  -0.29722
 Alpha  occ. eigenvalues --   -0.29545  -0.29240  -0.28603  -0.28186  -0.27974
 Alpha  occ. eigenvalues --   -0.27699  -0.27627  -0.26661  -0.26045  -0.25078
 Alpha  occ. eigenvalues --   -0.24621  -0.24155  -0.23410  -0.21860  -0.19753
 Alpha  occ. eigenvalues --   -0.18780
 Alpha virt. eigenvalues --   -0.10044  -0.07942  -0.05011  -0.02338  -0.01998
 Alpha virt. eigenvalues --   -0.01114  -0.00726   0.00299   0.01598   0.01821
 Alpha virt. eigenvalues --    0.02555   0.03386   0.03914   0.04076   0.04117

 Mulliken charges:
               1
     1  C    0.028777
     2  C   -0.004548
     3  C   -0.139010
     4  C   -0.060238
     5  N   -0.016202
     6  C   -0.099599
     7  C    0.054354
     8  C   -0.190546
     9  C   -0.008287
    10  C    0.147440
    11  C   -0.076153
    12  C    0.198774
    13  C    0.127039
    14  O   -0.251635
    15  O   -0.260063
    16  N   -0.204084
    17  C    0.061702
    18  C   -0.060134
    19  C    0.041416
    20  C    0.210204
    21  C    0.009500
    22  C   -0.099308
    23  C   -0.022078
    24  N   -0.309727
    25  C    0.090353
    26  C   -0.104898
    27  C   -0.078192
    28  C    0.148273
    29  C    0.004271
    30  C    0.063869
    31  C   -0.008213
    32  N    0.046370
    33  C   -0.029117
    34  C   -0.142172
    35  C   -0.019869
    36  C   -0.015147
    37  C    0.155382
    38  C    0.018667
    39  O   -0.167721
    40  C    0.025684
    41  C    0.198122
    42  O   -0.180242
    43  O   -0.330985
    44  C    0.219074
    45  C    0.369000
    46  C   -0.120838
    47  C   -0.138676
    48  C    0.052029
    49  C    0.082572
    50  C   -0.031277
    51  C    0.021835
    52  C   -0.073329
    53  C   -0.124221
    54  C    0.006228
    55  C    0.008865
    56  C   -0.001222
    57  C    0.009433
    58  C   -0.101840
    59  C   -0.112206
    60  C   -0.090607
    61  C   -0.004903
    62  C   -0.086740
    63  C    0.011168
    64  C   -0.029897
    65  H   -0.071290
    66  H   -0.042006
    67  H   -0.024805
    68  H   -0.002353
    69  H    0.025634
    70  H   -0.022616
    71  H   -0.018299
    72  H    0.018348
    73  H    0.027090
    74  H    0.024085
    75  H   -0.008310
    76  H    0.020218
    77  H    0.038764
    78  H    0.030143
    79  H    0.034870
    80  H    0.031739
    81  H    0.045014
    82  H    0.001636
    83  H    0.057232
    84  H    0.005702
    85  H    0.027907
    86  H    0.007338
    87  H    0.036859
    88  H    0.015979
    89  H   -0.003604
    90  H   -0.002699
    91  H   -0.008931
    92  H    0.045769
    93  H    0.027660
    94  H    0.075016
    95  H    0.036738
    96  H    0.014702
    97  H    0.021818
    98  H   -0.057299
    99  H    0.004283
   100  H    0.014018
   101  H    0.024723
   102  H    0.054067
   103  H   -0.013216
   104  H   -0.012962
   105  H    0.000522
   106  H    0.007620
   107  H   -0.002071
   108  H   -0.006209
   109  H   -0.000202
   110  H    0.007270
   111  H    0.034983
   112  H    0.054411
   113  H    0.039945
   114  H    0.002948
   115  H    0.015348
   116  H    0.010064
   117  H   -0.006205
   118  H    0.017258
   119  H    0.001606
   120  H    0.011399
   121  H    0.025359
   122  H    0.037176
   123  H    0.031318
   124  H    0.035734
   125  H    0.035924
   126  H    0.044665
   127  H    0.035778
   128  H   -0.002728
   129  H    0.009073
   130  H    0.013807
   131  H    0.008665
   132  H    0.029767
   133  H   -0.003972
   134  H    0.040494
   135  H    0.017985
   136  H    0.026601
   137  H    0.206842
   138  H    0.123384
 Sum of Mulliken charges =  -0.00000

 Dipole moment (field-independent basis, Debye):
    X=              2.6283    Y=              3.3824    Z=              1.6257  Tot=              4.5816
 Quadrupole moment (field-independent basis, Debye-Ang):
   XX=           -361.1082   YY=           -389.7367   ZZ=           -394.3067
   XY=            -12.1271   XZ=              4.3236   YZ=              0.9753

 Normal termination of Gaussian 16 at Sun Sep  1 12:24:58 2019.
