 Gaussian 16, Revision A.03,
 Gaussian 16:  ES64L-G16RevA.03 25-Dec-2016

 --------------------------
 # td=(NStates=1) B3LYP/SVP
 --------------------------

 --
 TD
 --
 Symbolic Z-matrix:
 Charge =  0 Multiplicity = 1

                         Standard orientation:
 ---------------------------------------------------------------------
 Center     Atomic      Atomic             Coordinates (Angstroms)
 Number     Number       Type             X           Y           Z
 ---------------------------------------------------------------------
      1          6           0       -5.097342   -1.943844    0.543492
      2          6           0       -4.817015    2.777218    1.573550
      3          6           0       -9.387820    3.308807   -0.319665
      4          6           0       -9.795631   -1.463413   -1.020550
      5          7           0       -5.145665    0.503495    0.725586
      6          6           0       -4.428680   -0.749865    0.760152
      7          6           0       -3.051180   -0.480592    1.303062
      8          6           0       -3.109343    0.886989    1.912425
      9          6           0       -4.386711    1.404843    1.383958
     10          6           0       -3.245383    0.898008    3.473217
     11          6           0       -2.135966   -0.631939    0.201625
     12          6           0       -0.657824   -0.745055    0.512157
     13          6           0        0.339335   -0.881530   -0.500028
     14          8           0        0.057033   -1.366672   -1.574607
     15          8           0        1.553365   -0.604335   -0.162323
     16          7           0       -7.064310    2.658906    0.547328
     17          6           0       -6.029471    3.360906    1.163966
     18          6           0       -6.349667    4.727335    1.173485
     19          6           0       -7.577921    4.876069    0.566546
     20          6           0       -8.098129    3.486682    0.228977
     21          6           0       -5.426518    5.865618    1.678056
     22          6           0       -8.348368    6.229987    0.409753
     23          6           0       -9.364183    6.516338   -0.443678
     24          7           0       -9.172026    0.881877   -0.679782
     25          6           0       -9.975045    2.000073   -0.634640
     26          6           0      -11.301913    1.796964   -1.045768
     27          6           0      -11.392470    0.460842   -1.231869
     28          6           0      -10.001667   -0.095828   -0.963878
     29          6           0      -12.267136    2.856076   -1.289833
     30          6           0      -12.513181   -0.339278   -1.778439
     31          6           0      -12.531094   -0.430804   -3.344092
     32          7           0       -7.399682   -1.298709   -0.254659
     33          6           0       -8.508676   -2.040771   -0.751853
     34          6           0       -8.021949   -3.425848   -0.828286
     35          6           0       -6.711318   -3.479104   -0.365081
     36          6           0       -6.426445   -2.064265   -0.019597
     37          6           0       -8.880252   -4.716650   -1.180660
     38          6           0       -5.597882   -4.327138    0.001781
     39          8           0       -5.377365   -5.568499   -0.035906
     40          6           0       -4.523892   -3.364807    0.541704
     41          6           0       -3.899493   -3.901779    1.891566
     42          8           0       -4.169774   -3.452386    2.963032
     43          8           0       -2.953767   -4.867798    1.655164
     44          6           0       -2.458592   -5.550934    2.939241
     45          6           0        2.645578   -0.762685   -1.127251
     46          6           0        3.911415   -0.477056   -0.538907
     47          6           0        4.933371    0.231931   -1.065621
     48          6           0        4.841358    0.996880   -2.410723
     49          6           0        6.236213    0.483731   -0.362834
     50          6           0        7.440699   -0.311782   -0.997883
     51          6           0        8.793168   -0.235679   -0.137900
     52          6           0       10.050180   -0.703577   -0.897702
     53          6           0        9.886516   -2.154270   -1.194793
     54          6           0       11.349828   -0.406533    0.016480
     55          6           0       12.758151   -0.526974   -0.671532
     56          6           0       13.841822   -0.016307    0.223398
     57          6           0       15.216484   -0.150056   -0.345347
     58          6           0       15.517529   -1.618491   -0.526088
     59          6           0       16.315385    0.518260    0.552132
     60          6           0       17.725067    0.618283   -0.095961
     61          6           0       18.633519    1.688000    0.610677
     62          6           0       20.165562    1.493732    0.077898
     63          6           0       20.203941    2.211116   -1.370076
     64          6           0       21.070581    2.265250    1.081429
     65          1           0       -4.079548    3.364608    1.985896
     66          1           0      -10.156925    4.192760   -0.395942
     67          1           0      -10.679669   -1.957074   -1.358720
     68          1           0       -2.737739   -1.347838    2.016536
     69          1           0       -2.259619    1.519344    1.786162
     70          1           0       -2.282931    0.416893    3.965853
     71          1           0       -3.173135    2.005153    3.793369
     72          1           0       -4.165393    0.256386    3.780598
     73          1           0       -2.297132   -1.748332   -0.173900
     74          1           0       -2.132777    0.235440   -0.726171
     75          1           0       -0.242609    0.133428    1.149705
     76          1           0       -0.750110   -1.726874    1.098813
     77          1           0       -4.485118    5.807071    1.289784
     78          1           0       -5.825560    6.987867    1.738444
     79          1           0       -4.897318    5.315840    2.669343
     80          1           0       -8.055418    6.885190    1.361554
     81          1           0       -9.572133    5.789375   -1.044933
     82          1           0       -9.716154    7.567665   -0.597265
     83          1           0      -12.384974    3.436947   -0.244679
     84          1           0      -12.170276    3.700129   -1.951277
     85          1           0      -13.229104    2.658505   -1.401675
     86          1           0      -12.592238   -1.433540   -1.272028
     87          1           0      -13.393670    0.361223   -1.662046
     88          1           0      -12.676881    0.542282   -3.626716
     89          1           0      -11.711131   -1.092456   -3.850641
     90          1           0      -13.658558   -0.860658   -3.744287
     91          1           0       -9.833322   -4.886322   -0.599333
     92          1           0       -9.042649   -4.828261   -2.348231
     93          1           0       -8.349315   -5.735445   -0.927338
     94          1           0       -3.682214   -3.357131   -0.087336
     95          1           0       -1.838761   -6.363735    2.492864
     96          1           0       -1.773662   -4.828557    3.399567
     97          1           0       -3.200279   -5.874865    3.582637
     98          1           0        2.490077   -2.003963   -1.505786
     99          1           0        2.457259   -0.080999   -1.954821
    100          1           0        4.082909   -1.098759    0.454031
    101          1           0        5.723046    1.933689   -2.424983
    102          1           0        5.259383    0.368817   -3.384115
    103          1           0        3.644264    1.485289   -2.643613
    104          1           0        6.450041    1.565918   -0.315855
    105          1           0        6.058481    0.001750    0.688932
    106          1           0        7.187875   -1.427640   -1.169504
    107          1           0        7.600374    0.345923   -1.733962
    108          1           0        8.901675    0.878804    0.068198
    109          1           0        8.564109   -0.677281    0.976104
    110          1           0       10.000540   -0.297516   -1.910220
    111          1           0        9.054667   -2.251947   -1.796687
    112          1           0       10.909916   -2.623240   -1.403658
    113          1           0        9.444191   -2.787936   -0.251464
    114          1           0       11.219185    0.619475    0.386501
    115          1           0       11.229262   -0.943076    0.771042
    116          1           0       13.092960   -1.758752   -0.840370
    117          1           0       12.889780   -0.069559   -1.707185
    118          1           0       13.530248    1.170134    0.419512
    119          1           0       13.980066   -0.360291    1.372015
    120          1           0       15.175978    0.381494   -1.376420
    121          1           0       14.845562   -2.102709   -1.363371
    122          1           0       16.550690   -1.759715   -1.191231
    123          1           0       15.674054   -2.123927    0.360538
    124          1           0       15.999507    1.378398    0.721330
    125          1           0       16.399646   -0.022124    1.558752
    126          1           0       18.183806   -0.405309   -0.224714
    127          1           0       17.866917    0.756637   -1.202241
    128          1           0       18.328637    2.721190    0.527835
    129          1           0       18.792913    1.328327    1.740850
    130          1           0       20.622654    0.598813    0.003483
    131          1           0       19.924391    3.249771   -1.270236
    132          1           0       21.154364    1.961296   -2.189017
    133          1           0       19.345850    1.748491   -2.039561
    134          1           0       21.213473    2.001283    2.208055
    135          1           0       22.225892    2.325382    0.787604
    136          1           0       20.931199    3.328459    0.921195
    137          1           0       -7.116720    1.663622    0.591054
    138          1           0       -7.592252   -0.273183   -0.049967
 ---------------------------------------------------------------------

 SCF Done:  E(RB3LYP) =  -2732.93426040     A.U. after   16 cycles

 Excitation energies and oscillator strengths:

 Excited State   1:      Singlet-A      2.0419 eV  607.19 nm  f=0.1690  <S**2>=0.000
     235 -> 237       -0.10156
     235 -> 238        0.25058
     236 -> 237        0.64021
     236 -> 238        0.11377
 This state for optimization and/or second-order correction.
 Total Energy, E(TD-HF/TD-DFT) =  -2732.85922031
 Copying the excited state density for this state as the 1-particle RhoCI density.

 The electronic state is 1-A.
 Alpha  occ. eigenvalues --  -19.17822 -19.17344 -19.12500 -19.11177 -19.10147
 Alpha  occ. eigenvalues --  -14.38442 -14.37206 -14.32582 -14.30008 -10.31397
 Alpha  occ. eigenvalues --  -10.30045 -10.27514 -10.26467 -10.24694 -10.24640
 Alpha  occ. eigenvalues --  -10.24312 -10.24278 -10.24125 -10.23965 -10.23414
 Alpha  occ. eigenvalues --  -10.23194 -10.22315 -10.22256 -10.21965 -10.21648
 Alpha  occ. eigenvalues --  -10.21565 -10.21354 -10.21182 -10.21088 -10.21021
 Alpha  occ. eigenvalues --  -10.20923 -10.20869 -10.20798 -10.20704 -10.20679
 Alpha  occ. eigenvalues --  -10.20628 -10.20606 -10.20595 -10.20564 -10.20389
 Alpha  occ. eigenvalues --  -10.20264 -10.20230 -10.20222 -10.20086 -10.20046
 Alpha  occ. eigenvalues --  -10.20044 -10.20038 -10.19888 -10.19772 -10.19423
 Alpha  occ. eigenvalues --  -10.19395 -10.19302 -10.19225 -10.19223 -10.19095
 Alpha  occ. eigenvalues --  -10.18924 -10.18919 -10.18700 -10.18626 -10.18581
 Alpha  occ. eigenvalues --  -10.18328 -10.18034 -10.17641 -10.17418  -1.10667
 Alpha  occ. eigenvalues --   -1.07801  -1.00304  -0.99785  -0.99466  -0.99074
 Alpha  occ. eigenvalues --   -0.98259  -0.94658  -0.93823  -0.84173  -0.83154
 Alpha  occ. eigenvalues --   -0.82536  -0.82218  -0.81472  -0.80872  -0.80703
 Alpha  occ. eigenvalues --   -0.80446  -0.79360  -0.79144  -0.78975  -0.78324
 Alpha  occ. eigenvalues --   -0.77144  -0.76064  -0.75434  -0.75305  -0.74573
 Alpha  occ. eigenvalues --   -0.73210  -0.72606  -0.72427  -0.71526  -0.70508
 Alpha  occ. eigenvalues --   -0.69940  -0.69780  -0.69110  -0.67732  -0.67207
 Alpha  occ. eigenvalues --   -0.66847  -0.65993  -0.65926  -0.65667  -0.65436
 Alpha  occ. eigenvalues --   -0.64054  -0.63522  -0.62648  -0.61742  -0.61304
 Alpha  occ. eigenvalues --   -0.60763  -0.59441  -0.58335  -0.58101  -0.57660
 Alpha  occ. eigenvalues --   -0.56993  -0.56713  -0.55970  -0.55591  -0.55357
 Alpha  occ. eigenvalues --   -0.55024  -0.54718  -0.54174  -0.54099  -0.53544
 Alpha  occ. eigenvalues --   -0.52692  -0.52531  -0.51582  -0.51330  -0.50480
 Alpha  occ. eigenvalues --   -0.50098  -0.49419  -0.48629  -0.48423  -0.48402
 Alpha  occ. eigenvalues --   -0.47620  -0.47412  -0.47359  -0.47118  -0.47073
 Alpha  occ. eigenvalues --   -0.46994  -0.46447  -0.46183  -0.46002  -0.45714
 Alpha  occ. eigenvalues --   -0.45544  -0.45382  -0.45214  -0.44959  -0.44380
 Alpha  occ. eigenvalues --   -0.44245  -0.44045  -0.43970  -0.43850  -0.43413
 Alpha  occ. eigenvalues --   -0.43214  -0.43121  -0.42943  -0.42582  -0.42479
 Alpha  occ. eigenvalues --   -0.42247  -0.42039  -0.41652  -0.41414  -0.41214
 Alpha  occ. eigenvalues --   -0.41143  -0.40744  -0.40637  -0.40490  -0.40349
 Alpha  occ. eigenvalues --   -0.39872  -0.39788  -0.39582  -0.39542  -0.39335
 Alpha  occ. eigenvalues --   -0.39112  -0.38957  -0.38935  -0.38589  -0.38478
 Alpha  occ. eigenvalues --   -0.38261  -0.37991  -0.37898  -0.37742  -0.37514
 Alpha  occ. eigenvalues --   -0.36867  -0.36758  -0.36597  -0.36562  -0.36453
 Alpha  occ. eigenvalues --   -0.36347  -0.36128  -0.35979  -0.35755  -0.35524
 Alpha  occ. eigenvalues --   -0.35424  -0.35302  -0.35219  -0.34988  -0.34662
 Alpha  occ. eigenvalues --   -0.34309  -0.34151  -0.33864  -0.33784  -0.33698
 Alpha  occ. eigenvalues --   -0.33391  -0.32559  -0.32404  -0.32349  -0.32111
 Alpha  occ. eigenvalues --   -0.32056  -0.31904  -0.31689  -0.31664  -0.31523
 Alpha  occ. eigenvalues --   -0.30831  -0.30527  -0.30219  -0.30150  -0.30097
 Alpha  occ. eigenvalues --   -0.29982  -0.29122  -0.28015  -0.27741  -0.27554
 Alpha  occ. eigenvalues --   -0.27536  -0.27092  -0.26686  -0.26579  -0.26067
 Alpha  occ. eigenvalues --   -0.24837  -0.24452  -0.24412  -0.23232  -0.20074
 Alpha  occ. eigenvalues --   -0.18678
 Alpha virt. eigenvalues --   -0.10210  -0.07743  -0.04645  -0.02426  -0.02027
 Alpha virt. eigenvalues --   -0.00183   0.00192   0.00948   0.01629   0.02773
 Alpha virt. eigenvalues --    0.03136   0.03766   0.03849   0.04423   0.04611

 Mulliken charges:
               1
     1  C    0.045359
     2  C   -0.036144
     3  C   -0.139868
     4  C   -0.038407
     5  N   -0.230269
     6  C   -0.036526
     7  C    0.038330
     8  C    0.022351
     9  C   -0.025740
    10  C   -0.020969
    11  C   -0.052501
    12  C    0.031778
    13  C    0.136971
    14  O   -0.255597
    15  O   -0.278217
    16  N   -0.030215
    17  C    0.143703
    18  C   -0.109189
    19  C   -0.076629
    20  C    0.149668
    21  C    0.103718
    22  C   -0.074169
    23  C    0.047418
    24  N   -0.212461
    25  C    0.013323
    26  C   -0.058425
    27  C   -0.102194
    28  C    0.014741
    29  C    0.124960
    30  C    0.006313
    31  C   -0.015743
    32  N    0.030233
    33  C    0.085138
    34  C   -0.114181
    35  C   -0.003534
    36  C   -0.011656
    37  C   -0.010537
    38  C    0.109891
    39  O   -0.216970
    40  C   -0.023993
    41  C    0.182132
    42  O   -0.208538
    43  O   -0.346354
    44  C    0.207652
    45  C    0.231511
    46  C   -0.095944
    47  C   -0.083748
    48  C   -0.115039
    49  C    0.029257
    50  C    0.043011
    51  C   -0.060935
    52  C   -0.044104
    53  C    0.021326
    54  C    0.182644
    55  C   -0.017882
    56  C   -0.057348
    57  C   -0.099458
    58  C    0.006823
    59  C    0.203894
    60  C   -0.001774
    61  C    0.005945
    62  C   -0.035883
    63  C   -0.059312
    64  C   -0.017466
    65  H   -0.079196
    66  H    0.022438
    67  H   -0.034867
    68  H    0.019507
    69  H   -0.018223
    70  H    0.027205
    71  H    0.027234
    72  H    0.059250
    73  H    0.032340
    74  H    0.036769
    75  H    0.019167
    76  H    0.034739
    77  H   -0.012178
    78  H    0.065790
    79  H    0.011878
    80  H    0.038090
    81  H   -0.021996
    82  H    0.043091
    83  H    0.012930
    84  H    0.017992
    85  H   -0.054111
    86  H    0.042220
    87  H    0.004135
    88  H   -0.005562
    89  H    0.049059
    90  H    0.011505
    91  H    0.040421
    92  H    0.046531
    93  H    0.047349
    94  H    0.037827
    95  H    0.045532
    96  H    0.031550
    97  H    0.039404
    98  H    0.064671
    99  H    0.008751
   100  H    0.018134
   101  H    0.037645
   102  H    0.067869
   103  H    0.070200
   104  H    0.022419
   105  H    0.004293
   106  H    0.040798
   107  H   -0.035547
   108  H   -0.010914
   109  H    0.017898
   110  H   -0.013465
   111  H   -0.010783
   112  H    0.029731
   113  H   -0.008181
   114  H   -0.016880
   115  H   -0.077373
   116  H    0.025467
   117  H    0.014459
   118  H   -0.000656
   119  H    0.007639
   120  H   -0.006107
   121  H    0.032082
   122  H    0.006819
   123  H   -0.001887
   124  H   -0.090113
   125  H    0.002552
   126  H   -0.011178
   127  H   -0.018919
   128  H    0.013734
   129  H    0.020769
   130  H   -0.019727
   131  H    0.015223
   132  H    0.034184
   133  H    0.014048
   134  H    0.032967
   135  H   -0.006896
   136  H   -0.010118
   137  H    0.128218
   138  H    0.170183
 Sum of Mulliken charges =  -0.00000

 Dipole moment (field-independent basis, Debye):
    X=              2.5934    Y=              5.3324    Z=              1.5778  Tot=              6.1359
 Quadrupole moment (field-independent basis, Debye-Ang):
   XX=           -348.6523   YY=           -386.1897   ZZ=           -396.9937
   XY=            -29.3575   XZ=              3.7870   YZ=             -6.4144

 Normal termination of Gaussian 16 at Tue Aug 27 20:57:29 2019.
