 Gaussian 16, Revision A.03,
 Gaussian 16:  ES64L-G16RevA.03 25-Dec-2016

 --------------------------
 # td=(NStates=1) B3LYP/SVP
 --------------------------

 --
 TD
 --
 Symbolic Z-matrix:
 Charge =  0 Multiplicity = 1

                         Standard orientation:
 ---------------------------------------------------------------------
 Center     Atomic      Atomic             Coordinates (Angstroms)
 Number     Number       Type             X           Y           Z
 ---------------------------------------------------------------------
      1          6           0       -5.126316   -1.947329    0.458396
      2          6           0       -4.790029    2.858807    1.275254
      3          6           0       -9.485684    3.275052   -0.251283
      4          6           0       -9.874315   -1.537222   -0.805616
      5          7           0       -5.191159    0.490975    0.770524
      6          6           0       -4.499975   -0.704489    0.683043
      7          6           0       -3.147162   -0.453822    1.137949
      8          6           0       -3.168329    0.945955    1.726559
      9          6           0       -4.468797    1.488988    1.271707
     10          6           0       -2.948004    1.164177    3.225401
     11          6           0       -1.991991   -0.673499    0.125050
     12          6           0       -0.585945   -0.767296    0.675365
     13          6           0        0.362099   -1.017146   -0.459684
     14          8           0       -0.039033   -1.276104   -1.608424
     15          8           0        1.644564   -0.891453   -0.039315
     16          7           0       -7.078799    2.784029    0.338187
     17          6           0       -6.072754    3.365718    0.864637
     18          6           0       -6.503599    4.803265    0.903962
     19          6           0       -7.682367    4.955701    0.396147
     20          6           0       -8.248183    3.622324    0.134574
     21          6           0       -5.556586    5.825111    1.481588
     22          6           0       -8.435734    6.215972    0.257768
     23          6           0       -9.426753    6.549451   -0.589591
     24          7           0       -9.263744    0.847646   -0.461768
     25          6           0       -9.994349    1.882013   -0.430854
     26          6           0      -11.391966    1.700505   -0.923344
     27          6           0      -11.488155    0.323773   -1.110813
     28          6           0      -10.178102   -0.287172   -0.728704
     29          6           0      -12.412102    2.728421   -1.146412
     30          6           0      -12.702871   -0.384825   -1.566951
     31          6           0      -12.704528   -0.695200   -3.005928
     32          7           0       -7.501391   -1.295419   -0.072527
     33          6           0       -8.535144   -1.987374   -0.491173
     34          6           0       -8.238077   -3.478497   -0.627880
     35          6           0       -6.806853   -3.451371   -0.204560
     36          6           0       -6.413556   -2.143937    0.112008
     37          6           0       -9.056630   -4.629037   -0.832879
     38          6           0       -5.607787   -4.324584    0.028168
     39          8           0       -5.519237   -5.615849   -0.072018
     40          6           0       -4.508418   -3.345124    0.300771
     41          6           0       -3.730718   -3.755069    1.664554
     42          8           0       -3.985819   -3.244865    2.742083
     43          8           0       -2.765718   -4.726324    1.476825
     44          6           0       -1.902634   -5.198882    2.519723
     45          6           0        2.754443   -1.060827   -1.042968
     46          6           0        4.044640   -0.618992   -0.505603
     47          6           0        4.975004    0.070775   -1.096708
     48          6           0        4.910176    0.656920   -2.472363
     49          6           0        6.298625    0.377138   -0.359824
     50          6           0        7.609879   -0.399178   -0.974312
     51          6           0        8.897634   -0.055070   -0.179157
     52          6           0       10.145525   -0.593357   -0.772094
     53          6           0       10.094990   -2.141735   -0.927600
     54          6           0       11.362755   -0.131041    0.015230
     55          6           0       12.770683   -0.536572   -0.528418
     56          6           0       13.856356    0.060853    0.344178
     57          6           0       15.283169   -0.192089   -0.235834
     58          6           0       15.618367   -1.704899   -0.221891
     59          6           0       16.295288    0.747122    0.512101
     60          6           0       17.722756    0.561469   -0.158501
     61          6           0       18.646383    1.569336    0.555947
     62          6           0       20.089631    1.614148    0.043524
     63          6           0       20.410525    1.941177   -1.506635
     64          6           0       21.022902    2.523897    0.957584
     65          1           0       -4.209540    3.583307    1.971073
     66          1           0      -10.212255    4.040780   -0.575980
     67          1           0      -10.587109   -2.266498   -1.059536
     68          1           0       -2.764362   -1.239866    1.934315
     69          1           0       -2.533588    1.468550    1.168686
     70          1           0       -1.901657    0.841208    3.328527
     71          1           0       -3.574916    2.245652    3.496130
     72          1           0       -3.517129    0.343048    3.707265
     73          1           0       -2.308677   -1.706613   -0.163804
     74          1           0       -2.130738   -0.003850   -0.782702
     75          1           0       -0.163561    0.088812    1.120549
     76          1           0       -0.257166   -1.623195    1.387146
     77          1           0       -4.737914    5.848555    0.860662
     78          1           0       -6.196644    6.932624    1.463436
     79          1           0       -5.329223    5.531589    2.525484
     80          1           0       -8.144489    6.831312    1.120710
     81          1           0      -10.054137    5.998582   -1.250356
     82          1           0       -9.949383    7.576718   -0.718763
     83          1           0      -12.661730    3.127596   -0.103445
     84          1           0      -12.055458    3.396210   -1.871679
     85          1           0      -13.323207    2.302692   -1.491801
     86          1           0      -12.789381   -1.140622   -0.988952
     87          1           0      -13.521145    0.043558   -1.140806
     88          1           0      -12.624824    0.104090   -3.622391
     89          1           0      -11.793735   -1.488663   -3.187951
     90          1           0      -13.625264   -1.405678   -3.499933
     91          1           0       -9.546006   -4.678486    0.235390
     92          1           0       -9.819331   -4.176770   -1.691152
     93          1           0       -8.426188   -5.647058   -1.030119
     94          1           0       -3.852239   -3.283196   -0.512221
     95          1           0       -0.792285   -5.604190    1.995088
     96          1           0       -1.649143   -4.300197    3.351441
     97          1           0       -2.530895   -5.997491    3.157793
     98          1           0        2.916337   -2.153421   -1.294407
     99          1           0        2.507044   -0.419644   -2.026953
    100          1           0        4.161058   -0.974878    0.559938
    101          1           0        5.253071    1.680416   -2.656259
    102          1           0        5.400007   -0.131309   -3.074058
    103          1           0        3.827809    0.707875   -3.022375
    104          1           0        6.544467    1.571710   -0.319944
    105          1           0        6.138821    0.395711    0.686092
    106          1           0        7.363170   -1.552113   -0.770844
    107          1           0        7.551659   -0.142725   -1.986587
    108          1           0        8.732306    1.001423   -0.152357
    109          1           0        8.667296   -0.243836    0.798963
    110          1           0       10.043252   -0.293808   -1.774715
    111          1           0        9.227722   -2.216805   -1.727128
    112          1           0       11.093540   -2.516000   -1.343073
    113          1           0        9.912875   -2.814058   -0.118919
    114          1           0       11.195770    1.025366    0.284933
    115          1           0       11.209977   -0.575306    0.984868
    116          1           0       12.950324   -1.541626   -0.390309
    117          1           0       12.812772   -0.189551   -1.423859
    118          1           0       13.684252    1.232093    0.452266
    119          1           0       13.933889   -0.221261    1.361660
    120          1           0       15.284417    0.037221   -1.234082
    121          1           0       14.794255   -2.377202   -0.645315
    122          1           0       16.580289   -1.582381   -0.818309
    123          1           0       15.633736   -2.076281    0.864690
    124          1           0       15.914359    1.776835    0.315118
    125          1           0       16.282312    0.616431    1.658810
    126          1           0       18.181053   -0.568614   -0.220333
    127          1           0       17.754020    0.705390   -1.225229
    128          1           0       18.103006    2.531881    0.602626
    129          1           0       18.790820    1.410809    1.795188
    130          1           0       20.457841    0.638077    0.123687
    131          1           0       20.061534    2.928891   -1.620657
    132          1           0       21.435081    1.729805   -1.653110
    133          1           0       19.693607    1.318423   -2.250082
    134          1           0       21.195934    2.324693    1.997869
    135          1           0       22.032889    2.606085    0.453801
    136          1           0       20.750203    3.624468    0.776363
    137          1           0       -7.165450    1.768222   -0.131406
    138          1           0       -7.680919   -0.211975   -0.064416
 ---------------------------------------------------------------------

 SCF Done:  E(RB3LYP) =  -2732.96872787     A.U. after   17 cycles

 Excitation energies and oscillator strengths:

 Excited State   1:      Singlet-A      2.0328 eV  609.91 nm  f=0.2560  <S**2>=0.000
     235 -> 238        0.21515
     236 -> 237        0.67388
 This state for optimization and/or second-order correction.
 Total Energy, E(TD-HF/TD-DFT) =  -2732.89402259
 Copying the excited state density for this state as the 1-particle RhoCI density.

 The electronic state is 1-A.
 Alpha  occ. eigenvalues --  -19.18234 -19.17762 -19.12956 -19.11694 -19.10713
 Alpha  occ. eigenvalues --  -14.37712 -14.36878 -14.31315 -14.30808 -10.32619
 Alpha  occ. eigenvalues --  -10.31292 -10.28211 -10.27146 -10.26231 -10.24655
 Alpha  occ. eigenvalues --  -10.23999 -10.23174 -10.22307 -10.22185 -10.22108
 Alpha  occ. eigenvalues --  -10.22083 -10.21975 -10.21643 -10.21521 -10.21342
 Alpha  occ. eigenvalues --  -10.21026 -10.20957 -10.20824 -10.20473 -10.20413
 Alpha  occ. eigenvalues --  -10.20395 -10.20246 -10.20189 -10.20181 -10.19989
 Alpha  occ. eigenvalues --  -10.19963 -10.19961 -10.19922 -10.19914 -10.19670
 Alpha  occ. eigenvalues --  -10.19599 -10.19540 -10.19502 -10.19430 -10.19409
 Alpha  occ. eigenvalues --  -10.19120 -10.19062 -10.18933 -10.18818 -10.18795
 Alpha  occ. eigenvalues --  -10.18752 -10.18603 -10.18526 -10.18491 -10.18409
 Alpha  occ. eigenvalues --  -10.18387 -10.18362 -10.18278 -10.17758 -10.17605
 Alpha  occ. eigenvalues --  -10.17198 -10.17105 -10.16978 -10.16497  -1.07835
 Alpha  occ. eigenvalues --   -1.07414  -1.00261  -0.99184  -0.98816  -0.98198
 Alpha  occ. eigenvalues --   -0.96682  -0.94193  -0.93880  -0.85582  -0.83024
 Alpha  occ. eigenvalues --   -0.82998  -0.82224  -0.82008  -0.80980  -0.80776
 Alpha  occ. eigenvalues --   -0.80458  -0.79476  -0.79070  -0.79040  -0.77662
 Alpha  occ. eigenvalues --   -0.76817  -0.76369  -0.76187  -0.75534  -0.74511
 Alpha  occ. eigenvalues --   -0.73410  -0.72935  -0.72483  -0.71557  -0.70535
 Alpha  occ. eigenvalues --   -0.70087  -0.69584  -0.68457  -0.68020  -0.67147
 Alpha  occ. eigenvalues --   -0.66781  -0.66493  -0.66100  -0.65188  -0.64886
 Alpha  occ. eigenvalues --   -0.64192  -0.63507  -0.63111  -0.62529  -0.61614
 Alpha  occ. eigenvalues --   -0.61054  -0.59382  -0.58709  -0.58199  -0.57761
 Alpha  occ. eigenvalues --   -0.57191  -0.56690  -0.56134  -0.55558  -0.55048
 Alpha  occ. eigenvalues --   -0.54815  -0.54763  -0.54309  -0.53796  -0.53250
 Alpha  occ. eigenvalues --   -0.52617  -0.51891  -0.51173  -0.50707  -0.50343
 Alpha  occ. eigenvalues --   -0.49583  -0.49409  -0.48456  -0.48335  -0.48237
 Alpha  occ. eigenvalues --   -0.47775  -0.47413  -0.47083  -0.46633  -0.46467
 Alpha  occ. eigenvalues --   -0.46301  -0.46188  -0.45945  -0.45760  -0.45738
 Alpha  occ. eigenvalues --   -0.45569  -0.45433  -0.45248  -0.44948  -0.44744
 Alpha  occ. eigenvalues --   -0.44556  -0.44352  -0.44220  -0.43783  -0.43603
 Alpha  occ. eigenvalues --   -0.43528  -0.43481  -0.42787  -0.42748  -0.42587
 Alpha  occ. eigenvalues --   -0.42539  -0.42366  -0.42249  -0.42034  -0.41735
 Alpha  occ. eigenvalues --   -0.41613  -0.41296  -0.40819  -0.40596  -0.40500
 Alpha  occ. eigenvalues --   -0.40454  -0.40237  -0.40008  -0.39713  -0.39514
 Alpha  occ. eigenvalues --   -0.39406  -0.38915  -0.38873  -0.38763  -0.38718
 Alpha  occ. eigenvalues --   -0.38398  -0.38155  -0.37904  -0.37549  -0.37344
 Alpha  occ. eigenvalues --   -0.37207  -0.36892  -0.36795  -0.36556  -0.36523
 Alpha  occ. eigenvalues --   -0.36326  -0.36179  -0.36089  -0.35684  -0.35411
 Alpha  occ. eigenvalues --   -0.35142  -0.34822  -0.34690  -0.34511  -0.34434
 Alpha  occ. eigenvalues --   -0.33924  -0.33785  -0.33605  -0.33429  -0.33298
 Alpha  occ. eigenvalues --   -0.33058  -0.32896  -0.32793  -0.32538  -0.32510
 Alpha  occ. eigenvalues --   -0.32435  -0.31792  -0.31745  -0.31669  -0.31329
 Alpha  occ. eigenvalues --   -0.31199  -0.30461  -0.30430  -0.30183  -0.29911
 Alpha  occ. eigenvalues --   -0.29652  -0.29464  -0.28189  -0.27729  -0.27723
 Alpha  occ. eigenvalues --   -0.27290  -0.27017  -0.26696  -0.25600  -0.25289
 Alpha  occ. eigenvalues --   -0.24823  -0.23918  -0.23838  -0.23157  -0.20757
 Alpha  occ. eigenvalues --   -0.17486
 Alpha virt. eigenvalues --   -0.09308  -0.07290  -0.04683  -0.02307  -0.00392
 Alpha virt. eigenvalues --    0.00097   0.00519   0.00753   0.02296   0.03102
 Alpha virt. eigenvalues --    0.03331   0.03726   0.04121   0.04340   0.04764

 Mulliken charges:
               1
     1  C    0.005144
     2  C   -0.097416
     3  C   -0.124758
     4  C   -0.110531
     5  N   -0.188542
     6  C   -0.021686
     7  C   -0.156055
     8  C    0.132146
     9  C   -0.075717
    10  C    0.062736
    11  C    0.064525
    12  C    0.058994
    13  C    0.172596
    14  O   -0.267194
    15  O   -0.344609
    16  N   -0.086646
    17  C    0.060301
    18  C   -0.176109
    19  C    0.045349
    20  C    0.152231
    21  C    0.096964
    22  C   -0.003519
    23  C   -0.068836
    24  N   -0.248827
    25  C    0.038898
    26  C   -0.212203
    27  C   -0.153952
    28  C    0.187231
    29  C    0.171601
    30  C    0.276416
    31  C   -0.009192
    32  N   -0.028076
    33  C    0.005007
    34  C   -0.147081
    35  C   -0.021839
    36  C    0.097957
    37  C   -0.030584
    38  C    0.105367
    39  O   -0.263210
    40  C   -0.003848
    41  C    0.230786
    42  O   -0.218296
    43  O   -0.306760
    44  C    0.056016
    45  C    0.246515
    46  C   -0.121876
    47  C   -0.092343
    48  C    0.022208
    49  C    0.002923
    50  C   -0.023911
    51  C    0.095863
    52  C    0.035271
    53  C   -0.034168
    54  C   -0.000822
    55  C    0.233310
    56  C   -0.026957
    57  C   -0.047613
    58  C   -0.018797
    59  C    0.033254
    60  C   -0.019227
    61  C    0.005893
    62  C   -0.052441
    63  C    0.001446
    64  C    0.006896
    65  H    0.011747
    66  H   -0.023345
    67  H   -0.044245
    68  H    0.018985
    69  H   -0.066752
    70  H    0.015444
    71  H    0.047840
    72  H    0.023461
    73  H    0.007080
    74  H    0.025158
    75  H    0.008549
    76  H    0.045238
    77  H    0.022426
    78  H    0.033640
    79  H    0.043796
    80  H    0.020759
    81  H    0.012862
    82  H    0.033044
    83  H    0.035886
    84  H    0.017793
    85  H   -0.009687
    86  H   -0.085499
    87  H   -0.051462
    88  H   -0.002557
    89  H    0.020195
    90  H    0.020928
    91  H    0.071175
    92  H    0.059643
    93  H    0.091442
    94  H    0.054592
    95  H    0.078922
    96  H    0.054580
    97  H    0.069141
    98  H    0.046374
    99  H    0.050531
   100  H    0.002967
   101  H    0.035008
   102  H    0.037826
   103  H    0.020309
   104  H   -0.001208
   105  H   -0.020999
   106  H    0.027404
   107  H   -0.004213
   108  H   -0.033468
   109  H   -0.046575
   110  H   -0.036474
   111  H    0.024020
   112  H    0.015556
   113  H    0.004356
   114  H   -0.000099
   115  H   -0.026022
   116  H   -0.019370
   117  H   -0.058748
   118  H   -0.017626
   119  H   -0.027574
   120  H   -0.045060
   121  H    0.022041
   122  H    0.031630
   123  H    0.010923
   124  H    0.005761
   125  H    0.015776
   126  H    0.019591
   127  H   -0.010579
   128  H   -0.010054
   129  H    0.005868
   130  H   -0.019212
   131  H    0.004305
   132  H    0.021418
   133  H    0.019072
   134  H    0.020216
   135  H   -0.008400
   136  H    0.001381
   137  H    0.201713
   138  H    0.180651
 Sum of Mulliken charges =  -0.00000

 Dipole moment (field-independent basis, Debye):
    X=              1.6695    Y=              5.7261    Z=              0.1138  Tot=              5.9656
 Quadrupole moment (field-independent basis, Debye-Ang):
   XX=           -320.9333   YY=           -396.0520   ZZ=           -395.9362
   XY=            -37.1668   XZ=              5.0042   YZ=             -3.9314

 Normal termination of Gaussian 16 at Sun Sep  1 09:32:18 2019.
