 Gaussian 16, Revision A.03,
 Gaussian 16:  ES64L-G16RevA.03 25-Dec-2016

 --------------------------
 # td=(NStates=1) B3LYP/SVP
 --------------------------

 --
 TD
 --
 Symbolic Z-matrix:
 Charge =  0 Multiplicity = 1

                         Standard orientation:
 ---------------------------------------------------------------------
 Center     Atomic      Atomic             Coordinates (Angstroms)
 Number     Number       Type             X           Y           Z
 ---------------------------------------------------------------------
      1          6           0       -5.146567   -1.953622    0.493328
      2          6           0       -4.670499    2.748551    1.287635
      3          6           0       -9.217258    3.429035   -0.270981
      4          6           0       -9.791777   -1.334367   -1.017785
      5          7           0       -5.181236    0.502960    0.953216
      6          6           0       -4.558258   -0.800387    0.898236
      7          6           0       -3.026192   -0.564824    1.271478
      8          6           0       -2.971548    0.920428    1.677432
      9          6           0       -4.273340    1.409534    1.212234
     10          6           0       -2.834909    1.111313    3.235556
     11          6           0       -2.111682   -0.967779    0.039117
     12          6           0       -0.617615   -1.043784    0.474567
     13          6           0        0.452822   -1.311509   -0.549574
     14          8           0        0.109400   -1.686298   -1.669343
     15          8           0        1.678635   -0.975941   -0.129712
     16          7           0       -7.002490    2.769542    0.429969
     17          6           0       -5.847207    3.390299    0.917030
     18          6           0       -6.138783    4.798503    1.021483
     19          6           0       -7.462494    5.090751    0.601784
     20          6           0       -7.948027    3.688924    0.214041
     21          6           0       -5.196353    5.754232    1.617215
     22          6           0       -8.144196    6.298792    0.423383
     23          6           0       -9.098238    6.661142   -0.425262
     24          7           0       -9.133071    0.987965   -0.570580
     25          6           0       -9.761435    2.177276   -0.601994
     26          6           0      -11.209834    2.028331   -0.945993
     27          6           0      -11.369632    0.685913   -1.143989
     28          6           0      -10.120089    0.087817   -0.930579
     29          6           0      -12.201460    3.107515   -1.112986
     30          6           0      -12.547313   -0.097339   -1.600178
     31          6           0      -12.447624   -0.391121   -3.103197
     32          7           0       -7.517012   -1.243488   -0.298508
     33          6           0       -8.568959   -1.964869   -0.659337
     34          6           0       -8.268560   -3.389357   -0.649167
     35          6           0       -6.886970   -3.451387   -0.209028
     36          6           0       -6.535160   -2.073175    0.084504
     37          6           0       -9.086229   -4.685454   -0.959966
     38          6           0       -5.743126   -4.253203    0.009765
     39          8           0       -5.746855   -5.573859   -0.034848
     40          6           0       -4.562696   -3.317104    0.429012
     41          6           0       -3.876090   -3.884065    1.704941
     42          8           0       -3.846979   -3.269039    2.795827
     43          8           0       -3.233356   -5.072081    1.438458
     44          6           0       -2.600554   -5.642573    2.663108
     45          6           0        2.736473   -1.417802   -1.144782
     46          6           0        3.953155   -0.853831   -0.452178
     47          6           0        4.975774   -0.123519   -1.051418
     48          6           0        4.848858    0.567797   -2.328347
     49          6           0        6.263367    0.227062   -0.282874
     50          6           0        7.441014   -0.425703   -0.878014
     51          6           0        8.700265   -0.176718   -0.038689
     52          6           0       10.036217   -0.659761   -0.729989
     53          6           0       10.034819   -2.157500   -0.803003
     54          6           0       11.187017   -0.174292    0.136997
     55          6           0       12.476777   -0.402163   -0.519485
     56          6           0       13.720088    0.209087    0.297610
     57          6           0       15.091326   -0.057091   -0.377143
     58          6           0       15.459438   -1.590999   -0.412798
     59          6           0       16.131319    0.846197    0.290622
     60          6           0       17.487131    0.910676   -0.318252
     61          6           0       18.638073    1.701672    0.494299
     62          6           0       20.049514    1.610375    0.033068
     63          6           0       20.143203    2.150374   -1.342819
     64          6           0       20.911035    2.232696    1.021299
     65          1           0       -3.747432    3.440792    1.557650
     66          1           0      -10.053635    4.292880   -0.333988
     67          1           0      -10.581661   -1.960157   -1.302929
     68          1           0       -2.803065   -1.083442    2.229640
     69          1           0       -2.104636    1.408927    1.215747
     70          1           0       -2.016699    0.626444    3.619175
     71          1           0       -2.877414    2.172941    3.349695
     72          1           0       -3.811077    0.672516    3.703963
     73          1           0       -2.455554   -2.042870   -0.353232
     74          1           0       -2.126661   -0.089384   -0.634824
     75          1           0       -0.405168    0.058654    0.876300
     76          1           0       -0.542812   -1.737883    1.397796
     77          1           0       -4.405137    5.719782    1.135613
     78          1           0       -5.530819    6.759909    1.619256
     79          1           0       -4.954127    5.621876    2.633325
     80          1           0       -7.991445    6.906027    1.307249
     81          1           0       -9.476808    5.855073   -1.167476
     82          1           0       -9.327179    7.566205   -0.647494
     83          1           0      -12.263301    3.773493   -0.213658
     84          1           0      -11.857370    3.836486   -1.859926
     85          1           0      -13.233437    2.735665   -1.508900
     86          1           0      -12.730429   -1.092223   -1.231733
     87          1           0      -13.380595    0.543567   -1.334562
     88          1           0      -12.438474    0.509335   -3.798546
     89          1           0      -11.752347   -1.008947   -3.506572
     90          1           0      -13.377055   -0.710865   -3.648317
     91          1           0       -9.788769   -4.742868   -0.148180
     92          1           0       -9.654957   -4.819330   -1.981518
     93          1           0       -8.293096   -5.571167   -0.950200
     94          1           0       -3.790586   -3.397518   -0.310916
     95          1           0       -2.208162   -6.750665    2.291458
     96          1           0       -1.601356   -5.138770    3.003698
     97          1           0       -3.414988   -5.676855    3.461695
     98          1           0        2.725954   -2.557403   -1.396550
     99          1           0        2.629392   -1.049951   -2.068614
    100          1           0        4.154623   -1.110129    0.547759
    101          1           0        5.184346    1.565899   -2.135967
    102          1           0        5.451844    0.086937   -3.067508
    103          1           0        3.845808    0.505775   -2.771093
    104          1           0        6.350836    1.427595   -0.387969
    105          1           0        6.026098   -0.087508    0.557011
    106          1           0        7.275717   -1.539960   -0.882227
    107          1           0        7.594495   -0.062192   -1.796373
    108          1           0        8.865566    0.889235    0.207006
    109          1           0        8.751552   -0.614698    0.948730
    110          1           0       10.093057   -0.348618   -1.674710
    111          1           0        9.125399   -2.532287   -1.477731
    112          1           0       11.023053   -2.647497   -1.271854
    113          1           0       10.023686   -2.786886    0.082896
    114          1           0       10.958451    0.881808    0.266292
    115          1           0       11.027900   -0.502430    1.219514
    116          1           0       12.782694   -1.490164   -0.686216
    117          1           0       12.481582    0.114930   -1.566826
    118          1           0       13.534445    1.191187    0.424967
    119          1           0       13.733480   -0.152006    1.293909
    120          1           0       15.008819    0.322013   -1.517437
    121          1           0       14.876543   -2.245444   -0.917997
    122          1           0       16.336472   -1.940353   -0.675963
    123          1           0       15.380591   -2.043327    0.681510
    124          1           0       15.889540    1.950810    0.321302
    125          1           0       16.250985    0.322820    1.362887
    126          1           0       17.931960   -0.297272   -0.454282
    127          1           0       17.354149    1.203004   -1.471378
    128          1           0       18.446437    2.840412    0.411261
    129          1           0       18.471208    1.279755    1.542636
    130          1           0       20.385712    0.428679    0.002138
    131          1           0       19.649087    3.194723   -1.285997
    132          1           0       21.388264    2.227014   -1.657626
    133          1           0       19.478210    1.549724   -2.052925
    134          1           0       21.280391    1.888393    1.886376
    135          1           0       22.078378    2.177602    0.938641
    136          1           0       20.655422    3.298336    0.930743
    137          1           0       -7.000710    1.692087    0.397131
    138          1           0       -7.737371   -0.283310   -0.216106
 ---------------------------------------------------------------------

 SCF Done:  E(RB3LYP) =  -2733.03926490     A.U. after   17 cycles

 Excitation energies and oscillator strengths:

 Excited State   1:      Singlet-A      2.0411 eV  607.45 nm  f=0.1741  <S**2>=0.000
     235 -> 237       -0.12196
     235 -> 238        0.23886
     236 -> 237        0.63304
     236 -> 238        0.13639
 This state for optimization and/or second-order correction.
 Total Energy, E(TD-HF/TD-DFT) =  -2732.96425686
 Copying the excited state density for this state as the 1-particle RhoCI density.

 The electronic state is 1-A.
 Alpha  occ. eigenvalues --  -19.18692 -19.18587 -19.12957 -19.11950 -19.10867
 Alpha  occ. eigenvalues --  -14.37389 -14.37347 -14.32357 -14.29969 -10.32527
 Alpha  occ. eigenvalues --  -10.31281 -10.27481 -10.26819 -10.25536 -10.24152
 Alpha  occ. eigenvalues --  -10.24117 -10.24112 -10.23367 -10.23077 -10.22494
 Alpha  occ. eigenvalues --  -10.22279 -10.22133 -10.21331 -10.21229 -10.21113
 Alpha  occ. eigenvalues --  -10.21072 -10.21046 -10.20883 -10.20638 -10.20596
 Alpha  occ. eigenvalues --  -10.20549 -10.20518 -10.20446 -10.20408 -10.20065
 Alpha  occ. eigenvalues --  -10.20040 -10.19977 -10.19965 -10.19913 -10.19903
 Alpha  occ. eigenvalues --  -10.19901 -10.19503 -10.19386 -10.19333 -10.19221
 Alpha  occ. eigenvalues --  -10.19197 -10.19105 -10.19023 -10.18880 -10.18718
 Alpha  occ. eigenvalues --  -10.18707 -10.18702 -10.18293 -10.18200 -10.18107
 Alpha  occ. eigenvalues --  -10.18077 -10.17948 -10.17893 -10.17749 -10.17657
 Alpha  occ. eigenvalues --  -10.17184 -10.17164 -10.17088 -10.17015  -1.08465
 Alpha  occ. eigenvalues --   -1.07433  -1.00560  -0.99619  -0.98975  -0.98056
 Alpha  occ. eigenvalues --   -0.96156  -0.93920  -0.93609  -0.85562  -0.83716
 Alpha  occ. eigenvalues --   -0.82689  -0.82394  -0.82043  -0.81155  -0.80300
 Alpha  occ. eigenvalues --   -0.80169  -0.80013  -0.79465  -0.78551  -0.78020
 Alpha  occ. eigenvalues --   -0.77361  -0.76353  -0.75670  -0.75163  -0.74617
 Alpha  occ. eigenvalues --   -0.73664  -0.72623  -0.72304  -0.72074  -0.71787
 Alpha  occ. eigenvalues --   -0.69730  -0.69391  -0.69271  -0.68759  -0.68380
 Alpha  occ. eigenvalues --   -0.67945  -0.67488  -0.66428  -0.66125  -0.65267
 Alpha  occ. eigenvalues --   -0.64436  -0.64039  -0.63458  -0.63004  -0.62306
 Alpha  occ. eigenvalues --   -0.61388  -0.59506  -0.58548  -0.57835  -0.57489
 Alpha  occ. eigenvalues --   -0.57358  -0.57033  -0.56265  -0.55877  -0.55704
 Alpha  occ. eigenvalues --   -0.54964  -0.54962  -0.54497  -0.53393  -0.52817
 Alpha  occ. eigenvalues --   -0.52429  -0.51976  -0.51356  -0.50762  -0.50286
 Alpha  occ. eigenvalues --   -0.49989  -0.49686  -0.49609  -0.49400  -0.48788
 Alpha  occ. eigenvalues --   -0.48468  -0.48035  -0.47716  -0.47164  -0.47007
 Alpha  occ. eigenvalues --   -0.46856  -0.46525  -0.46358  -0.46003  -0.45854
 Alpha  occ. eigenvalues --   -0.45554  -0.45479  -0.45255  -0.45040  -0.45026
 Alpha  occ. eigenvalues --   -0.44773  -0.44536  -0.44337  -0.44064  -0.43802
 Alpha  occ. eigenvalues --   -0.43555  -0.43384  -0.43280  -0.43185  -0.42807
 Alpha  occ. eigenvalues --   -0.42612  -0.42319  -0.42057  -0.41927  -0.41512
 Alpha  occ. eigenvalues --   -0.41448  -0.41138  -0.40401  -0.40373  -0.40180
 Alpha  occ. eigenvalues --   -0.40123  -0.39899  -0.39882  -0.39733  -0.39232
 Alpha  occ. eigenvalues --   -0.39149  -0.38867  -0.38712  -0.38567  -0.38545
 Alpha  occ. eigenvalues --   -0.38141  -0.37988  -0.37806  -0.37653  -0.37521
 Alpha  occ. eigenvalues --   -0.37394  -0.37236  -0.37140  -0.36831  -0.36827
 Alpha  occ. eigenvalues --   -0.36697  -0.36474  -0.36315  -0.35769  -0.35710
 Alpha  occ. eigenvalues --   -0.35426  -0.35302  -0.35202  -0.35044  -0.34876
 Alpha  occ. eigenvalues --   -0.34631  -0.34528  -0.34241  -0.34101  -0.34015
 Alpha  occ. eigenvalues --   -0.33706  -0.33490  -0.33342  -0.32618  -0.32322
 Alpha  occ. eigenvalues --   -0.32190  -0.32095  -0.31744  -0.31644  -0.31088
 Alpha  occ. eigenvalues --   -0.30721  -0.30565  -0.30459  -0.29944  -0.29939
 Alpha  occ. eigenvalues --   -0.29788  -0.29390  -0.28325  -0.28205  -0.27589
 Alpha  occ. eigenvalues --   -0.27549  -0.27326  -0.26887  -0.26671  -0.25632
 Alpha  occ. eigenvalues --   -0.24150  -0.24112  -0.23984  -0.22909  -0.20026
 Alpha  occ. eigenvalues --   -0.18735
 Alpha virt. eigenvalues --   -0.10323  -0.07845  -0.05397  -0.02604  -0.01103
 Alpha virt. eigenvalues --   -0.00932   0.00125   0.00456   0.02420   0.03990
 Alpha virt. eigenvalues --    0.04232   0.04345   0.04574   0.04785   0.05058

 Mulliken charges:
               1
     1  C    0.014497
     2  C   -0.099718
     3  C   -0.166780
     4  C   -0.011140
     5  N   -0.209350
     6  C   -0.032378
     7  C   -0.018437
     8  C   -0.061216
     9  C   -0.035083
    10  C    0.099397
    11  C    0.061616
    12  C   -0.061035
    13  C    0.207469
    14  O   -0.258823
    15  O   -0.313363
    16  N   -0.071335
    17  C    0.125788
    18  C   -0.162842
    19  C    0.045685
    20  C    0.112624
    21  C    0.276532
    22  C   -0.064820
    23  C    0.021284
    24  N   -0.247672
    25  C    0.049748
    26  C   -0.150596
    27  C   -0.067022
    28  C    0.033028
    29  C    0.083308
    30  C    0.141218
    31  C   -0.000403
    32  N    0.089349
    33  C   -0.003292
    34  C   -0.115615
    35  C    0.046370
    36  C    0.038659
    37  C    0.025280
    38  C    0.038664
    39  O   -0.278614
    40  C    0.028195
    41  C    0.225839
    42  O   -0.260060
    43  O   -0.308132
    44  C    0.105897
    45  C    0.319219
    46  C   -0.048338
    47  C   -0.241045
    48  C    0.141282
    49  C    0.190792
    50  C    0.111312
    51  C    0.026680
    52  C    0.000406
    53  C   -0.045776
    54  C    0.063943
    55  C    0.005817
    56  C    0.117182
    57  C   -0.080601
    58  C    0.112094
    59  C    0.027313
    60  C   -0.088452
    61  C    0.016728
    62  C   -0.066904
    63  C   -0.026156
    64  C    0.073445
    65  H    0.003094
    66  H    0.013927
    67  H   -0.055480
    68  H    0.016213
    69  H   -0.009286
    70  H    0.008248
    71  H   -0.000044
    72  H    0.036108
    73  H    0.047636
    74  H    0.015391
    75  H    0.034954
    76  H    0.043885
    77  H   -0.056852
    78  H   -0.020799
    79  H    0.003631
    80  H    0.012427
    81  H    0.036951
    82  H   -0.030130
    83  H    0.027882
    84  H    0.012933
    85  H    0.031517
    86  H    0.001222
    87  H   -0.009765
    88  H   -0.009727
    89  H   -0.007523
    90  H   -0.008683
    91  H    0.033266
    92  H    0.043141
    93  H    0.070791
    94  H    0.056189
    95  H    0.059905
    96  H    0.056618
    97  H    0.070287
    98  H    0.049935
    99  H   -0.030798
   100  H   -0.030805
   101  H    0.008772
   102  H    0.009302
   103  H    0.005405
   104  H    0.015344
   105  H   -0.106736
   106  H    0.010610
   107  H   -0.044891
   108  H   -0.024203
   109  H   -0.021496
   110  H   -0.054508
   111  H    0.015638
   112  H    0.011652
   113  H   -0.001914
   114  H   -0.030031
   115  H   -0.007625
   116  H    0.012469
   117  H    0.003492
   118  H   -0.052235
   119  H   -0.029198
   120  H   -0.002697
   121  H   -0.025930
   122  H   -0.044345
   123  H   -0.008034
   124  H    0.011936
   125  H    0.006786
   126  H    0.003359
   127  H    0.010502
   128  H    0.001705
   129  H    0.011726
   130  H   -0.004168
   131  H    0.005264
   132  H    0.037478
   133  H    0.037055
   134  H   -0.027205
   135  H   -0.019682
   136  H   -0.002192
   137  H    0.184469
   138  H    0.106203
 Sum of Mulliken charges =  -0.00000

 Dipole moment (field-independent basis, Debye):
    X=              2.9005    Y=              5.1435    Z=              1.0312  Tot=              5.9944
 Quadrupole moment (field-independent basis, Debye-Ang):
   XX=           -351.2113   YY=           -385.6286   ZZ=           -394.7739
   XY=            -35.4686   XZ=             12.5831   YZ=             -2.0125

 Normal termination of Gaussian 16 at Tue Aug 20 19:03:21 2019.
