 Gaussian 16, Revision A.03,
 Gaussian 16:  ES64L-G16RevA.03 25-Dec-2016

 --------------------------
 # td=(NStates=1) B3LYP/SVP
 --------------------------

 --
 TD
 --
 Symbolic Z-matrix:
 Charge =  0 Multiplicity = 1

                         Standard orientation:
 ---------------------------------------------------------------------
 Center     Atomic      Atomic             Coordinates (Angstroms)
 Number     Number       Type             X           Y           Z
 ---------------------------------------------------------------------
      1          6           0       -5.094027   -1.924454    0.369350
      2          6           0       -4.450676    2.774389    1.357122
      3          6           0       -9.208167    3.344664   -0.179445
      4          6           0       -9.847582   -1.366595   -0.935188
      5          7           0       -5.218362    0.405474    0.838541
      6          6           0       -4.497735   -0.748321    0.786981
      7          6           0       -3.016580   -0.688433    1.289976
      8          6           0       -2.975261    0.784361    1.805146
      9          6           0       -4.267001    1.369623    1.325005
     10          6           0       -2.980914    0.671235    3.387851
     11          6           0       -2.113113   -0.834897    0.051832
     12          6           0       -0.713809   -0.881549    0.467463
     13          6           0        0.305174   -1.109194   -0.694813
     14          8           0        0.026872   -1.608263   -1.724002
     15          8           0        1.608263   -0.789674   -0.244680
     16          7           0       -6.845868    2.785083    0.528848
     17          6           0       -5.695509    3.427107    1.020173
     18          6           0       -5.987976    4.844236    1.077097
     19          6           0       -7.376513    5.040200    0.724211
     20          6           0       -7.831783    3.625035    0.322705
     21          6           0       -4.902244    5.747632    1.402787
     22          6           0       -8.027774    6.353228    0.425931
     23          6           0       -9.080537    6.623899   -0.229588
     24          7           0       -9.100612    1.034818   -0.452785
     25          6           0       -9.786203    2.174799   -0.488710
     26          6           0      -11.170988    2.070328   -0.966612
     27          6           0      -11.411173    0.794532   -1.124384
     28          6           0      -10.083191    0.010423   -0.868032
     29          6           0      -12.114287    3.209552   -1.249600
     30          6           0      -12.565918    0.009975   -1.588605
     31          6           0      -12.552837   -0.438669   -3.056637
     32          7           0       -7.520739   -1.265020   -0.271004
     33          6           0       -8.673465   -1.935559   -0.683300
     34          6           0       -8.199267   -3.375329   -0.590676
     35          6           0       -6.972835   -3.458208   -0.306934
     36          6           0       -6.452527   -2.165950   -0.108605
     37          6           0       -9.136561   -4.518742   -1.058655
     38          6           0       -5.859086   -4.349650    0.040495
     39          8           0       -5.808043   -5.576154   -0.159623
     40          6           0       -4.651468   -3.371499    0.397305
     41          6           0       -3.990368   -3.938387    1.670517
     42          8           0       -4.009188   -3.466891    2.759637
     43          8           0       -3.121127   -4.938816    1.323565
     44          6           0       -2.563055   -5.682725    2.363960
     45          6           0        2.670770   -1.072198   -1.173601
     46          6           0        3.901142   -0.534767   -0.603656
     47          6           0        4.965864    0.129196   -1.195248
     48          6           0        4.855326    0.524406   -2.700852
     49          6           0        6.125446    0.550008   -0.462575
     50          6           0        7.339553   -0.408774   -0.918950
     51          6           0        8.638150   -0.026904   -0.110322
     52          6           0        9.960866   -0.792199   -0.480781
     53          6           0        9.897422   -2.324576   -0.271718
     54          6           0       11.226103   -0.158018    0.337086
     55          6           0       12.520876   -0.718457   -0.197524
     56          6           0       13.741428   -0.074423    0.399888
     57          6           0       15.112755   -0.265310   -0.286001
     58          6           0       15.547303   -1.816854   -0.047421
     59          6           0       16.183992    0.733010    0.439088
     60          6           0       17.643480    0.630061   -0.282396
     61          6           0       18.598335    1.659109    0.360732
     62          6           0       20.032755    1.657300   -0.192454
     63          6           0       20.282481    1.932107   -1.633561
     64          6           0       20.844068    2.802057    0.806737
     65          1           0       -3.687541    3.309502    1.724777
     66          1           0       -9.841827    4.185164   -0.068422
     67          1           0      -10.726558   -2.006925   -1.131269
     68          1           0       -3.064659   -1.446347    2.092344
     69          1           0       -2.090525    1.483128    1.622148
     70          1           0       -2.131431    0.478306    3.735016
     71          1           0       -3.439246    1.689777    3.799475
     72          1           0       -3.587625   -0.260772    3.736391
     73          1           0       -2.218450   -1.585393   -0.585105
     74          1           0       -2.420473   -0.076127   -0.735679
     75          1           0       -0.309044    0.050838    0.919632
     76          1           0       -0.510393   -1.490281    1.291806
     77          1           0       -4.004835    5.563018    0.813578
     78          1           0       -5.146043    6.882538    1.255377
     79          1           0       -4.886985    5.834418    2.605890
     80          1           0       -7.497485    7.029640    1.277564
     81          1           0       -9.514996    5.752152   -0.978055
     82          1           0       -9.443028    7.751126   -0.172308
     83          1           0      -12.190604    3.937145   -0.446732
     84          1           0      -11.708578    3.885558   -2.059373
     85          1           0      -13.123738    2.874513   -1.744430
     86          1           0      -12.492266   -0.860330   -1.057982
     87          1           0      -13.497496    0.624176   -1.405108
     88          1           0      -12.951900    0.452280   -3.683365
     89          1           0      -11.506375   -0.812020   -3.264828
     90          1           0      -13.401138   -1.171252   -3.276848
     91          1           0       -9.931367   -4.487863   -0.303082
     92          1           0       -9.436943   -4.398177   -2.140057
     93          1           0       -8.620737   -5.417067   -0.902929
     94          1           0       -3.826090   -3.731192   -0.180208
     95          1           0       -1.880518   -6.561147    1.999725
     96          1           0       -1.965739   -4.931881    3.057007
     97          1           0       -3.403402   -6.277036    2.987323
     98          1           0        2.667278   -2.124509   -1.428349
     99          1           0        2.418473   -0.593222   -2.138949
    100          1           0        4.109702   -0.943454    0.558162
    101          1           0        5.012275    1.576410   -2.620743
    102          1           0        5.414145   -0.262266   -3.426223
    103          1           0        3.809309    0.408787   -2.989732
    104          1           0        6.396969    1.578293   -0.758893
    105          1           0        6.229687    0.350220    0.694398
    106          1           0        7.050763   -1.608820   -0.908393
    107          1           0        7.366803   -0.236178   -2.039558
    108          1           0        8.650387    1.027268   -0.186296
    109          1           0        8.309464   -0.248308    1.082151
    110          1           0       10.195253   -0.691240   -1.602753
    111          1           0        9.161071   -2.827776   -1.023286
    112          1           0       10.800017   -2.828743   -0.947966
    113          1           0       10.173376   -2.663771    0.816496
    114          1           0       11.095294    1.004672   -0.044006
    115          1           0       11.322538   -0.094829    1.524769
    116          1           0       12.649443   -1.725507   -0.304146
    117          1           0       12.529495   -0.282065   -1.210017
    118          1           0       13.670736    1.068911    0.600379
    119          1           0       13.869926   -0.195090    1.617180
    120          1           0       15.020165   -0.150295   -1.433595
    121          1           0       14.683151   -2.387443   -0.476378
    122          1           0       16.485814   -2.149553   -0.505282
    123          1           0       15.611489   -1.978034    0.944761
    124          1           0       16.003352    1.968864    0.236232
    125          1           0       16.241961    0.305247    1.503444
    126          1           0       17.928081   -0.413782    0.010115
    127          1           0       17.467021    0.775218   -1.320303
    128          1           0       18.069135    2.694576   -0.138832
    129          1           0       18.501560    1.754973    1.479095
    130          1           0       20.349833    0.583916    0.167090
    131          1           0       19.824471    2.929346   -1.773971
    132          1           0       21.117480    2.009458   -1.991668
    133          1           0       19.707536    1.406078   -2.250612
    134          1           0       20.775677    2.394556    1.860589
    135          1           0       22.074127    2.480089    0.468700
    136          1           0       20.578498    3.726108    0.798356
    137          1           0       -7.171312    1.695073    0.449776
    138          1           0       -7.344717   -0.357719    0.126045
 ---------------------------------------------------------------------

 SCF Done:  E(RB3LYP) =  -2732.91653684     A.U. after   17 cycles

 Excitation energies and oscillator strengths:

 Excited State   1:      Singlet-A      1.9153 eV  647.35 nm  f=0.2221  <S**2>=0.000
     235 -> 238       -0.25283
     236 -> 237        0.65986
 This state for optimization and/or second-order correction.
 Total Energy, E(TD-HF/TD-DFT) =  -2732.84615243
 Copying the excited state density for this state as the 1-particle RhoCI density.

 The electronic state is 1-A.
 Alpha  occ. eigenvalues --  -19.17997 -19.16799 -19.13772 -19.13410 -19.13176
 Alpha  occ. eigenvalues --  -14.37776 -14.36635 -14.33407 -14.30685 -10.32193
 Alpha  occ. eigenvalues --  -10.31700 -10.29063 -10.26392 -10.24135 -10.24099
 Alpha  occ. eigenvalues --  -10.24043 -10.23786 -10.23650 -10.23461 -10.23231
 Alpha  occ. eigenvalues --  -10.22503 -10.21830 -10.21250 -10.21050 -10.21015
 Alpha  occ. eigenvalues --  -10.21015 -10.20967 -10.20951 -10.20896 -10.20729
 Alpha  occ. eigenvalues --  -10.20691 -10.20636 -10.20594 -10.20579 -10.20578
 Alpha  occ. eigenvalues --  -10.20526 -10.20513 -10.20485 -10.20471 -10.20265
 Alpha  occ. eigenvalues --  -10.20242 -10.20216 -10.20193 -10.20171 -10.19983
 Alpha  occ. eigenvalues --  -10.19780 -10.19610 -10.19539 -10.19526 -10.19493
 Alpha  occ. eigenvalues --  -10.19294 -10.19259 -10.19182 -10.19129 -10.18665
 Alpha  occ. eigenvalues --  -10.18619 -10.18569 -10.18501 -10.18336 -10.18324
 Alpha  occ. eigenvalues --  -10.18291 -10.17518 -10.17415 -10.15399  -1.10608
 Alpha  occ. eigenvalues --   -1.08775  -1.02284  -1.01846  -1.01570  -0.97696
 Alpha  occ. eigenvalues --   -0.97555  -0.93108  -0.92161  -0.85180  -0.82306
 Alpha  occ. eigenvalues --   -0.81856  -0.81632  -0.81088  -0.80894  -0.80680
 Alpha  occ. eigenvalues --   -0.79885  -0.79800  -0.79622  -0.78347  -0.77949
 Alpha  occ. eigenvalues --   -0.76506  -0.76072  -0.75694  -0.74794  -0.74493
 Alpha  occ. eigenvalues --   -0.73771  -0.72966  -0.72565  -0.71441  -0.70245
 Alpha  occ. eigenvalues --   -0.69718  -0.68689  -0.68639  -0.68441  -0.67603
 Alpha  occ. eigenvalues --   -0.67454  -0.66543  -0.66218  -0.65016  -0.64651
 Alpha  occ. eigenvalues --   -0.64069  -0.62753  -0.62237  -0.61844  -0.60954
 Alpha  occ. eigenvalues --   -0.60641  -0.59471  -0.58176  -0.57844  -0.56665
 Alpha  occ. eigenvalues --   -0.56577  -0.56379  -0.56066  -0.55291  -0.55112
 Alpha  occ. eigenvalues --   -0.54647  -0.54536  -0.53942  -0.53295  -0.52607
 Alpha  occ. eigenvalues --   -0.52167  -0.51620  -0.50639  -0.50295  -0.50030
 Alpha  occ. eigenvalues --   -0.49462  -0.49258  -0.48969  -0.48617  -0.48084
 Alpha  occ. eigenvalues --   -0.48028  -0.47839  -0.47394  -0.47186  -0.46805
 Alpha  occ. eigenvalues --   -0.46672  -0.46497  -0.46088  -0.45786  -0.45575
 Alpha  occ. eigenvalues --   -0.45389  -0.45192  -0.44952  -0.44896  -0.44717
 Alpha  occ. eigenvalues --   -0.44555  -0.44160  -0.44038  -0.43929  -0.43627
 Alpha  occ. eigenvalues --   -0.43584  -0.43302  -0.43183  -0.42820  -0.42799
 Alpha  occ. eigenvalues --   -0.42470  -0.42366  -0.42147  -0.41991  -0.41545
 Alpha  occ. eigenvalues --   -0.41423  -0.41353  -0.41165  -0.40947  -0.40753
 Alpha  occ. eigenvalues --   -0.40658  -0.40210  -0.40073  -0.39894  -0.39509
 Alpha  occ. eigenvalues --   -0.39348  -0.39213  -0.38972  -0.38852  -0.38613
 Alpha  occ. eigenvalues --   -0.38500  -0.38307  -0.37998  -0.37927  -0.37773
 Alpha  occ. eigenvalues --   -0.37638  -0.37221  -0.36968  -0.36894  -0.36706
 Alpha  occ. eigenvalues --   -0.36358  -0.36073  -0.35932  -0.35787  -0.35493
 Alpha  occ. eigenvalues --   -0.35189  -0.34602  -0.34504  -0.34484  -0.34408
 Alpha  occ. eigenvalues --   -0.34107  -0.34031  -0.33979  -0.33512  -0.33353
 Alpha  occ. eigenvalues --   -0.33074  -0.32826  -0.32796  -0.32614  -0.32506
 Alpha  occ. eigenvalues --   -0.32259  -0.32194  -0.31778  -0.31687  -0.31393
 Alpha  occ. eigenvalues --   -0.31170  -0.30439  -0.30384  -0.30098  -0.29380
 Alpha  occ. eigenvalues --   -0.29123  -0.29065  -0.28766  -0.28457  -0.28436
 Alpha  occ. eigenvalues --   -0.27900  -0.27421  -0.27332  -0.26833  -0.25916
 Alpha  occ. eigenvalues --   -0.25688  -0.23729  -0.23572  -0.23390  -0.19897
 Alpha  occ. eigenvalues --   -0.18425
 Alpha virt. eigenvalues --   -0.10605  -0.07391  -0.04804  -0.01730  -0.00656
 Alpha virt. eigenvalues --   -0.00647   0.00280   0.00559   0.01754   0.03501
 Alpha virt. eigenvalues --    0.03737   0.04067   0.04137   0.04519   0.04863

 Mulliken charges:
               1
     1  C    0.199994
     2  C   -0.022290
     3  C   -0.070519
     4  C   -0.104137
     5  N   -0.223022
     6  C   -0.143367
     7  C    0.020295
     8  C   -0.097676
     9  C    0.076647
    10  C    0.083953
    11  C    0.128135
    12  C    0.074110
    13  C    0.180500
    14  O   -0.186229
    15  O   -0.361925
    16  N   -0.072945
    17  C    0.110174
    18  C   -0.117972
    19  C   -0.055933
    20  C   -0.011250
    21  C    0.035109
    22  C    0.001585
    23  C   -0.101226
    24  N   -0.278858
    25  C    0.114304
    26  C   -0.122206
    27  C   -0.084431
    28  C    0.038801
    29  C    0.084417
    30  C    0.108526
    31  C   -0.030985
    32  N   -0.084171
    33  C    0.152130
    34  C   -0.258721
    35  C    0.135903
    36  C   -0.066768
    37  C    0.135013
    38  C    0.097131
    39  O   -0.188164
    40  C   -0.066328
    41  C    0.170177
    42  O   -0.192924
    43  O   -0.297194
    44  C    0.097194
    45  C    0.295141
    46  C   -0.118521
    47  C   -0.179403
    48  C    0.092386
    49  C    0.077657
    50  C   -0.118305
    51  C    0.075943
    52  C   -0.062865
    53  C   -0.040788
    54  C   -0.064599
    55  C    0.159935
    56  C   -0.048246
    57  C   -0.106129
    58  C    0.053904
    59  C   -0.069485
    60  C    0.044285
    61  C   -0.046412
    62  C   -0.112044
    63  C    0.254342
    64  C   -0.003262
    65  H   -0.076175
    66  H   -0.036113
    67  H   -0.009330
    68  H    0.035009
    69  H    0.021113
    70  H   -0.047692
    71  H    0.025256
    72  H    0.036030
    73  H   -0.035828
    74  H    0.005775
    75  H    0.006363
    76  H    0.006746
    77  H    0.047850
    78  H    0.016052
    79  H    0.047030
    80  H    0.026399
    81  H    0.063809
    82  H    0.048328
    83  H    0.020632
    84  H    0.013584
    85  H    0.028644
    86  H   -0.024521
    87  H    0.004742
    88  H    0.014823
    89  H    0.038503
    90  H    0.019578
    91  H    0.020541
    92  H    0.051609
    93  H    0.007863
    94  H    0.042724
    95  H    0.053675
    96  H    0.046105
    97  H    0.044619
    98  H    0.014445
    99  H   -0.000074
   100  H    0.017038
   101  H    0.015368
   102  H    0.064937
   103  H   -0.012331
   104  H    0.006634
   105  H    0.024118
   106  H    0.028069
   107  H   -0.000380
   108  H   -0.012848
   109  H    0.014443
   110  H    0.005858
   111  H    0.029394
   112  H    0.005321
   113  H    0.049140
   114  H    0.015621
   115  H    0.027439
   116  H   -0.020434
   117  H   -0.015519
   118  H   -0.009947
   119  H   -0.018088
   120  H    0.007319
   121  H    0.008001
   122  H    0.017283
   123  H   -0.024038
   124  H    0.029463
   125  H    0.023009
   126  H   -0.000767
   127  H    0.004467
   128  H   -0.012016
   129  H    0.017681
   130  H    0.002422
   131  H   -0.021827
   132  H   -0.072640
   133  H   -0.040205
   134  H    0.014965
   135  H    0.022283
   136  H   -0.013524
   137  H    0.221332
   138  H    0.136452
 Sum of Mulliken charges =  -0.00000

 Dipole moment (field-independent basis, Debye):
    X=              2.0764    Y=              2.8611    Z=             -0.0862  Tot=              3.5362
 Quadrupole moment (field-independent basis, Debye-Ang):
   XX=           -360.8157   YY=           -387.7278   ZZ=           -395.2697
   XY=            -20.8909   XZ=             -2.7095   YZ=             -1.6106

 Normal termination of Gaussian 16 at Sat Aug 10 13:40:36 2019.
