 Gaussian 16, Revision A.03,
 Gaussian 16:  ES64L-G16RevA.03 25-Dec-2016

 --------------------------
 # td=(NStates=1) B3LYP/SVP
 --------------------------

 --
 TD
 --
 Symbolic Z-matrix:
 Charge =  0 Multiplicity = 1

                         Standard orientation:
 ---------------------------------------------------------------------
 Center     Atomic      Atomic             Coordinates (Angstroms)
 Number     Number       Type             X           Y           Z
 ---------------------------------------------------------------------
      1          6           0       -5.148651   -1.941685    0.475726
      2          6           0       -4.723595    2.732577    1.306328
      3          6           0       -9.316060    3.317554   -0.300300
      4          6           0       -9.798207   -1.375778   -1.023039
      5          7           0       -5.202720    0.361630    0.801372
      6          6           0       -4.547568   -0.740617    0.832453
      7          6           0       -3.086288   -0.585414    1.298306
      8          6           0       -3.073796    0.890691    1.932842
      9          6           0       -4.435434    1.400074    1.386046
     10          6           0       -3.005802    0.967119    3.429920
     11          6           0       -2.046925   -0.781357    0.149739
     12          6           0       -0.657797   -0.865156    0.704555
     13          6           0        0.439798   -1.073859   -0.473525
     14          8           0        0.125486   -1.633282   -1.520356
     15          8           0        1.700589   -0.757245   -0.087280
     16          7           0       -7.079146    2.870373    0.581547
     17          6           0       -5.922195    3.439043    0.985618
     18          6           0       -6.058723    4.805253    1.093048
     19          6           0       -7.491112    5.026179    0.665136
     20          6           0       -8.014861    3.669858    0.167517
     21          6           0       -5.174567    5.856134    1.604553
     22          6           0       -8.196213    6.258869    0.449285
     23          6           0       -9.108193    6.604731   -0.398955
     24          7           0       -9.210504    0.914878   -0.550344
     25          6           0       -9.820434    2.125838   -0.607898
     26          6           0      -11.215941    1.874390   -1.014815
     27          6           0      -11.373558    0.631793   -1.271869
     28          6           0      -10.113186   -0.047734   -0.915223
     29          6           0      -12.138297    2.973028   -1.198982
     30          6           0      -12.529650   -0.194142   -1.771285
     31          6           0      -12.573291   -0.511992   -3.330544
     32          7           0       -7.522128   -1.246463   -0.179930
     33          6           0       -8.615162   -2.006214   -0.615337
     34          6           0       -8.299446   -3.413299   -0.687430
     35          6           0       -6.888150   -3.412576   -0.263469
     36          6           0       -6.421559   -2.038841    0.025923
     37          6           0       -9.053951   -4.631300   -0.913524
     38          6           0       -5.729208   -4.257796    0.046236
     39          8           0       -5.752293   -5.484016    0.053075
     40          6           0       -4.561385   -3.306951    0.440663
     41          6           0       -3.870391   -3.876379    1.622947
     42          8           0       -3.988924   -3.380481    2.773411
     43          8           0       -3.078357   -4.972817    1.453968
     44          6           0       -2.580089   -5.568569    2.670581
     45          6           0        2.751225   -1.151127   -1.107442
     46          6           0        3.955078   -0.669426   -0.527585
     47          6           0        4.853189    0.113656   -1.150590
     48          6           0        4.699140    0.652729   -2.607431
     49          6           0        6.178651    0.511436   -0.409614
     50          6           0        7.401274   -0.343687   -1.021074
     51          6           0        8.680590   -0.038646   -0.232229
     52          6           0        9.993987   -0.663649   -0.763930
     53          6           0        9.990798   -2.158124   -0.933708
     54          6           0       11.184286   -0.228102    0.132165
     55          6           0       12.584486   -0.552424   -0.515941
     56          6           0       13.757795    0.027509    0.292464
     57          6           0       15.222582   -0.118624   -0.329524
     58          6           0       15.607197   -1.677772   -0.404010
     59          6           0       16.251257    0.678724    0.409147
     60          6           0       17.700680    0.574945   -0.170812
     61          6           0       18.736477    1.524353    0.525652
     62          6           0       20.084217    1.549460    0.020912
     63          6           0       20.253592    2.229285   -1.373041
     64          6           0       21.054064    2.179944    1.015991
     65          1           0       -3.960125    3.338465    1.437093
     66          1           0       -9.952607    4.180165   -0.631824
     67          1           0      -10.711238   -2.130250   -1.051935
     68          1           0       -2.765232   -1.294072    1.987759
     69          1           0       -2.267012    1.337609    1.415408
     70          1           0       -1.900831    0.465750    3.749793
     71          1           0       -3.202341    2.028122    3.717156
     72          1           0       -3.822001    0.127919    3.885372
     73          1           0       -2.237423   -1.681481   -0.361867
     74          1           0       -2.030720    0.075783   -0.504113
     75          1           0       -0.178947   -0.010977    1.085362
     76          1           0       -0.677690   -1.571582    1.473520
     77          1           0       -4.101962    5.690783    1.338280
     78          1           0       -5.530319    6.894605    1.484522
     79          1           0       -4.969554    5.616127    2.683653
     80          1           0       -7.709543    7.068778    0.999862
     81          1           0       -9.436202    5.897923   -1.068960
     82          1           0       -9.452964    7.543857   -0.364730
     83          1           0      -12.072493    3.848931   -0.316453
     84          1           0      -12.110988    3.425923   -2.354937
     85          1           0      -13.295529    2.558501   -1.248653
     86          1           0      -12.252418   -1.159972   -1.317210
     87          1           0      -13.585539    0.077427   -1.486397
     88          1           0      -12.414555    0.286704   -3.936958
     89          1           0      -11.832885   -1.229070   -3.641699
     90          1           0      -13.334329   -1.072518   -3.397853
     91          1           0       -9.905170   -4.949040   -0.103117
     92          1           0       -9.509822   -4.696206   -1.930856
     93          1           0       -8.312348   -5.443186   -0.884729
     94          1           0       -3.975043   -3.321891   -0.499166
     95          1           0       -2.155836   -6.567187    2.326675
     96          1           0       -1.835173   -4.829157    3.124767
     97          1           0       -3.433594   -5.761985    3.132109
     98          1           0        2.519544   -2.174836   -1.357507
     99          1           0        2.607972   -0.689677   -2.173692
    100          1           0        3.905549   -0.781410    0.568907
    101          1           0        4.882701    1.779425   -2.759507
    102          1           0        5.572045    0.169787   -3.029204
    103          1           0        3.782045    0.487352   -2.947878
    104          1           0        6.621039    1.611998   -0.711449
    105          1           0        6.151383    0.335699    0.754478
    106          1           0        7.103565   -1.473859   -0.762033
    107          1           0        7.605798   -0.147340   -2.069601
    108          1           0        8.814619    1.175459   -0.085753
    109          1           0        8.877467   -0.229133    0.801595
    110          1           0       10.123528   -0.265183   -1.695734
    111          1           0        9.158197   -2.486394   -1.398407
    112          1           0       10.836872   -2.667316   -1.423419
    113          1           0        9.928516   -2.408350   -0.029686
    114          1           0       11.121318    0.800854    0.298467
    115          1           0       11.191816   -0.543993    1.140456
    116          1           0       12.648328   -1.664013   -0.828556
    117          1           0       12.691428   -0.341616   -1.631306
    118          1           0       13.518540    1.112547    0.528180
    119          1           0       13.792197   -0.612584    1.247255
    120          1           0       15.157897    0.511474   -1.302447
    121          1           0       15.149590   -2.053799   -1.476965
    122          1           0       16.818696   -1.706849   -0.555131
    123          1           0       15.118412   -2.184575    0.550864
    124          1           0       16.011952    1.671153    0.461558
    125          1           0       16.280807    0.372287    1.511988
    126          1           0       18.096585   -0.454072   -0.049842
    127          1           0       17.705450    1.065725   -1.396540
    128          1           0       18.309673    2.618654    0.479609
    129          1           0       18.554368    1.282079    1.546369
    130          1           0       20.404573    0.330175    0.034997
    131          1           0       19.981667    3.249203   -1.151306
    132          1           0       21.321451    2.243798   -1.714398
    133          1           0       19.714026    1.791607   -2.134573
    134          1           0       20.959344    1.620767    2.013683
    135          1           0       22.121859    2.283101    0.667384
    136          1           0       20.886702    3.262156    1.103963
    137          1           0       -7.241253    1.811755    0.217223
    138          1           0       -7.568436   -0.230644   -0.036714
 ---------------------------------------------------------------------

 SCF Done:  E(RB3LYP) =  -2733.02609280     A.U. after   17 cycles

 Excitation energies and oscillator strengths:

 Excited State   1:      Singlet-A      1.9769 eV  627.15 nm  f=0.2634  <S**2>=0.000
     235 -> 237       -0.26638
     235 -> 238        0.22366
     236 -> 237        0.60074
     236 -> 238        0.13235
 This state for optimization and/or second-order correction.
 Total Energy, E(TD-HF/TD-DFT) =  -2732.95344146
 Copying the excited state density for this state as the 1-particle RhoCI density.

 The electronic state is 1-A.
 Alpha  occ. eigenvalues --  -19.18573 -19.17362 -19.12588 -19.12122 -19.11775
 Alpha  occ. eigenvalues --  -14.37476 -14.36688 -14.32207 -14.30057 -10.31965
 Alpha  occ. eigenvalues --  -10.31829 -10.27910 -10.25177 -10.24200 -10.24129
 Alpha  occ. eigenvalues --  -10.23560 -10.23313 -10.23114 -10.22664 -10.22559
 Alpha  occ. eigenvalues --  -10.22559 -10.22163 -10.22067 -10.21806 -10.21665
 Alpha  occ. eigenvalues --  -10.21462 -10.21385 -10.21148 -10.20900 -10.20809
 Alpha  occ. eigenvalues --  -10.20778 -10.20732 -10.20662 -10.20579 -10.20292
 Alpha  occ. eigenvalues --  -10.20278 -10.19979 -10.19973 -10.19816 -10.19778
 Alpha  occ. eigenvalues --  -10.19740 -10.19661 -10.19616 -10.19589 -10.19442
 Alpha  occ. eigenvalues --  -10.19308 -10.19226 -10.19154 -10.18894 -10.18775
 Alpha  occ. eigenvalues --  -10.18748 -10.18736 -10.18666 -10.18318 -10.17994
 Alpha  occ. eigenvalues --  -10.17818 -10.17792 -10.17727 -10.17585 -10.17492
 Alpha  occ. eigenvalues --  -10.17446 -10.16685 -10.16112 -10.15053  -1.08209
 Alpha  occ. eigenvalues --   -1.08188  -1.02062  -0.99787  -0.99591  -0.98126
 Alpha  occ. eigenvalues --   -0.97220  -0.94605  -0.94035  -0.85944  -0.82708
 Alpha  occ. eigenvalues --   -0.82262  -0.81955  -0.81590  -0.81200  -0.80873
 Alpha  occ. eigenvalues --   -0.80234  -0.79926  -0.79795  -0.79604  -0.78056
 Alpha  occ. eigenvalues --   -0.76937  -0.76215  -0.75723  -0.75182  -0.74840
 Alpha  occ. eigenvalues --   -0.73896  -0.73382  -0.72707  -0.71674  -0.70569
 Alpha  occ. eigenvalues --   -0.70286  -0.69832  -0.69324  -0.68838  -0.67881
 Alpha  occ. eigenvalues --   -0.67562  -0.67323  -0.67063  -0.65984  -0.64673
 Alpha  occ. eigenvalues --   -0.63688  -0.62828  -0.62311  -0.62077  -0.61789
 Alpha  occ. eigenvalues --   -0.60960  -0.58947  -0.58593  -0.58401  -0.57736
 Alpha  occ. eigenvalues --   -0.57610  -0.57086  -0.56666  -0.56360  -0.55612
 Alpha  occ. eigenvalues --   -0.54778  -0.54347  -0.53574  -0.53426  -0.53020
 Alpha  occ. eigenvalues --   -0.52679  -0.52385  -0.51780  -0.51416  -0.50732
 Alpha  occ. eigenvalues --   -0.49985  -0.49710  -0.49383  -0.49132  -0.48234
 Alpha  occ. eigenvalues --   -0.48019  -0.47834  -0.47577  -0.47433  -0.47075
 Alpha  occ. eigenvalues --   -0.46873  -0.46589  -0.46215  -0.45782  -0.45654
 Alpha  occ. eigenvalues --   -0.45547  -0.45234  -0.45175  -0.44978  -0.44698
 Alpha  occ. eigenvalues --   -0.44522  -0.44490  -0.44355  -0.44179  -0.44042
 Alpha  occ. eigenvalues --   -0.43703  -0.43396  -0.43129  -0.43027  -0.42841
 Alpha  occ. eigenvalues --   -0.42530  -0.42385  -0.42226  -0.42062  -0.42018
 Alpha  occ. eigenvalues --   -0.41508  -0.41188  -0.41017  -0.40640  -0.40593
 Alpha  occ. eigenvalues --   -0.40255  -0.40154  -0.39982  -0.39638  -0.39622
 Alpha  occ. eigenvalues --   -0.39562  -0.39414  -0.39216  -0.38784  -0.38231
 Alpha  occ. eigenvalues --   -0.38192  -0.38146  -0.37983  -0.37808  -0.37777
 Alpha  occ. eigenvalues --   -0.37632  -0.37504  -0.37136  -0.37098  -0.36791
 Alpha  occ. eigenvalues --   -0.36604  -0.36430  -0.36325  -0.36214  -0.35841
 Alpha  occ. eigenvalues --   -0.35490  -0.35280  -0.35261  -0.34932  -0.34497
 Alpha  occ. eigenvalues --   -0.34457  -0.34311  -0.34185  -0.34063  -0.33917
 Alpha  occ. eigenvalues --   -0.33709  -0.33675  -0.33398  -0.33315  -0.33145
 Alpha  occ. eigenvalues --   -0.32282  -0.32182  -0.31784  -0.31577  -0.31099
 Alpha  occ. eigenvalues --   -0.31053  -0.30933  -0.30319  -0.29889  -0.29618
 Alpha  occ. eigenvalues --   -0.29412  -0.29299  -0.28630  -0.28306  -0.27718
 Alpha  occ. eigenvalues --   -0.27387  -0.27114  -0.26666  -0.26254  -0.25523
 Alpha  occ. eigenvalues --   -0.24885  -0.24748  -0.23686  -0.22594  -0.19905
 Alpha  occ. eigenvalues --   -0.18989
 Alpha virt. eigenvalues --   -0.11173  -0.07268  -0.04301  -0.01632  -0.01215
 Alpha virt. eigenvalues --   -0.00846  -0.00492   0.01113   0.02413   0.03833
 Alpha virt. eigenvalues --    0.04116   0.04126   0.04226   0.04661   0.04827

 Mulliken charges:
               1
     1  C    0.030251
     2  C   -0.008289
     3  C   -0.084704
     4  C   -0.095997
     5  N   -0.148941
     6  C   -0.102705
     7  C   -0.031685
     8  C    0.007175
     9  C    0.007670
    10  C    0.003894
    11  C    0.091383
    12  C    0.050204
    13  C    0.186055
    14  O   -0.255420
    15  O   -0.331858
    16  N   -0.032672
    17  C    0.106010
    18  C   -0.127975
    19  C   -0.011362
    20  C   -0.004999
    21  C    0.116927
    22  C   -0.063840
    23  C    0.068373
    24  N   -0.258159
    25  C    0.086027
    26  C   -0.089781
    27  C    0.002077
    28  C    0.037108
    29  C   -0.068274
    30  C    0.009347
    31  C    0.150757
    32  N   -0.062924
    33  C    0.065043
    34  C   -0.081530
    35  C   -0.018514
    36  C    0.071513
    37  C    0.035614
    38  C    0.003231
    39  O   -0.182264
    40  C    0.054901
    41  C    0.223071
    42  O   -0.283714
    43  O   -0.318108
    44  C    0.232279
    45  C    0.232414
    46  C   -0.060006
    47  C   -0.121382
    48  C    0.131398
    49  C   -0.011656
    50  C    0.007615
    51  C   -0.029055
    52  C   -0.028097
    53  C    0.178572
    54  C    0.078403
    55  C   -0.015050
    56  C    0.013802
    57  C   -0.076407
    58  C   -0.063556
    59  C    0.079800
    60  C   -0.059588
    61  C    0.029302
    62  C   -0.104599
    63  C    0.077873
    64  C    0.026654
    65  H   -0.101108
    66  H   -0.007335
    67  H    0.026563
    68  H   -0.033124
    69  H   -0.019270
    70  H    0.035493
    71  H    0.029787
    72  H    0.059742
    73  H    0.003109
    74  H   -0.008197
    75  H    0.002344
    76  H    0.010268
    77  H    0.012236
    78  H    0.040195
    79  H    0.016777
    80  H   -0.027063
    81  H   -0.007452
    82  H   -0.016719
    83  H    0.061816
    84  H    0.047822
    85  H    0.025131
    86  H   -0.013398
    87  H    0.014254
    88  H   -0.000673
    89  H   -0.020288
    90  H   -0.049073
    91  H    0.059282
    92  H    0.029850
    93  H    0.039180
    94  H    0.069398
    95  H    0.039059
    96  H    0.050726
    97  H   -0.001298
    98  H    0.025786
    99  H    0.026680
   100  H    0.007272
   101  H    0.030601
   102  H    0.022049
   103  H   -0.024048
   104  H    0.023342
   105  H    0.034921
   106  H    0.033522
   107  H    0.022189
   108  H   -0.007243
   109  H   -0.022512
   110  H   -0.047139
   111  H   -0.038495
   112  H    0.012500
   113  H   -0.070023
   114  H   -0.039639
   115  H   -0.023897
   116  H   -0.011863
   117  H   -0.020809
   118  H    0.005732
   119  H    0.000973
   120  H    0.000767
   121  H    0.039219
   122  H    0.043810
   123  H    0.048954
   124  H   -0.038939
   125  H   -0.016531
   126  H    0.019053
   127  H    0.013067
   128  H   -0.017029
   129  H   -0.024567
   130  H   -0.004854
   131  H   -0.002255
   132  H    0.009457
   133  H   -0.000424
   134  H    0.024238
   135  H    0.003824
   136  H   -0.009841
   137  H    0.205104
   138  H    0.137379
 Sum of Mulliken charges =  -0.00000

 Dipole moment (field-independent basis, Debye):
    X=              2.9587    Y=              3.5728    Z=             -0.4159  Tot=              4.6574
 Quadrupole moment (field-independent basis, Debye-Ang):
   XX=           -362.1103   YY=           -386.0979   ZZ=           -395.0800
   XY=             -5.4096   XZ=             12.2444   YZ=             -1.2097

 Normal termination of Gaussian 16 at Sat Aug 17 06:55:27 2019.
