 Gaussian 16, Revision A.03,
 Gaussian 16:  ES64L-G16RevA.03 25-Dec-2016

 --------------------------
 # td=(NStates=1) B3LYP/SVP
 --------------------------

 --
 TD
 --
 Symbolic Z-matrix:
 Charge =  0 Multiplicity = 1

                         Standard orientation:
 ---------------------------------------------------------------------
 Center     Atomic      Atomic             Coordinates (Angstroms)
 Number     Number       Type             X           Y           Z
 ---------------------------------------------------------------------
      1          6           0       -5.143673   -1.941030    0.572655
      2          6           0       -4.637790    2.760383    1.368479
      3          6           0       -9.243858    3.325547   -0.271145
      4          6           0       -9.867515   -1.504081   -0.825988
      5          7           0       -5.202674    0.471521    0.866531
      6          6           0       -4.496562   -0.803063    0.832461
      7          6           0       -3.034830   -0.624114    1.391362
      8          6           0       -3.114287    0.813951    1.929584
      9          6           0       -4.418592    1.329734    1.441202
     10          6           0       -3.110565    0.825079    3.448409
     11          6           0       -2.006972   -0.783035    0.193822
     12          6           0       -0.596891   -0.785519    0.520296
     13          6           0        0.384439   -0.896349   -0.736528
     14          8           0        0.045435   -1.029192   -1.887205
     15          8           0        1.685755   -0.837193   -0.360863
     16          7           0       -6.947535    2.817656    0.494813
     17          6           0       -5.811038    3.480334    0.977767
     18          6           0       -6.156068    4.795496    1.037973
     19          6           0       -7.439724    4.946979    0.571780
     20          6           0       -7.988199    3.633556    0.342402
     21          6           0       -5.201063    5.921037    1.361471
     22          6           0       -8.061421    6.287645    0.302216
     23          6           0       -9.105741    6.612562   -0.496488
     24          7           0       -9.243365    0.904850   -0.439534
     25          6           0       -9.870167    2.153920   -0.505758
     26          6           0      -11.263642    1.922996   -0.950545
     27          6           0      -11.463856    0.521697   -1.020458
     28          6           0      -10.101277   -0.048548   -0.711275
     29          6           0      -12.291969    2.940296   -1.106375
     30          6           0      -12.760530   -0.200273   -1.461312
     31          6           0      -12.622255   -0.393266   -3.072341
     32          7           0       -7.559805   -1.304848   -0.179077
     33          6           0       -8.610533   -2.114294   -0.571457
     34          6           0       -8.203303   -3.350441   -0.719463
     35          6           0       -6.895061   -3.354710   -0.184190
     36          6           0       -6.471581   -2.093671    0.129604
     37          6           0       -9.043723   -4.680472   -1.087006
     38          6           0       -5.815685   -4.305486   -0.045511
     39          8           0       -5.669023   -5.487732   -0.280560
     40          6           0       -4.504640   -3.322858    0.514814
     41          6           0       -4.122694   -3.986786    1.748992
     42          8           0       -4.425821   -3.616870    2.912178
     43          8           0       -3.154843   -4.872148    1.609240
     44          6           0       -2.735631   -5.558038    2.745924
     45          6           0        2.724104   -0.938409   -1.440109
     46          6           0        4.028973   -0.641185   -0.621896
     47          6           0        4.995543    0.138498   -1.257782
     48          6           0        4.899772    0.765681   -2.664363
     49          6           0        6.303073    0.300649   -0.478297
     50          6           0        7.577497   -0.251579   -1.282562
     51          6           0        8.747023   -0.179982   -0.287626
     52          6           0       10.029799   -0.627405   -0.951292
     53          6           0       10.058576   -2.178110   -1.443868
     54          6           0       11.336229   -0.340101   -0.157526
     55          6           0       12.645242   -0.454713   -0.783416
     56          6           0       13.851705   -0.017490    0.215871
     57          6           0       15.211789   -0.304458   -0.354358
     58          6           0       15.541928   -1.689262   -0.577020
     59          6           0       16.302487    0.406849    0.591575
     60          6           0       17.713073    0.617808    0.057051
     61          6           0       18.747318    1.455250    0.906780
     62          6           0       20.086964    1.646568    0.315475
     63          6           0       20.220989    2.462270   -0.994027
     64          6           0       21.025429    2.122563    1.431732
     65          1           0       -4.097904    3.385664    2.036670
     66          1           0       -9.871990    4.133418   -0.495663
     67          1           0      -10.677705   -2.119225   -1.109295
     68          1           0       -2.663258   -1.272950    2.099742
     69          1           0       -2.195251    1.729697    1.716040
     70          1           0       -2.125898    0.588925    3.806718
     71          1           0       -3.346187    1.979043    3.647159
     72          1           0       -3.947799    0.130568    3.835509
     73          1           0       -2.237985   -1.675857   -0.355626
     74          1           0       -1.930340   -0.001726   -0.480240
     75          1           0       -0.247470   -0.017203    1.252929
     76          1           0       -0.292531   -1.684341    0.997729
     77          1           0       -4.500581    6.111043    0.469776
     78          1           0       -5.533264    7.008793    1.600178
     79          1           0       -4.538941    5.691668    2.349214
     80          1           0       -7.620065    6.953388    0.947929
     81          1           0       -9.802080    5.949186   -1.334273
     82          1           0       -9.387242    7.787837   -0.561194
     83          1           0      -12.394386    3.615939   -0.328233
     84          1           0      -12.111967    3.588933   -2.068300
     85          1           0      -13.206374    2.357277   -1.136109
     86          1           0      -13.214695   -1.167380   -0.986205
     87          1           0      -13.549552    0.643898   -1.437979
     88          1           0      -12.642896    0.526714   -3.610941
     89          1           0      -11.577470   -0.889139   -2.953827
     90          1           0      -13.426511   -1.109236   -3.322367
     91          1           0      -10.058038   -4.832827   -0.443617
     92          1           0       -9.490457   -4.371858   -2.218784
     93          1           0       -8.450721   -5.656034   -1.120693
     94          1           0       -3.666297   -3.514974   -0.180498
     95          1           0       -2.034201   -6.382744    2.411478
     96          1           0       -2.185111   -4.982752    3.631640
     97          1           0       -3.498755   -6.073017    3.400760
     98          1           0        2.540486   -1.909080   -1.877658
     99          1           0        2.479250   -0.076141   -2.132898
    100          1           0        4.127775   -1.211577    0.373208
    101          1           0        5.300978    1.854855   -2.552612
    102          1           0        5.793972    0.564030   -3.415738
    103          1           0        3.916573    0.711445   -3.002830
    104          1           0        6.447059    1.363418   -0.168063
    105          1           0        6.326606   -0.143618    0.710602
    106          1           0        7.248671   -1.203481   -1.783524
    107          1           0        7.861658    0.353650   -2.158096
    108          1           0        8.931599    0.926288    0.118174
    109          1           0        8.407607   -0.828343    0.610628
    110          1           0       10.112795   -0.067774   -1.929426
    111          1           0        9.423117   -2.391482   -2.343585
    112          1           0       11.199643   -2.628843   -1.775406
    113          1           0        9.562291   -2.697828   -0.440011
    114          1           0       11.343086    0.822435    0.320545
    115          1           0       11.134439   -1.169749    0.746558
    116          1           0       12.704541   -1.538062   -1.370039
    117          1           0       12.739420    0.183307   -1.686762
    118          1           0       13.847937    1.040486    0.507810
    119          1           0       13.646417   -0.564270    1.194408
    120          1           0       15.366554    0.127200   -1.252396
    121          1           0       14.997764   -2.243012   -1.397068
    122          1           0       16.636377   -1.648791   -0.860575
    123          1           0       15.562756   -2.220922    0.342786
    124          1           0       16.026452    1.267028    1.046565
    125          1           0       16.347337   -0.199484    1.452748
    126          1           0       18.268922   -0.334808   -0.132064
    127          1           0       17.945408    0.904365   -0.957425
    128          1           0       18.303255    2.465319    1.286607
    129          1           0       18.865875    0.965336    1.982087
    130          1           0       20.452156    0.408828   -0.018474
    131          1           0       20.094576    3.607650   -0.785840
    132          1           0       21.305147    2.485032   -1.174464
    133          1           0       19.550773    2.010445   -1.826950
    134          1           0       21.232377    1.494132    2.277338
    135          1           0       21.946362    2.292627    1.128432
    136          1           0       20.801145    3.045969    1.905601
    137          1           0       -6.874073    1.706670    0.481777
    138          1           0       -7.903211   -0.344867    0.016662
 ---------------------------------------------------------------------

 SCF Done:  E(RB3LYP) =  -2733.03086805     A.U. after   18 cycles

 Excitation energies and oscillator strengths:

 Excited State   1:      Singlet-A      1.9419 eV  638.48 nm  f=0.2285  <S**2>=0.000
     235 -> 237       -0.16331
     235 -> 238        0.18499
     236 -> 237        0.65265
     236 -> 238        0.12599
     236 <- 237       -0.10780
 This state for optimization and/or second-order correction.
 Total Energy, E(TD-HF/TD-DFT) =  -2732.95950540
 Copying the excited state density for this state as the 1-particle RhoCI density.

 The electronic state is 1-A.
 Alpha  occ. eigenvalues --  -19.18299 -19.16458 -19.13252 -19.12014 -19.10325
 Alpha  occ. eigenvalues --  -14.36956 -14.36218 -14.33343 -14.30223 -10.31090
 Alpha  occ. eigenvalues --  -10.30634 -10.28619 -10.25267 -10.24993 -10.24305
 Alpha  occ. eigenvalues --  -10.23791 -10.23706 -10.23691 -10.23362 -10.22875
 Alpha  occ. eigenvalues --  -10.22628 -10.22585 -10.22321 -10.22197 -10.21957
 Alpha  occ. eigenvalues --  -10.21614 -10.21564 -10.21399 -10.21269 -10.21198
 Alpha  occ. eigenvalues --  -10.21173 -10.21149 -10.20999 -10.20989 -10.20930
 Alpha  occ. eigenvalues --  -10.20907 -10.20887 -10.20750 -10.20643 -10.20428
 Alpha  occ. eigenvalues --  -10.20406 -10.20340 -10.20307 -10.19993 -10.19986
 Alpha  occ. eigenvalues --  -10.19924 -10.19906 -10.19765 -10.19764 -10.19688
 Alpha  occ. eigenvalues --  -10.19564 -10.19505 -10.19296 -10.19130 -10.19080
 Alpha  occ. eigenvalues --  -10.18925 -10.18830 -10.18762 -10.17993 -10.17978
 Alpha  occ. eigenvalues --  -10.17396 -10.17048 -10.16968 -10.16097  -1.10497
 Alpha  occ. eigenvalues --   -1.07786  -1.03126  -0.99374  -0.99127  -0.98965
 Alpha  occ. eigenvalues --   -0.97366  -0.94700  -0.93637  -0.85315  -0.82185
 Alpha  occ. eigenvalues --   -0.81982  -0.81835  -0.81472  -0.80935  -0.80399
 Alpha  occ. eigenvalues --   -0.80396  -0.79844  -0.79427  -0.78893  -0.77992
 Alpha  occ. eigenvalues --   -0.76674  -0.76404  -0.76080  -0.74503  -0.74275
 Alpha  occ. eigenvalues --   -0.74035  -0.73263  -0.72653  -0.71109  -0.69809
 Alpha  occ. eigenvalues --   -0.69395  -0.68832  -0.68648  -0.67895  -0.67795
 Alpha  occ. eigenvalues --   -0.67646  -0.67326  -0.66627  -0.65910  -0.64603
 Alpha  occ. eigenvalues --   -0.64180  -0.63090  -0.62377  -0.61740  -0.60881
 Alpha  occ. eigenvalues --   -0.60760  -0.59787  -0.59279  -0.58580  -0.57414
 Alpha  occ. eigenvalues --   -0.57143  -0.56367  -0.56219  -0.55419  -0.54920
 Alpha  occ. eigenvalues --   -0.54213  -0.54007  -0.53503  -0.53429  -0.52968
 Alpha  occ. eigenvalues --   -0.52368  -0.51880  -0.51617  -0.50570  -0.50161
 Alpha  occ. eigenvalues --   -0.49814  -0.49658  -0.48692  -0.48433  -0.47923
 Alpha  occ. eigenvalues --   -0.47382  -0.47281  -0.47127  -0.46788  -0.46733
 Alpha  occ. eigenvalues --   -0.46493  -0.45871  -0.45676  -0.45587  -0.45524
 Alpha  occ. eigenvalues --   -0.45338  -0.45241  -0.45178  -0.44928  -0.44771
 Alpha  occ. eigenvalues --   -0.44449  -0.44169  -0.44037  -0.43618  -0.43538
 Alpha  occ. eigenvalues --   -0.43381  -0.43032  -0.42888  -0.42806  -0.42494
 Alpha  occ. eigenvalues --   -0.42326  -0.42047  -0.41786  -0.41537  -0.41327
 Alpha  occ. eigenvalues --   -0.41184  -0.40847  -0.40623  -0.40533  -0.40463
 Alpha  occ. eigenvalues --   -0.40393  -0.39988  -0.39862  -0.39687  -0.39544
 Alpha  occ. eigenvalues --   -0.39370  -0.39090  -0.38912  -0.38803  -0.38572
 Alpha  occ. eigenvalues --   -0.38444  -0.38288  -0.38022  -0.37897  -0.37524
 Alpha  occ. eigenvalues --   -0.37403  -0.37251  -0.36921  -0.36720  -0.36357
 Alpha  occ. eigenvalues --   -0.36223  -0.36092  -0.36011  -0.35848  -0.35701
 Alpha  occ. eigenvalues --   -0.35684  -0.35395  -0.35215  -0.34945  -0.34818
 Alpha  occ. eigenvalues --   -0.34695  -0.34648  -0.34330  -0.34056  -0.33685
 Alpha  occ. eigenvalues --   -0.33670  -0.33461  -0.32673  -0.32497  -0.32292
 Alpha  occ. eigenvalues --   -0.31996  -0.31822  -0.31648  -0.31597  -0.31587
 Alpha  occ. eigenvalues --   -0.31070  -0.30937  -0.30271  -0.30001  -0.29256
 Alpha  occ. eigenvalues --   -0.29233  -0.28934  -0.28789  -0.28423  -0.27936
 Alpha  occ. eigenvalues --   -0.27236  -0.26996  -0.26327  -0.26231  -0.26140
 Alpha  occ. eigenvalues --   -0.24587  -0.24392  -0.24341  -0.22642  -0.21394
 Alpha  occ. eigenvalues --   -0.18953
 Alpha virt. eigenvalues --   -0.11682  -0.07888  -0.04975  -0.01824  -0.01097
 Alpha virt. eigenvalues --   -0.00594   0.00004   0.01379   0.01899   0.03209
 Alpha virt. eigenvalues --    0.03220   0.03552   0.03735   0.04226   0.04303

 Mulliken charges:
               1
     1  C    0.099850
     2  C    0.006356
     3  C   -0.033147
     4  C   -0.033371
     5  N   -0.196707
     6  C   -0.081811
     7  C    0.094609
     8  C   -0.157840
     9  C    0.024941
    10  C    0.038921
    11  C    0.111788
    12  C    0.028693
    13  C    0.154819
    14  O   -0.234902
    15  O   -0.354192
    16  N   -0.106416
    17  C    0.026163
    18  C   -0.048193
    19  C   -0.026922
    20  C    0.100011
    21  C   -0.026170
    22  C    0.050400
    23  C   -0.118231
    24  N   -0.230946
    25  C    0.069222
    26  C   -0.127414
    27  C   -0.095317
    28  C    0.026887
    29  C    0.126682
    30  C   -0.029165
    31  C   -0.006888
    32  N   -0.064159
    33  C    0.074985
    34  C   -0.102085
    35  C    0.006740
    36  C    0.145004
    37  C   -0.024151
    38  C    0.043885
    39  O   -0.160608
    40  C   -0.142596
    41  C    0.219806
    42  O   -0.289668
    43  O   -0.243937
    44  C    0.136705
    45  C    0.242938
    46  C   -0.102580
    47  C   -0.104112
    48  C    0.076164
    49  C   -0.010333
    50  C   -0.009578
    51  C    0.012379
    52  C   -0.054388
    53  C   -0.094145
    54  C   -0.032374
    55  C    0.007976
    56  C    0.045140
    57  C   -0.003078
    58  C    0.064006
    59  C    0.127231
    60  C    0.053044
    61  C   -0.010216
    62  C   -0.176046
    63  C    0.024864
    64  C    0.135895
    65  H   -0.031251
    66  H   -0.074200
    67  H   -0.033846
    68  H   -0.022425
    69  H    0.035919
    70  H    0.018553
    71  H    0.015726
    72  H    0.050060
    73  H   -0.000895
    74  H   -0.011417
    75  H    0.023722
    76  H   -0.003279
    77  H    0.050704
    78  H    0.034620
    79  H    0.042478
    80  H   -0.023714
    81  H    0.078073
    82  H    0.044551
    83  H    0.003933
    84  H    0.028647
    85  H   -0.007324
    86  H    0.046760
    87  H    0.008986
    88  H    0.026752
    89  H    0.027599
    90  H    0.019216
    91  H    0.056861
    92  H    0.042585
    93  H    0.070720
    94  H    0.061742
    95  H    0.032091
    96  H    0.030590
    97  H    0.031134
    98  H    0.035507
    99  H    0.042617
   100  H    0.036038
   101  H    0.018204
   102  H    0.044579
   103  H    0.004285
   104  H    0.008098
   105  H    0.017458
   106  H    0.024706
   107  H   -0.002462
   108  H    0.022153
   109  H    0.012361
   110  H   -0.014136
   111  H    0.031348
   112  H    0.047795
   113  H    0.032609
   114  H    0.010903
   115  H    0.009889
   116  H    0.005915
   117  H   -0.010737
   118  H   -0.004235
   119  H   -0.002477
   120  H   -0.050650
   121  H    0.022536
   122  H   -0.009714
   123  H   -0.018899
   124  H   -0.050956
   125  H   -0.036042
   126  H   -0.024037
   127  H   -0.044307
   128  H   -0.006639
   129  H   -0.000898
   130  H    0.000535
   131  H    0.012002
   132  H    0.010429
   133  H    0.046997
   134  H   -0.007851
   135  H   -0.057001
   136  H   -0.017340
   137  H    0.198286
   138  H    0.145044
 Sum of Mulliken charges =  -0.00000

 Dipole moment (field-independent basis, Debye):
    X=              2.1941    Y=              5.2995    Z=              0.1123  Tot=              5.7368
 Quadrupole moment (field-independent basis, Debye-Ang):
   XX=           -330.0062   YY=           -382.4184   ZZ=           -398.3120
   XY=            -14.0869   XZ=              5.3361   YZ=              1.4286

 Normal termination of Gaussian 16 at Wed Aug 14 18:25:46 2019.
