 Gaussian 16, Revision A.03,
 Gaussian 16:  ES64L-G16RevA.03 25-Dec-2016

 --------------------------
 # td=(NStates=1) B3LYP/SVP
 --------------------------

 --
 TD
 --
 Symbolic Z-matrix:
 Charge =  0 Multiplicity = 1

                         Standard orientation:
 ---------------------------------------------------------------------
 Center     Atomic      Atomic             Coordinates (Angstroms)
 Number     Number       Type             X           Y           Z
 ---------------------------------------------------------------------
      1          6           0       -4.985845   -1.903125    0.472711
      2          6           0       -4.698598    2.841473    1.166437
      3          6           0       -9.357080    3.386721   -0.312635
      4          6           0       -9.853981   -1.521604   -0.937226
      5          7           0       -5.174387    0.466635    0.846438
      6          6           0       -4.536275   -0.718626    0.984556
      7          6           0       -3.040730   -0.458169    1.398111
      8          6           0       -3.124562    1.045741    1.762250
      9          6           0       -4.354637    1.521539    1.225656
     10          6           0       -3.040466    1.142043    3.257701
     11          6           0       -2.114377   -0.837262    0.113937
     12          6           0       -0.563169   -0.647005    0.598809
     13          6           0        0.391028   -0.930992   -0.643445
     14          8           0        0.137300   -1.248574   -1.782248
     15          8           0        1.664729   -0.907001   -0.126184
     16          7           0       -7.062251    2.711806    0.417567
     17          6           0       -6.039044    3.353566    0.901055
     18          6           0       -6.307318    4.845400    0.967926
     19          6           0       -7.571953    4.997227    0.490626
     20          6           0       -8.122898    3.639249    0.091687
     21          6           0       -5.343222    5.840572    1.527130
     22          6           0       -8.278048    6.299733    0.309924
     23          6           0       -9.164995    6.680458   -0.586253
     24          7           0       -9.279244    0.903732   -0.515200
     25          6           0       -9.900075    2.075768   -0.612909
     26          6           0      -11.333035    1.811137   -1.033734
     27          6           0      -11.460147    0.436484   -1.139295
     28          6           0      -10.147714   -0.161733   -0.845890
     29          6           0      -12.338914    2.824037   -1.136485
     30          6           0      -12.694902   -0.403991   -1.559398
     31          6           0      -12.728633   -0.781376   -3.118733
     32          7           0       -7.471235   -1.276058   -0.335012
     33          6           0       -8.530334   -2.118587   -0.688510
     34          6           0       -8.125615   -3.508757   -0.588675
     35          6           0       -6.758054   -3.439957   -0.236610
     36          6           0       -6.396603   -2.045674   -0.106310
     37          6           0       -9.056485   -4.731714   -0.895103
     38          6           0       -5.649474   -4.351133    0.006208
     39          8           0       -5.626893   -5.533420   -0.025596
     40          6           0       -4.440454   -3.342401    0.557215
     41          6           0       -3.895640   -3.708186    1.797696
     42          8           0       -4.054011   -3.187252    2.898998
     43          8           0       -3.075054   -4.755210    1.672549
     44          6           0       -2.248747   -5.103107    2.895650
     45          6           0        2.733385   -1.149819   -0.981876
     46          6           0        4.073126   -0.953984   -0.434385
     47          6           0        5.016370   -0.076039   -0.859063
     48          6           0        4.828346    0.807969   -2.211603
     49          6           0        6.312745    0.151839   -0.207544
     50          6           0        7.445509   -0.417519   -0.989183
     51          6           0        8.824124   -0.339737   -0.118366
     52          6           0       10.061831   -0.750849   -0.902625
     53          6           0       10.058747   -2.233206   -1.274973
     54          6           0       11.257285   -0.336049   -0.029717
     55          6           0       12.642271   -0.487519   -0.690619
     56          6           0       13.827167    0.094094    0.142818
     57          6           0       15.216266   -0.134534   -0.339643
     58          6           0       15.614668   -1.635265   -0.642974
     59          6           0       16.328921    0.583645    0.514232
     60          6           0       17.595952    0.710587   -0.193762
     61          6           0       18.625512    1.536059    0.606425
     62          6           0       20.125944    1.567715    0.085463
     63          6           0       20.107494    2.363226   -1.332503
     64          6           0       20.908560    2.385693    1.121811
     65          1           0       -3.946220    3.495947    1.740930
     66          1           0      -10.213379    3.998794   -0.572688
     67          1           0      -10.689096   -2.174552   -1.192202
     68          1           0       -2.813778   -1.100775    2.055839
     69          1           0       -2.195579    1.532244    1.371010
     70          1           0       -1.934167    0.811885    3.562608
     71          1           0       -3.095341    2.159052    3.609884
     72          1           0       -3.749857    0.318631    3.400273
     73          1           0       -2.253252   -1.995452   -0.156398
     74          1           0       -2.531591    0.025135   -0.528839
     75          1           0       -0.217130    0.366429    0.737066
     76          1           0       -0.218266   -1.314750    1.344368
     77          1           0       -4.533500    6.025983    0.935884
     78          1           0       -5.832286    6.679979    1.594831
     79          1           0       -4.986189    5.573953    2.421379
     80          1           0       -7.883652    7.119068    0.953018
     81          1           0       -9.495770    6.029796   -1.451083
     82          1           0       -9.626576    7.686790   -0.645863
     83          1           0      -12.338990    3.716288   -0.449429
     84          1           0      -12.311899    3.345439   -2.203155
     85          1           0      -13.338292    2.196128   -1.335035
     86          1           0      -12.864540   -1.448828   -0.922422
     87          1           0      -13.679474    0.028059   -1.204027
     88          1           0      -12.723921    0.050196   -3.703431
     89          1           0      -11.932264   -1.438960   -3.406121
     90          1           0      -13.764007   -1.436058   -3.270404
     91          1           0       -9.690198   -5.007596   -0.000071
     92          1           0       -9.572955   -4.370465   -1.910280
     93          1           0       -8.245545   -5.592397   -1.081842
     94          1           0       -3.696891   -3.627761   -0.297096
     95          1           0       -1.509191   -5.657649    2.523202
     96          1           0       -1.614778   -4.163680    3.181197
     97          1           0       -2.851758   -5.596764    3.655527
     98          1           0        2.755158   -2.188251   -1.223252
     99          1           0        2.647815   -0.590983   -1.858857
    100          1           0        4.031248   -1.300720    0.612559
    101          1           0        5.199437    2.094659   -1.762425
    102          1           0        5.572105    0.482095   -2.909176
    103          1           0        4.060197    0.739000   -2.540381
    104          1           0        6.469458    1.204302    0.227836
    105          1           0        6.434897   -0.513254    0.797050
    106          1           0        7.400575   -1.564384   -1.162977
    107          1           0        7.528500    0.046661   -1.935801
    108          1           0        9.079368    0.660445    0.474283
    109          1           0        8.951165   -0.956458    0.793738
    110          1           0       10.085976   -0.242596   -1.802371
    111          1           0        9.163403   -2.614649   -2.010345
    112          1           0       10.905313   -2.439173   -1.859316
    113          1           0        9.955506   -2.853626   -0.356763
    114          1           0       11.059050    0.654352    0.377588
    115          1           0       11.325310   -0.802501    1.028927
    116          1           0       12.776551   -1.455257   -0.703906
    117          1           0       12.525229   -0.023904   -1.748892
    118          1           0       13.712527    1.160430    0.423353
    119          1           0       13.794042   -0.562628    1.126530
    120          1           0       15.425056    0.294076   -1.343718
    121          1           0       15.023565   -2.149241   -1.555054
    122          1           0       16.769106   -1.752251   -0.873877
    123          1           0       15.050662   -2.249447    0.255333
    124          1           0       15.719417    1.480654    0.772035
    125          1           0       16.389958    0.213663    1.475979
    126          1           0       17.971499   -0.299747   -0.358662
    127          1           0       17.482758    1.139161   -1.149305
    128          1           0       18.374019    2.603447    0.549001
    129          1           0       18.714746    1.245645    1.632504
    130          1           0       20.561617    0.525210    0.153726
    131          1           0       19.742243    3.403815   -1.033663
    132          1           0       21.048181    2.568095   -1.598751
    133          1           0       19.492195    1.828477   -2.198171
    134          1           0       20.997840    1.701262    1.980876
    135          1           0       21.932624    2.523086    0.774734
    136          1           0       20.575312    3.322718    1.381157
    137          1           0       -7.251522    1.750528    0.708406
    138          1           0       -7.319895   -0.192324   -0.389203
 ---------------------------------------------------------------------

 SCF Done:  E(RB3LYP) =  -2732.98391559     A.U. after   17 cycles

 Excitation energies and oscillator strengths:

 Excited State   1:      Singlet-A      2.1035 eV  589.41 nm  f=0.1830  <S**2>=0.000
     235 -> 237       -0.16425
     235 -> 238        0.26767
     236 -> 237        0.62155
     236 -> 238        0.12016
 This state for optimization and/or second-order correction.
 Total Energy, E(TD-HF/TD-DFT) =  -2732.90661271
 Copying the excited state density for this state as the 1-particle RhoCI density.

 The electronic state is 1-A.
 Alpha  occ. eigenvalues --  -19.17169 -19.16487 -19.12980 -19.12905 -19.10495
 Alpha  occ. eigenvalues --  -14.38237 -14.37940 -14.31521 -14.29961 -10.31661
 Alpha  occ. eigenvalues --  -10.29909 -10.28246 -10.25397 -10.24914 -10.24350
 Alpha  occ. eigenvalues --  -10.23761 -10.23689 -10.22793 -10.22362 -10.21991
 Alpha  occ. eigenvalues --  -10.21908 -10.21905 -10.21761 -10.21730 -10.21650
 Alpha  occ. eigenvalues --  -10.21469 -10.21439 -10.21424 -10.21344 -10.21295
 Alpha  occ. eigenvalues --  -10.21204 -10.20963 -10.20744 -10.20520 -10.20515
 Alpha  occ. eigenvalues --  -10.20398 -10.20393 -10.20304 -10.19830 -10.19826
 Alpha  occ. eigenvalues --  -10.19817 -10.19615 -10.19497 -10.19247 -10.19144
 Alpha  occ. eigenvalues --  -10.19099 -10.19072 -10.18973 -10.18896 -10.18664
 Alpha  occ. eigenvalues --  -10.18637 -10.18605 -10.18522 -10.18446 -10.18369
 Alpha  occ. eigenvalues --  -10.18235 -10.18136 -10.18081 -10.17905 -10.17809
 Alpha  occ. eigenvalues --  -10.17375 -10.17206 -10.16926 -10.16894  -1.09144
 Alpha  occ. eigenvalues --   -1.07708  -1.04744  -1.00945  -0.99186  -0.97786
 Alpha  occ. eigenvalues --   -0.97619  -0.93722  -0.92316  -0.83175  -0.82936
 Alpha  occ. eigenvalues --   -0.82572  -0.81950  -0.81111  -0.81095  -0.80491
 Alpha  occ. eigenvalues --   -0.79316  -0.79127  -0.78856  -0.78433  -0.77973
 Alpha  occ. eigenvalues --   -0.77335  -0.76486  -0.76047  -0.75067  -0.74389
 Alpha  occ. eigenvalues --   -0.73177  -0.73107  -0.72858  -0.71882  -0.71537
 Alpha  occ. eigenvalues --   -0.69739  -0.69134  -0.68652  -0.68060  -0.67516
 Alpha  occ. eigenvalues --   -0.66922  -0.66732  -0.66051  -0.65896  -0.65017
 Alpha  occ. eigenvalues --   -0.63761  -0.62757  -0.62146  -0.61921  -0.61276
 Alpha  occ. eigenvalues --   -0.60664  -0.59358  -0.58492  -0.58364  -0.57585
 Alpha  occ. eigenvalues --   -0.57060  -0.56983  -0.56560  -0.56369  -0.55421
 Alpha  occ. eigenvalues --   -0.54966  -0.54297  -0.54093  -0.53529  -0.53396
 Alpha  occ. eigenvalues --   -0.52433  -0.52187  -0.51218  -0.50760  -0.50569
 Alpha  occ. eigenvalues --   -0.49760  -0.49339  -0.49257  -0.48595  -0.48136
 Alpha  occ. eigenvalues --   -0.47861  -0.47773  -0.47413  -0.47367  -0.47140
 Alpha  occ. eigenvalues --   -0.46797  -0.46575  -0.46084  -0.45910  -0.45746
 Alpha  occ. eigenvalues --   -0.45359  -0.45238  -0.45184  -0.44728  -0.44410
 Alpha  occ. eigenvalues --   -0.44352  -0.44152  -0.43926  -0.43803  -0.43623
 Alpha  occ. eigenvalues --   -0.43524  -0.43398  -0.43086  -0.42987  -0.42776
 Alpha  occ. eigenvalues --   -0.42601  -0.42413  -0.42286  -0.41925  -0.41777
 Alpha  occ. eigenvalues --   -0.41491  -0.41450  -0.41219  -0.41022  -0.40596
 Alpha  occ. eigenvalues --   -0.40534  -0.40194  -0.39879  -0.39693  -0.39561
 Alpha  occ. eigenvalues --   -0.39120  -0.39052  -0.38885  -0.38475  -0.38376
 Alpha  occ. eigenvalues --   -0.38355  -0.38125  -0.37872  -0.37773  -0.37515
 Alpha  occ. eigenvalues --   -0.37470  -0.37190  -0.36967  -0.36698  -0.36559
 Alpha  occ. eigenvalues --   -0.36424  -0.35973  -0.35904  -0.35793  -0.35547
 Alpha  occ. eigenvalues --   -0.35376  -0.35082  -0.35078  -0.34789  -0.34688
 Alpha  occ. eigenvalues --   -0.34330  -0.34021  -0.33595  -0.33556  -0.33520
 Alpha  occ. eigenvalues --   -0.33384  -0.33193  -0.32831  -0.32638  -0.32607
 Alpha  occ. eigenvalues --   -0.32469  -0.31892  -0.31814  -0.31498  -0.31389
 Alpha  occ. eigenvalues --   -0.31199  -0.30974  -0.30517  -0.30440  -0.29669
 Alpha  occ. eigenvalues --   -0.29615  -0.29164  -0.28519  -0.27777  -0.27602
 Alpha  occ. eigenvalues --   -0.26739  -0.26430  -0.26254  -0.25916  -0.25421
 Alpha  occ. eigenvalues --   -0.24940  -0.24723  -0.24492  -0.22275  -0.20332
 Alpha  occ. eigenvalues --   -0.18697
 Alpha virt. eigenvalues --   -0.10092  -0.07762  -0.03830  -0.01860  -0.00744
 Alpha virt. eigenvalues --   -0.00270   0.00356   0.00666   0.02142   0.03425
 Alpha virt. eigenvalues --    0.03597   0.03767   0.04343   0.04469   0.04971

 Mulliken charges:
               1
     1  C    0.060478
     2  C   -0.070354
     3  C   -0.053227
     4  C   -0.054000
     5  N   -0.213785
     6  C   -0.067559
     7  C    0.034386
     8  C   -0.000928
     9  C    0.020446
    10  C    0.053119
    11  C   -0.004952
    12  C    0.039570
    13  C    0.168841
    14  O   -0.216967
    15  O   -0.327575
    16  N   -0.019508
    17  C    0.018650
    18  C   -0.197505
    19  C    0.038429
    20  C    0.208868
    21  C    0.337721
    22  C   -0.032684
    23  C   -0.062166
    24  N   -0.229794
    25  C   -0.076532
    26  C   -0.110855
    27  C   -0.036510
    28  C    0.063516
    29  C    0.019508
    30  C   -0.054691
    31  C    0.032047
    32  N   -0.060142
    33  C    0.064349
    34  C   -0.124536
    35  C   -0.069423
    36  C    0.035216
    37  C    0.015203
    38  C    0.071463
    39  O   -0.121285
    40  C   -0.119831
    41  C    0.216719
    42  O   -0.256236
    43  O   -0.334008
    44  C    0.229519
    45  C    0.347880
    46  C   -0.117778
    47  C   -0.131440
    48  C    0.210610
    49  C    0.036200
    50  C    0.046941
    51  C   -0.032775
    52  C    0.005170
    53  C    0.009572
    54  C   -0.038756
    55  C    0.138480
    56  C    0.002861
    57  C   -0.065950
    58  C   -0.085511
    59  C    0.066181
    60  C    0.133930
    61  C    0.025482
    62  C   -0.142989
    63  C    0.044773
    64  C    0.067900
    65  H   -0.004409
    66  H   -0.035237
    67  H   -0.015259
    68  H   -0.091445
    69  H   -0.009926
    70  H    0.018354
    71  H    0.005862
    72  H    0.047127
    73  H    0.058172
    74  H    0.043611
    75  H    0.028864
    76  H    0.029936
    77  H   -0.006167
    78  H   -0.063114
    79  H   -0.013757
    80  H    0.008301
    81  H    0.037925
    82  H    0.032162
    83  H    0.047573
    84  H    0.018867
    85  H    0.025033
    86  H    0.017172
    87  H    0.016209
    88  H    0.002672
    89  H    0.012585
    90  H    0.022160
    91  H    0.061563
    92  H    0.060323
    93  H    0.066585
    94  H    0.080986
    95  H   -0.009007
    96  H    0.035757
    97  H    0.056767
    98  H   -0.007074
    99  H   -0.028153
   100  H   -0.006708
   101  H    0.032788
   102  H    0.025188
   103  H   -0.147150
   104  H    0.028097
   105  H    0.003621
   106  H    0.024991
   107  H   -0.007031
   108  H   -0.009191
   109  H   -0.017242
   110  H   -0.035347
   111  H    0.017557
   112  H    0.001555
   113  H    0.010616
   114  H   -0.025274
   115  H   -0.019385
   116  H   -0.046406
   117  H    0.006221
   118  H    0.002901
   119  H   -0.001101
   120  H   -0.017946
   121  H    0.024623
   122  H    0.042987
   123  H    0.013573
   124  H   -0.031496
   125  H   -0.043429
   126  H   -0.016221
   127  H   -0.025597
   128  H   -0.016155
   129  H   -0.021846
   130  H    0.003173
   131  H    0.005349
   132  H   -0.028563
   133  H    0.043443
   134  H    0.003180
   135  H   -0.007155
   136  H   -0.010399
   137  H    0.165351
   138  H    0.193636
 Sum of Mulliken charges =  -0.00000

 Dipole moment (field-independent basis, Debye):
    X=              1.9846    Y=              5.7319    Z=              0.7186  Tot=              6.1082
 Quadrupole moment (field-independent basis, Debye-Ang):
   XX=           -342.2305   YY=           -375.1643   ZZ=           -397.7806
   XY=            -27.4432   XZ=             10.7629   YZ=              1.5867

 Normal termination of Gaussian 16 at Sun Aug 25 10:25:54 2019.
