 Gaussian 16, Revision A.03,
 Gaussian 16:  ES64L-G16RevA.03 25-Dec-2016

 --------------------------
 # td=(NStates=1) B3LYP/SVP
 --------------------------

 --
 TD
 --
 Symbolic Z-matrix:
 Charge =  0 Multiplicity = 1

                         Standard orientation:
 ---------------------------------------------------------------------
 Center     Atomic      Atomic             Coordinates (Angstroms)
 Number     Number       Type             X           Y           Z
 ---------------------------------------------------------------------
      1          6           0       -5.207624   -2.020306    0.411570
      2          6           0       -4.664835    2.644161    1.479720
      3          6           0       -9.295498    3.458494   -0.165566
      4          6           0       -9.860737   -1.357798   -0.981846
      5          7           0       -5.113714    0.462106    0.712519
      6          6           0       -4.504337   -0.754265    0.619276
      7          6           0       -3.078896   -0.739738    1.197485
      8          6           0       -3.044845    0.807608    1.851877
      9          6           0       -4.323420    1.288719    1.289003
     10          6           0       -2.865356    0.827348    3.325614
     11          6           0       -2.026012   -0.987266    0.062336
     12          6           0       -0.533993   -1.078788    0.608154
     13          6           0        0.436106   -1.240362   -0.567694
     14          8           0        0.086436   -1.464559   -1.795487
     15          8           0        1.647879   -0.887090   -0.204866
     16          7           0       -7.038797    2.793473    0.532635
     17          6           0       -5.945055    3.310132    1.038141
     18          6           0       -6.087914    4.744252    1.163397
     19          6           0       -7.396961    5.044282    0.611394
     20          6           0       -8.026496    3.854821    0.288253
     21          6           0       -5.156044    5.772852    1.579110
     22          6           0       -7.959065    6.352825    0.491698
     23          6           0       -8.853778    6.804767   -0.377487
     24          7           0       -9.099951    0.950603   -0.629965
     25          6           0       -9.800738    2.149549   -0.573421
     26          6           0      -11.173336    1.963745   -0.961980
     27          6           0      -11.441440    0.680519   -1.221353
     28          6           0      -10.099355   -0.018470   -0.967146
     29          6           0      -12.115362    3.087457   -1.061456
     30          6           0      -12.708129   -0.087026   -1.594566
     31          6           0      -12.828668   -0.192653   -3.164024
     32          7           0       -7.537406   -1.260071   -0.323811
     33          6           0       -8.606667   -1.925633   -0.720426
     34          6           0       -8.270144   -3.271032   -0.754527
     35          6           0       -6.963939   -3.333070   -0.243777
     36          6           0       -6.494023   -2.061699   -0.046989
     37          6           0       -9.075408   -4.410783   -1.068900
     38          6           0       -5.864577   -4.311180   -0.030506
     39          8           0       -5.769130   -5.500934   -0.033670
     40          6           0       -4.552483   -3.376139    0.323691
     41          6           0       -3.951836   -3.852340    1.562687
     42          8           0       -4.245296   -3.501031    2.679695
     43          8           0       -3.082918   -4.832392    1.442015
     44          6           0       -2.798365   -5.709081    2.555090
     45          6           0        2.701960   -0.962914   -1.216208
     46          6           0        3.962015   -0.683550   -0.479433
     47          6           0        5.033990   -0.060401   -0.970694
     48          6           0        4.990383    0.765127   -2.296263
     49          6           0        6.250034    0.202157   -0.230280
     50          6           0        7.502227   -0.322367   -0.847168
     51          6           0        8.764328   -0.247864   -0.016333
     52          6           0        9.955527   -0.980171   -0.474015
     53          6           0        9.933699   -2.500330   -0.566813
     54          6           0       11.201595   -0.383783    0.161894
     55          6           0       12.655669   -0.857109   -0.470374
     56          6           0       13.831860   -0.086061    0.242111
     57          6           0       15.177802   -0.222660   -0.251779
     58          6           0       15.745115   -1.662278   -0.086522
     59          6           0       16.223353    0.796795    0.296955
     60          6           0       17.701518    0.705800   -0.301290
     61          6           0       18.525908    1.862277    0.352231
     62          6           0       20.057122    1.838587   -0.116908
     63          6           0       20.222113    2.192086   -1.531931
     64          6           0       20.928758    2.709149    0.784646
     65          1           0       -3.838554    3.404199    1.579850
     66          1           0       -9.899088    4.314033   -0.284378
     67          1           0      -10.559745   -2.209498   -1.194043
     68          1           0       -2.941830   -1.382170    1.999433
     69          1           0       -2.234355    1.325992    1.473370
     70          1           0       -1.944069    0.463060    3.721660
     71          1           0       -3.135931    1.760187    3.696219
     72          1           0       -3.716371    0.329342    3.809921
     73          1           0       -2.236129   -1.728177   -0.588399
     74          1           0       -2.159479   -0.236770   -0.778675
     75          1           0       -0.334963   -0.136345    1.062401
     76          1           0       -0.455384   -1.931947    1.149750
     77          1           0       -3.992120    5.630022    1.263457
     78          1           0       -5.592853    6.942442    1.383845
     79          1           0       -4.811426    5.802244    2.656435
     80          1           0       -7.690343    6.970198    1.349986
     81          1           0       -9.335595    6.134000   -1.201359
     82          1           0       -9.323185    7.775619   -0.253832
     83          1           0      -12.331439    3.520904   -0.056770
     84          1           0      -11.505384    4.046460   -1.536577
     85          1           0      -13.080047    2.887036   -1.764486
     86          1           0      -12.761863   -1.212177   -1.075661
     87          1           0      -13.641892    0.274984   -1.271245
     88          1           0      -13.087721    0.892526   -3.541203
     89          1           0      -11.935736   -0.562676   -3.452908
     90          1           0      -13.690631   -0.752697   -3.442873
     91          1           0       -9.966351   -4.607965   -0.500176
     92          1           0       -9.500077   -4.530988   -2.161935
     93          1           0       -8.601664   -5.469941   -0.847216
     94          1           0       -3.904644   -3.733521   -0.287879
     95          1           0       -2.085362   -6.633610    2.258539
     96          1           0       -2.269315   -4.917986    3.223840
     97          1           0       -3.710809   -6.020203    3.051152
     98          1           0        2.703885   -2.091562   -1.652319
     99          1           0        2.367836   -0.230546   -1.968008
    100          1           0        3.997346   -1.133988    0.581772
    101          1           0        4.922484    1.965751   -1.954717
    102          1           0        6.033252    0.519717   -2.855913
    103          1           0        4.065041    0.619504   -2.825089
    104          1           0        6.350132    1.343863   -0.128645
    105          1           0        6.050884   -0.461853    0.608399
    106          1           0        7.311402   -1.354108   -1.084879
    107          1           0        7.773430    0.053734   -1.837958
    108          1           0        8.969738    0.757625    0.353347
    109          1           0        8.445097   -0.657441    0.904564
    110          1           0       10.144878   -0.517940   -1.672377
    111          1           0        9.194681   -2.958739   -1.206228
    112          1           0       10.985400   -2.904295   -0.904946
    113          1           0        9.940480   -2.752190    0.379235
    114          1           0       11.291723    0.665304    0.073939
    115          1           0       11.149367   -0.817004    1.338155
    116          1           0       12.778428   -1.930341   -0.344664
    117          1           0       12.535497   -0.691303   -1.550850
    118          1           0       13.545652    1.114935    0.401681
    119          1           0       13.709693   -0.732693    1.119726
    120          1           0       15.102692   -0.066059   -1.438000
    121          1           0       14.908837   -2.404238   -0.362034
    122          1           0       16.568416   -2.028337   -0.415982
    123          1           0       15.568238   -1.998985    0.958180
    124          1           0       16.089384    1.982270    0.262601
    125          1           0       16.159879    0.645081    1.534146
    126          1           0       18.138609   -0.287506   -0.113361
    127          1           0       17.594419    0.882907   -1.540446
    128          1           0       18.201581    2.804414    0.140030
    129          1           0       18.380013    1.880231    1.421631
    130          1           0       20.311206    0.617728    0.323593
    131          1           0       20.027808    3.285253   -1.408177
    132          1           0       21.374878    2.053243   -1.827390
    133          1           0       19.972294    1.569521   -2.144723
    134          1           0       21.010247    2.630919    1.883074
    135          1           0       21.983502    2.688243    0.328088
    136          1           0       20.495968    3.839585    0.516741
    137          1           0       -7.246894    1.781340    0.579131
    138          1           0       -7.554233   -0.221689   -0.284679
 ---------------------------------------------------------------------

 SCF Done:  E(RB3LYP) =  -2732.96894576     A.U. after   17 cycles

 Excitation energies and oscillator strengths:

 Excited State   1:      Singlet-A      1.9889 eV  623.37 nm  f=0.2082  <S**2>=0.000
     235 -> 237       -0.17763
     235 -> 238       -0.26373
     236 -> 237        0.62268
     236 -> 238       -0.10763
 This state for optimization and/or second-order correction.
 Total Energy, E(TD-HF/TD-DFT) =  -2732.89585321
 Copying the excited state density for this state as the 1-particle RhoCI density.

 The electronic state is 1-A.
 Alpha  occ. eigenvalues --  -19.18831 -19.16434 -19.13021 -19.11533 -19.09942
 Alpha  occ. eigenvalues --  -14.36810 -14.36559 -14.32131 -14.31269 -10.31669
 Alpha  occ. eigenvalues --  -10.29808 -10.28475 -10.26405 -10.25660 -10.24402
 Alpha  occ. eigenvalues --  -10.23987 -10.23297 -10.22613 -10.22447 -10.22387
 Alpha  occ. eigenvalues --  -10.22378 -10.22287 -10.22177 -10.21183 -10.21095
 Alpha  occ. eigenvalues --  -10.20965 -10.20887 -10.20704 -10.20652 -10.20568
 Alpha  occ. eigenvalues --  -10.20511 -10.20433 -10.20402 -10.20370 -10.20366
 Alpha  occ. eigenvalues --  -10.20363 -10.20246 -10.20105 -10.20095 -10.19966
 Alpha  occ. eigenvalues --  -10.19953 -10.19910 -10.19829 -10.19765 -10.19568
 Alpha  occ. eigenvalues --  -10.19498 -10.19465 -10.19400 -10.19304 -10.19287
 Alpha  occ. eigenvalues --  -10.19089 -10.19086 -10.18938 -10.18533 -10.18512
 Alpha  occ. eigenvalues --  -10.18487 -10.18222 -10.18036 -10.17953 -10.17580
 Alpha  occ. eigenvalues --  -10.17516 -10.17437 -10.17392 -10.17323  -1.09735
 Alpha  occ. eigenvalues --   -1.09612  -1.04263  -1.00715  -0.98642  -0.97819
 Alpha  occ. eigenvalues --   -0.96588  -0.95713  -0.92085  -0.85691  -0.84059
 Alpha  occ. eigenvalues --   -0.82742  -0.82086  -0.81317  -0.81207  -0.80574
 Alpha  occ. eigenvalues --   -0.80272  -0.80027  -0.79609  -0.78977  -0.78397
 Alpha  occ. eigenvalues --   -0.77328  -0.76551  -0.75936  -0.75187  -0.74749
 Alpha  occ. eigenvalues --   -0.74176  -0.73318  -0.72263  -0.71966  -0.70644
 Alpha  occ. eigenvalues --   -0.70183  -0.69498  -0.68811  -0.68504  -0.68311
 Alpha  occ. eigenvalues --   -0.67633  -0.67535  -0.66543  -0.65875  -0.65564
 Alpha  occ. eigenvalues --   -0.64176  -0.63563  -0.63043  -0.62474  -0.61871
 Alpha  occ. eigenvalues --   -0.61519  -0.59447  -0.58630  -0.58167  -0.57513
 Alpha  occ. eigenvalues --   -0.56984  -0.56240  -0.56175  -0.56101  -0.54902
 Alpha  occ. eigenvalues --   -0.54885  -0.54729  -0.53715  -0.53568  -0.53135
 Alpha  occ. eigenvalues --   -0.52460  -0.52012  -0.51697  -0.50671  -0.50525
 Alpha  occ. eigenvalues --   -0.50453  -0.49865  -0.49719  -0.49544  -0.48693
 Alpha  occ. eigenvalues --   -0.48606  -0.48050  -0.47829  -0.47459  -0.47377
 Alpha  occ. eigenvalues --   -0.46917  -0.46768  -0.46648  -0.46275  -0.45973
 Alpha  occ. eigenvalues --   -0.45747  -0.45491  -0.45425  -0.44913  -0.44856
 Alpha  occ. eigenvalues --   -0.44817  -0.44430  -0.44176  -0.44110  -0.43882
 Alpha  occ. eigenvalues --   -0.43704  -0.43507  -0.43191  -0.42862  -0.42537
 Alpha  occ. eigenvalues --   -0.42516  -0.42280  -0.41997  -0.41864  -0.41676
 Alpha  occ. eigenvalues --   -0.41539  -0.41291  -0.41157  -0.40776  -0.40692
 Alpha  occ. eigenvalues --   -0.40149  -0.39897  -0.39807  -0.39673  -0.39568
 Alpha  occ. eigenvalues --   -0.39348  -0.39062  -0.38938  -0.38801  -0.38369
 Alpha  occ. eigenvalues --   -0.38311  -0.38202  -0.37915  -0.37779  -0.37496
 Alpha  occ. eigenvalues --   -0.37362  -0.37096  -0.37006  -0.36936  -0.36462
 Alpha  occ. eigenvalues --   -0.36427  -0.36202  -0.36106  -0.35842  -0.35743
 Alpha  occ. eigenvalues --   -0.35544  -0.35333  -0.35239  -0.35130  -0.34964
 Alpha  occ. eigenvalues --   -0.34524  -0.34501  -0.34135  -0.34066  -0.33609
 Alpha  occ. eigenvalues --   -0.33543  -0.33395  -0.33017  -0.32993  -0.32595
 Alpha  occ. eigenvalues --   -0.32378  -0.32195  -0.31554  -0.31416  -0.31086
 Alpha  occ. eigenvalues --   -0.30787  -0.30207  -0.29935  -0.29683  -0.28896
 Alpha  occ. eigenvalues --   -0.28451  -0.28271  -0.28185  -0.28037  -0.27483
 Alpha  occ. eigenvalues --   -0.27188  -0.26738  -0.26376  -0.25962  -0.25923
 Alpha  occ. eigenvalues --   -0.25142  -0.24820  -0.23896  -0.23281  -0.20034
 Alpha  occ. eigenvalues --   -0.18904
 Alpha virt. eigenvalues --   -0.10825  -0.07660  -0.04553  -0.02056  -0.01210
 Alpha virt. eigenvalues --   -0.00359  -0.00177   0.01160   0.02008   0.03636
 Alpha virt. eigenvalues --    0.03919   0.04161   0.04445   0.04524   0.04997

 Mulliken charges:
               1
     1  C   -0.005162
     2  C   -0.069322
     3  C   -0.072277
     4  C   -0.085458
     5  N   -0.113683
     6  C   -0.027338
     7  C   -0.020193
     8  C    0.007838
     9  C   -0.048455
    10  C    0.141181
    11  C    0.042450
    12  C    0.154513
    13  C    0.163547
    14  O   -0.321858
    15  O   -0.287723
    16  N   -0.073003
    17  C    0.047604
    18  C   -0.069046
    19  C    0.072759
    20  C    0.070068
    21  C   -0.038294
    22  C   -0.065320
    23  C   -0.049286
    24  N   -0.298481
    25  C    0.145592
    26  C   -0.125060
    27  C   -0.044101
    28  C    0.116925
    29  C    0.030872
    30  C    0.004171
    31  C    0.046312
    32  N    0.031593
    33  C   -0.007905
    34  C   -0.068235
    35  C   -0.036449
    36  C    0.108108
    37  C   -0.000266
    38  C    0.064590
    39  O   -0.135709
    40  C    0.072154
    41  C    0.126154
    42  O   -0.245371
    43  O   -0.293865
    44  C    0.147216
    45  C    0.229845
    46  C   -0.109398
    47  C   -0.161650
    48  C   -0.000280
    49  C    0.168058
    50  C   -0.009551
    51  C    0.128774
    52  C   -0.124079
    53  C    0.126000
    54  C   -0.032987
    55  C    0.001460
    56  C   -0.004331
    57  C    0.000641
    58  C    0.083389
    59  C   -0.064617
    60  C   -0.006812
    61  C    0.084071
    62  C   -0.181227
    63  C    0.195370
    64  C   -0.014186
    65  H   -0.001978
    66  H   -0.067763
    67  H   -0.010586
    68  H   -0.006718
    69  H   -0.032800
    70  H    0.016704
    71  H   -0.028891
    72  H   -0.000637
    73  H   -0.024812
    74  H   -0.004091
    75  H    0.023906
    76  H    0.006254
    77  H    0.037446
    78  H    0.054765
    79  H    0.025403
    80  H    0.011816
    81  H    0.047155
    82  H    0.023610
    83  H    0.026741
    84  H    0.026917
    85  H    0.047200
    86  H    0.021097
    87  H   -0.013043
    88  H    0.020943
    89  H    0.002684
    90  H    0.005519
    91  H    0.015615
    92  H    0.033549
    93  H    0.043194
    94  H   -0.052501
    95  H    0.066395
    96  H    0.039808
    97  H    0.041761
    98  H    0.064228
    99  H    0.038456
   100  H    0.014129
   101  H    0.040210
   102  H    0.054427
   103  H    0.008921
   104  H    0.019294
   105  H   -0.021775
   106  H   -0.029018
   107  H   -0.012720
   108  H   -0.024867
   109  H   -0.054229
   110  H   -0.019719
   111  H    0.024355
   112  H    0.012095
   113  H   -0.044538
   114  H    0.000999
   115  H    0.003456
   116  H    0.005691
   117  H   -0.007388
   118  H    0.027955
   119  H   -0.007315
   120  H   -0.000436
   121  H   -0.017108
   122  H   -0.028962
   123  H   -0.017783
   124  H    0.011837
   125  H    0.005949
   126  H    0.013581
   127  H    0.025697
   128  H   -0.048667
   129  H   -0.016307
   130  H   -0.003358
   131  H    0.021338
   132  H   -0.001707
   133  H   -0.082861
   134  H    0.028060
   135  H    0.018717
   136  H   -0.001977
   137  H    0.158542
   138  H    0.147863
 Sum of Mulliken charges =  -0.00000

 Dipole moment (field-independent basis, Debye):
    X=              1.5149    Y=              3.3062    Z=              1.2952  Tot=              3.8605
 Quadrupole moment (field-independent basis, Debye-Ang):
   XX=           -341.4269   YY=           -376.5338   ZZ=           -401.5899
   XY=            -25.5137   XZ=              6.1154   YZ=              2.6088

 Normal termination of Gaussian 16 at Thu Aug 29 23:19:39 2019.
