 Gaussian 16, Revision A.03,
 Gaussian 16:  ES64L-G16RevA.03 25-Dec-2016

 --------------------------
 # td=(NStates=1) B3LYP/SVP
 --------------------------

 --
 TD
 --
 Symbolic Z-matrix:
 Charge =  0 Multiplicity = 1

                         Standard orientation:
 ---------------------------------------------------------------------
 Center     Atomic      Atomic             Coordinates (Angstroms)
 Number     Number       Type             X           Y           Z
 ---------------------------------------------------------------------
      1          6           0       -5.167918   -1.976245    0.413194
      2          6           0       -4.682269    2.789785    1.400141
      3          6           0       -9.265062    3.433818   -0.245967
      4          6           0       -9.828911   -1.336397   -1.027876
      5          7           0       -5.217737    0.418971    0.909696
      6          6           0       -4.476978   -0.803226    0.792731
      7          6           0       -3.029709   -0.540360    1.257018
      8          6           0       -3.080080    0.840853    1.793662
      9          6           0       -4.374930    1.441082    1.346346
     10          6           0       -2.881202    0.788361    3.323906
     11          6           0       -2.073631   -0.684072    0.163047
     12          6           0       -0.594984   -0.805855    0.550950
     13          6           0        0.348779   -1.023195   -0.608139
     14          8           0        0.112534   -1.519037   -1.660588
     15          8           0        1.645428   -0.668284   -0.180259
     16          7           0       -6.925830    2.765614    0.506162
     17          6           0       -5.856393    3.414678    0.961626
     18          6           0       -6.109964    4.826414    1.027947
     19          6           0       -7.299649    5.066752    0.512134
     20          6           0       -7.933892    3.763701    0.177681
     21          6           0       -5.129529    5.944624    1.495197
     22          6           0       -7.933015    6.334970    0.512142
     23          6           0       -8.833672    6.652745   -0.434634
     24          7           0       -9.166114    1.033555   -0.383709
     25          6           0       -9.772307    2.235351   -0.537088
     26          6           0      -11.154526    2.041107   -1.020068
     27          6           0      -11.268154    0.702961   -1.246112
     28          6           0       -9.978566    0.055121   -0.913273
     29          6           0      -12.176070    3.134184   -1.128346
     30          6           0      -12.532988   -0.076286   -1.596051
     31          6           0      -12.704935   -0.302637   -3.121095
     32          7           0       -7.559494   -1.299476   -0.165899
     33          6           0       -8.647593   -1.956316   -0.604962
     34          6           0       -8.262323   -3.422608   -0.668445
     35          6           0       -6.944533   -3.381095   -0.255606
     36          6           0       -6.535288   -2.060777   -0.010336
     37          6           0       -9.127760   -4.549590   -1.020431
     38          6           0       -5.730248   -4.260437   -0.087021
     39          8           0       -5.648279   -5.434990   -0.323912
     40          6           0       -4.575084   -3.383520    0.440856
     41          6           0       -4.180873   -4.010855    1.771947
     42          8           0       -4.363324   -3.594838    2.904699
     43          8           0       -3.509760   -5.079004    1.564909
     44          6           0       -3.032610   -5.926863    2.666409
     45          6           0        2.599341   -0.982318   -1.165690
     46          6           0        3.921206   -0.723054   -0.542270
     47          6           0        5.054531   -0.151255   -1.088256
     48          6           0        4.913183    0.568075   -2.437620
     49          6           0        6.245474    0.053650   -0.300022
     50          6           0        7.600370   -0.605745   -0.974730
     51          6           0        8.799214   -0.245935   -0.109895
     52          6           0       10.072482   -0.831812   -0.753602
     53          6           0       10.036826   -2.410459   -0.875507
     54          6           0       11.308548   -0.492207    0.101391
     55          6           0       12.753717   -0.734119   -0.535346
     56          6           0       13.788970   -0.076423    0.295373
     57          6           0       15.201446   -0.135832   -0.493494
     58          6           0       15.739664   -1.583061   -0.754978
     59          6           0       16.319275    0.589693    0.456723
     60          6           0       17.687208    0.709069   -0.189672
     61          6           0       18.594298    1.679716    0.692211
     62          6           0       20.083139    1.809800    0.174011
     63          6           0       20.090983    2.399200   -1.196389
     64          6           0       20.959645    2.597434    1.189860
     65          1           0       -4.009549    3.604814    1.693844
     66          1           0       -9.819842    4.302433   -0.248546
     67          1           0      -10.648423   -1.929975   -1.456630
     68          1           0       -2.624615   -1.080616    2.130544
     69          1           0       -2.295275    1.359542    1.357233
     70          1           0       -1.885592    0.364501    3.613362
     71          1           0       -3.064701    1.779991    3.622344
     72          1           0       -3.688748    0.300388    3.729968
     73          1           0       -2.438117   -1.793129   -0.436913
     74          1           0       -2.272965    0.016447   -0.560362
     75          1           0       -0.295847    0.238685    1.010916
     76          1           0       -0.462569   -1.834030    1.328595
     77          1           0       -4.275204    6.331670    0.785601
     78          1           0       -5.690820    6.939013    1.707169
     79          1           0       -4.746326    5.537585    2.461776
     80          1           0       -7.660871    7.132059    1.094992
     81          1           0       -9.123397    6.060656   -1.395175
     82          1           0       -9.374349    7.726275   -0.503260
     83          1           0      -12.478415    3.504007    0.000073
     84          1           0      -11.552092    4.065593   -1.551364
     85          1           0      -13.098695    2.939297   -1.845677
     86          1           0      -12.331756   -1.070376   -0.966971
     87          1           0      -13.591764    0.567153   -1.274428
     88          1           0      -12.678878    0.783838   -3.555380
     89          1           0      -11.792406   -0.831264   -3.436432
     90          1           0      -13.574513   -1.021438   -3.202988
     91          1           0      -10.100185   -4.595429   -0.500599
     92          1           0       -9.395731   -4.539240   -2.037539
     93          1           0       -8.601471   -5.558731   -0.933469
     94          1           0       -3.833928   -3.558855   -0.460639
     95          1           0       -2.097678   -6.507223    2.104722
     96          1           0       -2.633056   -5.191069    3.424854
     97          1           0       -3.999540   -6.361852    3.065016
     98          1           0        2.350457   -2.080644   -1.436701
     99          1           0        2.261779   -0.230458   -1.900473
    100          1           0        4.151584   -1.268692    0.359450
    101          1           0        4.999604    1.657170   -2.492212
    102          1           0        5.497553   -0.098408   -3.204680
    103          1           0        3.881434    0.451645   -2.902542
    104          1           0        6.183835    1.128794   -0.251496
    105          1           0        6.213174   -0.269084    0.656516
    106          1           0        7.381124   -1.713057   -1.116153
    107          1           0        7.847913   -0.118154   -1.966378
    108          1           0        9.092113    0.768583   -0.202297
    109          1           0        8.634312   -0.819632    0.871111
    110          1           0       10.012692   -0.183044   -1.806642
    111          1           0        9.099677   -2.908750   -1.373162
    112          1           0       10.992530   -2.932933   -1.232936
    113          1           0        9.839546   -2.907868    0.119816
    114          1           0       11.213022    0.728411    0.293986
    115          1           0       11.165735   -1.173795    1.064821
    116          1           0       13.023516   -1.696645   -0.785205
    117          1           0       12.578320   -0.233890   -1.598682
    118          1           0       13.508483    1.024843    0.175158
    119          1           0       13.806830   -0.614676    1.263718
    120          1           0       15.191432    0.527064   -1.267820
    121          1           0       15.245800   -2.186711   -1.440129
    122          1           0       16.644953   -1.484043   -1.361472
    123          1           0       15.869379   -2.307853    0.194728
    124          1           0       15.968319    1.694297    0.588528
    125          1           0       16.295222   -0.089082    1.440538
    126          1           0       18.196700   -0.224265   -0.304454
    127          1           0       17.405863    0.956342   -1.187191
    128          1           0       17.949913    2.589771    0.607540
    129          1           0       18.430915    1.134899    1.714757
    130          1           0       20.557713    0.734308    0.117743
    131          1           0       19.418121    3.348054   -1.251736
    132          1           0       21.116894    2.888988   -1.788301
    133          1           0       19.652668    1.724356   -1.920051
    134          1           0       20.964964    2.246544    2.335678
    135          1           0       22.056205    2.506177    1.044108
    136          1           0       20.826966    3.772313    1.021313
    137          1           0       -7.106185    1.798760    0.256286
    138          1           0       -7.748235   -0.285319   -0.043792
 ---------------------------------------------------------------------

 SCF Done:  E(RB3LYP) =  -2733.08351024     A.U. after   17 cycles

 Excitation energies and oscillator strengths:

 Excited State   1:      Singlet-A      2.0703 eV  598.86 nm  f=0.1737  <S**2>=0.000
     235 -> 238       -0.30603
     236 -> 237        0.62608
 This state for optimization and/or second-order correction.
 Total Energy, E(TD-HF/TD-DFT) =  -2733.00742633
 Copying the excited state density for this state as the 1-particle RhoCI density.

 The electronic state is 1-A.
 Alpha  occ. eigenvalues --  -19.17098 -19.16130 -19.13534 -19.12196 -19.10911
 Alpha  occ. eigenvalues --  -14.37340 -14.36878 -14.32231 -14.30339 -10.31406
 Alpha  occ. eigenvalues --  -10.31106 -10.27719 -10.26828 -10.24111 -10.23875
 Alpha  occ. eigenvalues --  -10.23525 -10.23476 -10.23440 -10.23244 -10.22948
 Alpha  occ. eigenvalues --  -10.22605 -10.21924 -10.21890 -10.21652 -10.21602
 Alpha  occ. eigenvalues --  -10.21585 -10.21187 -10.21103 -10.21021 -10.20862
 Alpha  occ. eigenvalues --  -10.20755 -10.20674 -10.20589 -10.20438 -10.20097
 Alpha  occ. eigenvalues --  -10.20059 -10.19935 -10.19902 -10.19897 -10.19800
 Alpha  occ. eigenvalues --  -10.19646 -10.19529 -10.19519 -10.19451 -10.19428
 Alpha  occ. eigenvalues --  -10.19393 -10.19391 -10.19226 -10.19173 -10.19113
 Alpha  occ. eigenvalues --  -10.19100 -10.18938 -10.18690 -10.18621 -10.18574
 Alpha  occ. eigenvalues --  -10.18446 -10.18159 -10.18159 -10.18070 -10.18012
 Alpha  occ. eigenvalues --  -10.17805 -10.17782 -10.17448 -10.17236  -1.10659
 Alpha  occ. eigenvalues --   -1.09159  -1.03479  -1.01620  -1.01076  -0.98937
 Alpha  occ. eigenvalues --   -0.97648  -0.93262  -0.92102  -0.84899  -0.83372
 Alpha  occ. eigenvalues --   -0.82324  -0.81914  -0.81100  -0.80984  -0.80345
 Alpha  occ. eigenvalues --   -0.80060  -0.79192  -0.79011  -0.78429  -0.77512
 Alpha  occ. eigenvalues --   -0.76560  -0.76297  -0.76014  -0.74584  -0.74117
 Alpha  occ. eigenvalues --   -0.73636  -0.72846  -0.72169  -0.71230  -0.70380
 Alpha  occ. eigenvalues --   -0.69902  -0.69562  -0.68565  -0.68176  -0.66763
 Alpha  occ. eigenvalues --   -0.66444  -0.66281  -0.65703  -0.65327  -0.64420
 Alpha  occ. eigenvalues --   -0.64193  -0.62787  -0.62430  -0.61721  -0.60534
 Alpha  occ. eigenvalues --   -0.59724  -0.58987  -0.58576  -0.57924  -0.56882
 Alpha  occ. eigenvalues --   -0.56350  -0.56055  -0.55938  -0.55457  -0.55111
 Alpha  occ. eigenvalues --   -0.54644  -0.54550  -0.54486  -0.53757  -0.53072
 Alpha  occ. eigenvalues --   -0.52362  -0.52063  -0.51638  -0.51298  -0.50645
 Alpha  occ. eigenvalues --   -0.50080  -0.49327  -0.49094  -0.49078  -0.48694
 Alpha  occ. eigenvalues --   -0.48154  -0.47989  -0.47514  -0.46966  -0.46727
 Alpha  occ. eigenvalues --   -0.46454  -0.46091  -0.45964  -0.45460  -0.45385
 Alpha  occ. eigenvalues --   -0.45206  -0.45096  -0.44763  -0.44621  -0.44569
 Alpha  occ. eigenvalues --   -0.44151  -0.43806  -0.43747  -0.43564  -0.43285
 Alpha  occ. eigenvalues --   -0.43113  -0.43041  -0.42863  -0.42637  -0.42588
 Alpha  occ. eigenvalues --   -0.41946  -0.41828  -0.41774  -0.41420  -0.41341
 Alpha  occ. eigenvalues --   -0.41245  -0.41150  -0.41036  -0.40767  -0.40502
 Alpha  occ. eigenvalues --   -0.40299  -0.39974  -0.39553  -0.39231  -0.39115
 Alpha  occ. eigenvalues --   -0.38797  -0.38586  -0.38569  -0.38387  -0.38222
 Alpha  occ. eigenvalues --   -0.37934  -0.37793  -0.37728  -0.37321  -0.37113
 Alpha  occ. eigenvalues --   -0.37070  -0.36972  -0.36713  -0.36401  -0.36240
 Alpha  occ. eigenvalues --   -0.35835  -0.35654  -0.35570  -0.35427  -0.35348
 Alpha  occ. eigenvalues --   -0.35258  -0.35178  -0.35014  -0.34662  -0.34485
 Alpha  occ. eigenvalues --   -0.34301  -0.34015  -0.34013  -0.33899  -0.33883
 Alpha  occ. eigenvalues --   -0.33254  -0.33013  -0.32910  -0.32862  -0.32668
 Alpha  occ. eigenvalues --   -0.32422  -0.32290  -0.32064  -0.31579  -0.31363
 Alpha  occ. eigenvalues --   -0.31088  -0.30668  -0.30209  -0.30189  -0.29944
 Alpha  occ. eigenvalues --   -0.29760  -0.29303  -0.28719  -0.27749  -0.27692
 Alpha  occ. eigenvalues --   -0.27146  -0.26750  -0.26427  -0.26385  -0.26104
 Alpha  occ. eigenvalues --   -0.24727  -0.24667  -0.23557  -0.22302  -0.19798
 Alpha  occ. eigenvalues --   -0.18816
 Alpha virt. eigenvalues --   -0.10126  -0.07440  -0.03839  -0.02157  -0.01041
 Alpha virt. eigenvalues --   -0.00136  -0.00024   0.01243   0.02106   0.03395
 Alpha virt. eigenvalues --    0.03487   0.03823   0.04488   0.04764   0.04929

 Mulliken charges:
               1
     1  C   -0.034797
     2  C   -0.051077
     3  C   -0.072165
     4  C   -0.099375
     5  N   -0.248732
     6  C   -0.030362
     7  C    0.048682
     8  C   -0.006726
     9  C    0.025920
    10  C    0.155762
    11  C    0.003437
    12  C   -0.019278
    13  C    0.180435
    14  O   -0.195237
    15  O   -0.356619
    16  N   -0.059455
    17  C    0.049625
    18  C   -0.127936
    19  C    0.128108
    20  C    0.014665
    21  C    0.024131
    22  C   -0.011941
    23  C   -0.125228
    24  N   -0.265916
    25  C    0.154115
    26  C   -0.107632
    27  C   -0.094456
    28  C    0.089228
    29  C   -0.005761
    30  C   -0.077075
    31  C    0.022548
    32  N    0.082870
    33  C    0.015436
    34  C   -0.153806
    35  C   -0.015917
    36  C    0.080278
    37  C    0.113020
    38  C    0.007279
    39  O   -0.149178
    40  C   -0.042340
    41  C    0.192776
    42  O   -0.244366
    43  O   -0.266295
    44  C    0.131930
    45  C    0.282054
    46  C   -0.085194
    47  C   -0.159981
    48  C    0.035569
    49  C    0.165858
    50  C   -0.046464
    51  C    0.087476
    52  C   -0.123102
    53  C   -0.028853
    54  C   -0.021511
    55  C    0.024732
    56  C    0.076526
    57  C   -0.062232
    58  C    0.035343
    59  C   -0.056785
    60  C    0.030109
    61  C    0.006363
    62  C   -0.046648
    63  C   -0.039079
    64  C   -0.017717
    65  H   -0.034399
    66  H   -0.063366
    67  H   -0.004588
    68  H   -0.013768
    69  H   -0.049641
    70  H    0.030743
    71  H   -0.026410
    72  H   -0.005754
    73  H    0.026435
    74  H   -0.022390
    75  H    0.051766
    76  H    0.077027
    77  H    0.057951
    78  H    0.024309
    79  H    0.039350
    80  H   -0.031351
    81  H    0.055280
    82  H    0.038594
    83  H    0.049991
    84  H    0.034054
    85  H    0.046720
    86  H    0.030063
    87  H    0.026933
    88  H    0.037837
    89  H    0.004445
    90  H    0.031684
    91  H    0.025680
    92  H    0.003890
    93  H    0.040633
    94  H    0.090457
    95  H    0.081263
    96  H    0.048895
    97  H    0.065258
    98  H    0.037880
    99  H    0.008607
   100  H   -0.025912
   101  H    0.029785
   102  H    0.033394
   103  H   -0.004604
   104  H    0.000515
   105  H   -0.045271
   106  H    0.027036
   107  H    0.004446
   108  H   -0.009338
   109  H    0.003815
   110  H    0.004762
   111  H    0.016768
   112  H    0.030182
   113  H   -0.000295
   114  H    0.010297
   115  H    0.012441
   116  H   -0.024637
   117  H   -0.008077
   118  H    0.004777
   119  H    0.007635
   120  H   -0.035520
   121  H   -0.014778
   122  H   -0.001863
   123  H    0.028747
   124  H    0.004793
   125  H    0.010629
   126  H   -0.010529
   127  H   -0.018535
   128  H    0.007474
   129  H    0.022992
   130  H    0.012609
   131  H    0.011777
   132  H    0.028457
   133  H    0.015657
   134  H    0.023942
   135  H    0.001642
   136  H    0.019391
   137  H    0.145233
   138  H    0.151048
 Sum of Mulliken charges =  -0.00000

 Dipole moment (field-independent basis, Debye):
    X=              2.3359    Y=              3.0994    Z=             -0.1441  Tot=              3.8838
 Quadrupole moment (field-independent basis, Debye-Ang):
   XX=           -368.9139   YY=           -369.4360   ZZ=           -400.9640
   XY=            -27.6324   XZ=              3.7924   YZ=             -6.1073

 Normal termination of Gaussian 16 at Sun Aug 11 08:12:55 2019.
