 Gaussian 16, Revision A.03,
 Gaussian 16:  ES64L-G16RevA.03 25-Dec-2016

 --------------------------
 # td=(NStates=1) B3LYP/SVP
 --------------------------

 --
 TD
 --
 Symbolic Z-matrix:
 Charge =  0 Multiplicity = 1

                         Standard orientation:
 ---------------------------------------------------------------------
 Center     Atomic      Atomic             Coordinates (Angstroms)
 Number     Number       Type             X           Y           Z
 ---------------------------------------------------------------------
      1          6           0       -5.081159   -1.959901    0.476128
      2          6           0       -4.562498    2.690676    1.519832
      3          6           0       -9.071732    3.463133   -0.283773
      4          6           0       -9.792833   -1.305071   -1.075917
      5          7           0       -5.182061    0.363014    0.953365
      6          6           0       -4.586771   -0.803435    0.904406
      7          6           0       -3.139317   -0.728573    1.420845
      8          6           0       -3.056980    0.716518    1.975889
      9          6           0       -4.269157    1.360315    1.376688
     10          6           0       -2.856666    0.761496    3.407216
     11          6           0       -2.049028   -0.907958    0.263066
     12          6           0       -0.573695   -1.066011    0.783170
     13          6           0        0.319200   -1.285781   -0.445401
     14          8           0       -0.090088   -1.653776   -1.568069
     15          8           0        1.617754   -1.068005   -0.076803
     16          7           0       -6.909038    2.799585    0.486066
     17          6           0       -5.794703    3.440597    1.079399
     18          6           0       -6.015011    4.779203    1.158463
     19          6           0       -7.282571    5.063574    0.622075
     20          6           0       -7.888331    3.770614    0.263306
     21          6           0       -5.051818    5.736668    1.716609
     22          6           0       -7.785264    6.307371    0.477405
     23          6           0       -8.700490    6.808745   -0.446326
     24          7           0       -9.156991    1.007372   -0.585502
     25          6           0       -9.673189    2.197469   -0.692899
     26          6           0      -11.077730    2.106612   -1.036616
     27          6           0      -11.327474    0.722726   -1.252681
     28          6           0      -10.151303    0.082692   -0.976774
     29          6           0      -12.118444    3.263123   -1.165576
     30          6           0      -12.567232    0.078986   -1.847044
     31          6           0      -12.498829    0.021217   -3.466197
     32          7           0       -7.458346   -1.141814   -0.249338
     33          6           0       -8.625266   -1.931340   -0.715618
     34          6           0       -8.277127   -3.372052   -0.740696
     35          6           0       -6.854754   -3.404352   -0.445371
     36          6           0       -6.466748   -2.039515    0.011118
     37          6           0       -9.153596   -4.522039   -1.096076
     38          6           0       -5.815581   -4.356574   -0.040379
     39          8           0       -5.855710   -5.553794    0.163018
     40          6           0       -4.555670   -3.393223    0.398628
     41          6           0       -3.969154   -3.928284    1.759574
     42          8           0       -4.147545   -3.542226    2.850673
     43          8           0       -3.260122   -5.039287    1.490709
     44          6           0       -2.729919   -5.701344    2.718258
     45          6           0        2.552460   -1.316075   -1.031148
     46          6           0        3.947182   -1.108261   -0.700190
     47          6           0        4.783098   -0.185780   -1.027991
     48          6           0        4.644363    0.651174   -2.270955
     49          6           0        6.095856   -0.033782   -0.180654
     50          6           0        7.411031   -0.357700   -0.998852
     51          6           0        8.660752   -0.255846   -0.121250
     52          6           0        9.898048   -0.592695   -0.987222
     53          6           0        9.930965   -2.024357   -1.428770
     54          6           0       11.121202   -0.115926   -0.127318
     55          6           0       12.504330   -0.271133   -0.699324
     56          6           0       13.824168    0.035328    0.136789
     57          6           0       15.152857    0.032261   -0.488694
     58          6           0       15.560982   -1.416084   -0.849058
     59          6           0       16.222668    0.797520    0.368646
     60          6           0       17.616574    0.748030   -0.121856
     61          6           0       18.615467    1.564279    0.635878
     62          6           0       20.073636    1.559980    0.254462
     63          6           0       20.165754    2.225420   -1.161211
     64          6           0       20.982263    2.179553    1.233467
     65          1           0       -3.821576    3.343590    2.259732
     66          1           0       -9.749067    4.422756   -0.485805
     67          1           0      -10.590717   -2.170693   -1.146456
     68          1           0       -2.910810   -1.442300    2.203663
     69          1           0       -2.194721    1.305367    1.719349
     70          1           0       -1.896084    0.574845    3.721110
     71          1           0       -3.207076    1.746445    3.771374
     72          1           0       -3.503083   -0.028352    3.901283
     73          1           0       -2.357509   -1.702834   -0.424768
     74          1           0       -2.093261   -0.201283   -0.255974
     75          1           0       -0.254192   -0.243316    1.364212
     76          1           0       -0.358505   -2.003882    1.435815
     77          1           0       -4.037005    5.872644    1.185904
     78          1           0       -5.479597    6.668216    1.783727
     79          1           0       -4.712528    5.433975    2.872726
     80          1           0       -7.594351    7.041460    1.353228
     81          1           0       -8.882513    6.209601   -1.319129
     82          1           0       -9.033727    7.662778   -0.538478
     83          1           0      -12.111713    3.915587   -0.330997
     84          1           0      -11.901965    3.878871   -1.979637
     85          1           0      -13.078836    2.716865   -1.308443
     86          1           0      -12.647191   -0.984442   -1.523864
     87          1           0      -13.522704    0.657526   -1.353003
     88          1           0      -12.490659    1.083242   -3.958023
     89          1           0      -11.569398   -0.718722   -3.963262
     90          1           0      -13.322326   -0.671612   -3.722754
     91          1           0      -10.248543   -4.514188   -0.677109
     92          1           0       -9.260011   -4.396999   -2.106412
     93          1           0       -8.595628   -5.322527   -0.947608
     94          1           0       -3.870374   -3.352281   -0.274767
     95          1           0       -2.211524   -6.565498    2.414138
     96          1           0       -2.354165   -4.930579    3.390849
     97          1           0       -3.620956   -6.047176    3.525531
     98          1           0        2.203117   -2.298370   -1.451063
     99          1           0        2.258074   -0.626751   -1.895134
    100          1           0        4.213335   -1.703872    0.165574
    101          1           0        4.790606    1.713453   -2.057032
    102          1           0        5.570924    0.355244   -2.868865
    103          1           0        3.683192    0.668065   -2.650258
    104          1           0        6.210307    1.126479    0.163749
    105          1           0        5.918907   -0.571998    0.744001
    106          1           0        7.319843   -1.468450   -1.526326
    107          1           0        7.466332    0.362925   -1.857227
    108          1           0        8.660392    0.793595    0.104502
    109          1           0        8.646767   -0.967023    0.881408
    110          1           0        9.791253    0.018336   -1.847554
    111          1           0        9.158631   -2.581231   -2.236177
    112          1           0       11.054502   -2.308895   -1.724780
    113          1           0        9.729763   -2.617060   -0.699520
    114          1           0       11.064338    0.840885    0.247603
    115          1           0       11.160773   -0.831604    0.802906
    116          1           0       12.577433   -1.287369   -0.956112
    117          1           0       12.599277    0.278629   -1.707280
    118          1           0       13.664032    1.017205    0.431405
    119          1           0       13.695821   -0.344712    1.143939
    120          1           0       15.032166    0.708296   -1.350755
    121          1           0       14.733495   -1.957080   -1.535260
    122          1           0       16.343959   -1.452783   -1.791684
    123          1           0       16.222535   -2.073725    0.153925
    124          1           0       15.839900    1.727986    0.507255
    125          1           0       16.099020    0.197127    1.402679
    126          1           0       18.129656   -0.259737   -0.250693
    127          1           0       17.610691    1.269592   -1.230594
    128          1           0       18.313194    2.790165    0.945288
    129          1           0       18.527683    1.307593    1.593079
    130          1           0       20.346628    0.493226    0.021451
    131          1           0       19.742296    3.242713   -1.115256
    132          1           0       21.153440    2.023903   -1.285046
    133          1           0       19.503600    1.447245   -1.908534
    134          1           0       21.182793    1.713127    2.264900
    135          1           0       22.065829    2.144153    0.766548
    136          1           0       20.647344    3.235443    1.422412
    137          1           0       -7.070928    1.808419    0.426291
    138          1           0       -7.524763   -0.203739   -0.175154
 ---------------------------------------------------------------------

 SCF Done:  E(RB3LYP) =  -2732.94182342     A.U. after   17 cycles

 Excitation energies and oscillator strengths:

 Excited State   1:      Singlet-A      1.9402 eV  639.03 nm  f=0.1135  <S**2>=0.000
     235 -> 237       -0.40800
     235 -> 238       -0.20686
     236 -> 237        0.47319
     236 -> 238       -0.24539
 This state for optimization and/or second-order correction.
 Total Energy, E(TD-HF/TD-DFT) =  -2732.87052258
 Copying the excited state density for this state as the 1-particle RhoCI density.

 The electronic state is 1-A.
 Alpha  occ. eigenvalues --  -19.18149 -19.17130 -19.13195 -19.12810 -19.12446
 Alpha  occ. eigenvalues --  -14.36865 -14.36645 -14.31382 -14.29016 -10.32210
 Alpha  occ. eigenvalues --  -10.30871 -10.28560 -10.24913 -10.24708 -10.24662
 Alpha  occ. eigenvalues --  -10.24045 -10.23818 -10.23682 -10.23588 -10.22722
 Alpha  occ. eigenvalues --  -10.21836 -10.21833 -10.21607 -10.21415 -10.21121
 Alpha  occ. eigenvalues --  -10.21072 -10.21051 -10.21045 -10.20949 -10.20915
 Alpha  occ. eigenvalues --  -10.20866 -10.20852 -10.20790 -10.20543 -10.20517
 Alpha  occ. eigenvalues --  -10.20365 -10.20299 -10.20282 -10.19889 -10.19554
 Alpha  occ. eigenvalues --  -10.19505 -10.19464 -10.19331 -10.19326 -10.19233
 Alpha  occ. eigenvalues --  -10.19173 -10.18960 -10.18930 -10.18792 -10.18759
 Alpha  occ. eigenvalues --  -10.18610 -10.18580 -10.18570 -10.18472 -10.18338
 Alpha  occ. eigenvalues --  -10.18213 -10.18173 -10.17917 -10.17771 -10.17582
 Alpha  occ. eigenvalues --  -10.17539 -10.17324 -10.17320 -10.17088  -1.10206
 Alpha  occ. eigenvalues --   -1.09686  -1.02831  -1.00693  -1.00286  -0.97384
 Alpha  occ. eigenvalues --   -0.96177  -0.93799  -0.93372  -0.83647  -0.83514
 Alpha  occ. eigenvalues --   -0.82928  -0.82565  -0.81808  -0.81615  -0.80959
 Alpha  occ. eigenvalues --   -0.80661  -0.80642  -0.79138  -0.78167  -0.77525
 Alpha  occ. eigenvalues --   -0.76940  -0.76330  -0.75461  -0.74926  -0.73989
 Alpha  occ. eigenvalues --   -0.73596  -0.72908  -0.72164  -0.72096  -0.71286
 Alpha  occ. eigenvalues --   -0.70406  -0.69597  -0.68943  -0.68356  -0.67532
 Alpha  occ. eigenvalues --   -0.67429  -0.67115  -0.66941  -0.66336  -0.65868
 Alpha  occ. eigenvalues --   -0.64580  -0.63612  -0.63158  -0.61948  -0.61428
 Alpha  occ. eigenvalues --   -0.60691  -0.59008  -0.58842  -0.57717  -0.57116
 Alpha  occ. eigenvalues --   -0.56566  -0.56550  -0.56282  -0.55990  -0.55278
 Alpha  occ. eigenvalues --   -0.54790  -0.54480  -0.54286  -0.53981  -0.53587
 Alpha  occ. eigenvalues --   -0.52739  -0.51885  -0.51781  -0.50827  -0.50752
 Alpha  occ. eigenvalues --   -0.50527  -0.49949  -0.48857  -0.48534  -0.48319
 Alpha  occ. eigenvalues --   -0.48292  -0.48081  -0.47825  -0.47460  -0.47204
 Alpha  occ. eigenvalues --   -0.47120  -0.46966  -0.46562  -0.46477  -0.46068
 Alpha  occ. eigenvalues --   -0.45716  -0.45337  -0.45137  -0.44982  -0.44521
 Alpha  occ. eigenvalues --   -0.44274  -0.44139  -0.44100  -0.43685  -0.43586
 Alpha  occ. eigenvalues --   -0.43506  -0.43288  -0.43076  -0.42910  -0.42441
 Alpha  occ. eigenvalues --   -0.42128  -0.41935  -0.41744  -0.41505  -0.41434
 Alpha  occ. eigenvalues --   -0.41157  -0.41027  -0.40827  -0.40718  -0.40375
 Alpha  occ. eigenvalues --   -0.40242  -0.40083  -0.39850  -0.39675  -0.39573
 Alpha  occ. eigenvalues --   -0.39195  -0.39097  -0.38832  -0.38785  -0.38501
 Alpha  occ. eigenvalues --   -0.38373  -0.38100  -0.37855  -0.37637  -0.37559
 Alpha  occ. eigenvalues --   -0.37326  -0.37226  -0.37043  -0.36853  -0.36592
 Alpha  occ. eigenvalues --   -0.36493  -0.36457  -0.36411  -0.36201  -0.36030
 Alpha  occ. eigenvalues --   -0.35868  -0.35516  -0.35193  -0.35004  -0.34825
 Alpha  occ. eigenvalues --   -0.34777  -0.34352  -0.34283  -0.34148  -0.33773
 Alpha  occ. eigenvalues --   -0.33595  -0.32971  -0.32764  -0.32493  -0.32075
 Alpha  occ. eigenvalues --   -0.31883  -0.31832  -0.31629  -0.31279  -0.31180
 Alpha  occ. eigenvalues --   -0.31010  -0.30740  -0.30733  -0.30012  -0.29672
 Alpha  occ. eigenvalues --   -0.29383  -0.29033  -0.28591  -0.28512  -0.28189
 Alpha  occ. eigenvalues --   -0.28060  -0.26381  -0.26294  -0.25956  -0.25919
 Alpha  occ. eigenvalues --   -0.25374  -0.25134  -0.23901  -0.21749  -0.19909
 Alpha  occ. eigenvalues --   -0.19073
 Alpha virt. eigenvalues --   -0.10917  -0.08786  -0.04259  -0.02452  -0.00961
 Alpha virt. eigenvalues --    0.00051   0.00561   0.01298   0.02579   0.03204
 Alpha virt. eigenvalues --    0.03780   0.03812   0.04006   0.04160   0.04909

 Mulliken charges:
               1
     1  C   -0.005168
     2  C   -0.130129
     3  C   -0.117769
     4  C   -0.074077
     5  N   -0.182746
     6  C   -0.064018
     7  C   -0.061962
     8  C   -0.014119
     9  C    0.065887
    10  C    0.097537
    11  C    0.210948
    12  C    0.045766
    13  C    0.183282
    14  O   -0.262478
    15  O   -0.279609
    16  N   -0.096701
    17  C    0.100044
    18  C   -0.108798
    19  C    0.150515
    20  C    0.101726
    21  C    0.077176
    22  C   -0.190904
    23  C    0.073804
    24  N   -0.226209
    25  C    0.042703
    26  C   -0.210476
    27  C   -0.060126
    28  C    0.068151
    29  C    0.172364
    30  C    0.019473
    31  C   -0.060697
    32  N   -0.022374
    33  C    0.049674
    34  C   -0.131800
    35  C   -0.071349
    36  C    0.064491
    37  C    0.214652
    38  C    0.110592
    39  O   -0.169124
    40  C    0.104584
    41  C    0.166433
    42  O   -0.189554
    43  O   -0.309145
    44  C    0.166427
    45  C    0.235099
    46  C   -0.047269
    47  C   -0.152772
    48  C    0.130380
    49  C    0.060943
    50  C   -0.067910
    51  C    0.033370
    52  C   -0.020908
    53  C    0.031354
    54  C    0.040627
    55  C    0.041689
    56  C    0.088555
    57  C   -0.025160
    58  C   -0.079860
    59  C    0.046793
    60  C    0.036357
    61  C    0.037432
    62  C   -0.104636
    63  C    0.034009
    64  C    0.002252
    65  H    0.026850
    66  H    0.008332
    67  H    0.009569
    68  H    0.004871
    69  H   -0.025670
    70  H   -0.010443
    71  H   -0.006891
    72  H    0.016244
    73  H    0.008548
    74  H   -0.123473
    75  H    0.010097
    76  H    0.047014
    77  H    0.044531
    78  H   -0.020098
    79  H    0.039771
    80  H    0.035006
    81  H    0.021575
    82  H   -0.060204
    83  H    0.006889
    84  H   -0.003146
    85  H    0.007447
    86  H   -0.003647
    87  H    0.036066
    88  H    0.051753
    89  H    0.032479
    90  H    0.020033
    91  H    0.050982
    92  H    0.006228
    93  H   -0.007872
    94  H   -0.026232
    95  H    0.039799
    96  H    0.035617
    97  H    0.036273
    98  H    0.003696
    99  H   -0.014923
   100  H   -0.031134
   101  H   -0.006029
   102  H    0.041517
   103  H   -0.007962
   104  H    0.012006
   105  H   -0.002016
   106  H    0.022635
   107  H    0.014130
   108  H   -0.015186
   109  H    0.024955
   110  H   -0.025558
   111  H    0.034184
   112  H    0.024288
   113  H   -0.051789
   114  H   -0.028259
   115  H   -0.006037
   116  H   -0.024127
   117  H   -0.015585
   118  H   -0.056615
   119  H   -0.035215
   120  H   -0.014330
   121  H    0.034880
   122  H    0.013742
   123  H    0.047313
   124  H   -0.029667
   125  H   -0.000735
   126  H    0.014156
   127  H    0.007582
   128  H   -0.027007
   129  H   -0.061914
   130  H   -0.012507
   131  H    0.022396
   132  H   -0.016271
   133  H    0.029189
   134  H    0.022576
   135  H    0.013081
   136  H    0.014586
   137  H    0.140517
   138  H    0.069899
 Sum of Mulliken charges =  -0.00000

 Dipole moment (field-independent basis, Debye):
    X=              2.2643    Y=              4.4448    Z=              0.9561  Tot=              5.0791
 Quadrupole moment (field-independent basis, Debye-Ang):
   XX=           -353.2758   YY=           -376.7904   ZZ=           -396.8496
   XY=            -19.6930   XZ=             17.7885   YZ=              2.0393

 Normal termination of Gaussian 16 at Sat Aug 17 02:29:09 2019.
