 Gaussian 16, Revision A.03,
 Gaussian 16:  ES64L-G16RevA.03 25-Dec-2016

 --------------------------
 # td=(NStates=1) B3LYP/SVP
 --------------------------

 --
 TD
 --
 Symbolic Z-matrix:
 Charge =  0 Multiplicity = 1

                         Standard orientation:
 ---------------------------------------------------------------------
 Center     Atomic      Atomic             Coordinates (Angstroms)
 Number     Number       Type             X           Y           Z
 ---------------------------------------------------------------------
      1          6           0       -5.212081   -1.995906    0.559843
      2          6           0       -4.585751    2.736893    1.519579
      3          6           0       -9.167633    3.408921   -0.336133
      4          6           0       -9.759885   -1.428227   -0.993517
      5          7           0       -5.210295    0.409432    1.035659
      6          6           0       -4.656870   -0.816957    0.933393
      7          6           0       -3.114462   -0.704126    1.393465
      8          6           0       -3.098399    0.790511    1.997471
      9          6           0       -4.368624    1.316181    1.389037
     10          6           0       -2.895773    0.790016    3.516757
     11          6           0       -2.099332   -0.783009    0.118162
     12          6           0       -0.591309   -0.798640    0.584056
     13          6           0        0.357229   -1.171232   -0.514953
     14          8           0        0.062557   -1.664085   -1.527752
     15          8           0        1.536752   -0.975486   -0.158245
     16          7           0       -6.959864    2.763769    0.502137
     17          6           0       -5.799076    3.402569    1.040422
     18          6           0       -6.120878    4.833119    1.120919
     19          6           0       -7.402623    5.001531    0.516850
     20          6           0       -7.866101    3.622820    0.176408
     21          6           0       -5.128568    5.759611    1.618761
     22          6           0       -8.041965    6.343264    0.366467
     23          6           0       -8.768869    6.869398   -0.656072
     24          7           0       -9.188275    1.032318   -0.568125
     25          6           0       -9.803794    2.155230   -0.551459
     26          6           0      -11.187844    2.013510   -0.986229
     27          6           0      -11.327383    0.608144   -1.168688
     28          6           0      -10.011817   -0.037426   -0.898890
     29          6           0      -12.178106    3.106459   -1.195990
     30          6           0      -12.493253   -0.116205   -1.793926
     31          6           0      -12.542565   -0.300671   -3.302153
     32          7           0       -7.524417   -1.262956   -0.216835
     33          6           0       -8.569197   -1.952411   -0.665272
     34          6           0       -8.247981   -3.360567   -0.687356
     35          6           0       -6.950741   -3.372866   -0.238954
     36          6           0       -6.505975   -2.109694    0.022705
     37          6           0       -9.147518   -4.386567   -1.385793
     38          6           0       -5.826734   -4.312731    0.022620
     39          8           0       -5.658679   -5.531941   -0.227079
     40          6           0       -4.628927   -3.437193    0.516141
     41          6           0       -3.941757   -3.896356    1.738714
     42          8           0       -4.135147   -3.504642    2.875572
     43          8           0       -3.179496   -4.887437    1.461551
     44          6           0       -2.475695   -5.573662    2.580880
     45          6           0        2.636227   -1.187329   -1.130523
     46          6           0        3.963752   -0.889331   -0.479343
     47          6           0        4.899744    0.002697   -0.868210
     48          6           0        4.766464    0.838574   -2.189077
     49          6           0        6.221118    0.218635   -0.215580
     50          6           0        7.501386   -0.275869   -0.934566
     51          6           0        8.708526   -0.193713   -0.103859
     52          6           0       10.103783   -0.728886   -0.802633
     53          6           0       10.103602   -2.272897   -0.875157
     54          6           0       11.218403   -0.133256    0.086403
     55          6           0       12.566560   -0.490107   -0.524968
     56          6           0       13.756706   -0.048815    0.284336
     57          6           0       15.180107   -0.189252   -0.361104
     58          6           0       15.531040   -1.687028   -0.580172
     59          6           0       16.202516    0.585729    0.380934
     60          6           0       17.565803    0.582199   -0.375839
     61          6           0       18.473992    1.594651    0.506229
     62          6           0       20.021294    1.725514    0.025546
     63          6           0       20.098651    2.212202   -1.393441
     64          6           0       20.789825    2.608963    0.999682
     65          1           0       -3.880120    3.395410    1.793198
     66          1           0       -9.659362    4.400592   -0.345675
     67          1           0      -10.385001   -2.064195   -1.465714
     68          1           0       -2.783401   -1.351385    2.132208
     69          1           0       -2.315378    1.325376    1.515163
     70          1           0       -2.006984    0.445675    3.934352
     71          1           0       -2.914593    1.850486    3.846741
     72          1           0       -3.682178    0.168039    4.038259
     73          1           0       -2.241487   -1.614655   -0.463544
     74          1           0       -2.321202   -0.024591   -0.673385
     75          1           0       -0.409284    0.201383    1.094549
     76          1           0       -0.548092   -1.720759    1.361016
     77          1           0       -4.311802    5.642118    0.945864
     78          1           0       -5.531998    6.899852    1.940138
     79          1           0       -4.617191    5.358156    2.654756
     80          1           0       -7.743554    7.022259    1.143519
     81          1           0       -8.854634    6.152877   -1.474169
     82          1           0       -9.173935    8.028789   -0.450692
     83          1           0      -12.107640    3.937789   -0.518186
     84          1           0      -11.928723    3.511336   -2.214592
     85          1           0      -13.205258    2.747772   -1.223115
     86          1           0      -12.605583   -1.084515   -1.224886
     87          1           0      -13.683882    0.285912   -1.390776
     88          1           0      -12.423902    0.554792   -3.925221
     89          1           0      -11.675645   -0.860016   -3.611319
     90          1           0      -13.245482   -0.837981   -3.727052
     91          1           0      -10.143600   -4.606074   -0.844723
     92          1           0       -9.343025   -4.192355   -2.467602
     93          1           0       -8.598624   -5.437760   -1.427072
     94          1           0       -3.737126   -3.378571   -0.292492
     95          1           0       -1.833955   -6.443207    2.094854
     96          1           0       -2.027384   -4.781816    3.192360
     97          1           0       -3.156511   -6.006504    3.318672
     98          1           0        2.747625   -2.311746   -1.384647
     99          1           0        2.496344   -0.594400   -2.026145
    100          1           0        4.010676   -1.384986    0.602011
    101          1           0        5.347131    1.794267   -1.897631
    102          1           0        5.377063    0.450512   -3.064954
    103          1           0        3.644023    1.026236   -2.516285
    104          1           0        6.264041    1.272203   -0.215243
    105          1           0        6.110322   -0.382696    0.879070
    106          1           0        7.369635   -1.607464   -1.290978
    107          1           0        7.687721    0.265637   -1.952500
    108          1           0        8.751099    0.954293    0.146203
    109          1           0        8.682063   -0.810629    0.888503
    110          1           0       10.074036   -0.105416   -1.801161
    111          1           0        9.166573   -2.714259   -1.608103
    112          1           0       10.958295   -2.622025   -1.660900
    113          1           0       10.101707   -2.882431    0.170110
    114          1           0       11.163080    0.954202    0.426949
    115          1           0       11.205247   -0.833762    1.005032
    116          1           0       12.488922   -1.766153   -0.762878
    117          1           0       12.685447   -0.093416   -1.421116
    118          1           0       13.792248    1.219410    0.515073
    119          1           0       13.851833   -0.673129    1.295775
    120          1           0       15.108985    0.217494   -1.377414
    121          1           0       14.620641   -2.342274   -1.068668
    122          1           0       16.604374   -2.090315   -1.435500
    123          1           0       15.722920   -2.250277    0.323305
    124          1           0       15.965391    1.634302    0.309840
    125          1           0       16.143934    0.348526    1.454549
    126          1           0       18.249252   -0.239733   -0.584904
    127          1           0       17.478644    1.232048   -1.335614
    128          1           0       18.066442    2.701271    0.506952
    129          1           0       18.277433    1.407960    1.621391
    130          1           0       20.388387    0.779409    0.134875
    131          1           0       19.764884    3.144261   -1.675264
    132          1           0       21.166256    2.209914   -1.602879
    133          1           0       19.536974    1.839770   -2.162234
    134          1           0       20.696570    2.170597    1.962774
    135          1           0       21.893404    2.466143    0.713663
    136          1           0       20.352969    3.672677    0.845803
    137          1           0       -7.107262    1.738525    0.571220
    138          1           0       -7.532196   -0.266463   -0.291318
 ---------------------------------------------------------------------

 SCF Done:  E(RB3LYP) =  -2733.02027703     A.U. after   17 cycles

 Excitation energies and oscillator strengths:

 Excited State   1:      Singlet-A      2.0922 eV  592.59 nm  f=0.1592  <S**2>=0.000
     235 -> 237       -0.17874
     235 -> 238       -0.29823
     236 -> 237        0.59733
     236 -> 238       -0.12825
 This state for optimization and/or second-order correction.
 Total Energy, E(TD-HF/TD-DFT) =  -2732.94338912
 Copying the excited state density for this state as the 1-particle RhoCI density.

 The electronic state is 1-A.
 Alpha  occ. eigenvalues --  -19.18105 -19.17831 -19.12231 -19.11016 -19.10556
 Alpha  occ. eigenvalues --  -14.37364 -14.36982 -14.32154 -14.29192 -10.30742
 Alpha  occ. eigenvalues --  -10.29875 -10.28422 -10.26150 -10.25948 -10.24688
 Alpha  occ. eigenvalues --  -10.23891 -10.22981 -10.22945 -10.22923 -10.22551
 Alpha  occ. eigenvalues --  -10.22130 -10.22056 -10.21981 -10.21860 -10.21647
 Alpha  occ. eigenvalues --  -10.21497 -10.21464 -10.21434 -10.21280 -10.21248
 Alpha  occ. eigenvalues --  -10.21134 -10.21091 -10.20950 -10.20900 -10.20859
 Alpha  occ. eigenvalues --  -10.20814 -10.20814 -10.20791 -10.20743 -10.20594
 Alpha  occ. eigenvalues --  -10.20184 -10.20132 -10.20128 -10.19784 -10.19680
 Alpha  occ. eigenvalues --  -10.19529 -10.19433 -10.19366 -10.19201 -10.19157
 Alpha  occ. eigenvalues --  -10.19066 -10.18940 -10.18796 -10.18737 -10.18556
 Alpha  occ. eigenvalues --  -10.18435 -10.18299 -10.18281 -10.18263 -10.18199
 Alpha  occ. eigenvalues --  -10.18187 -10.18146 -10.16368 -10.15963  -1.12807
 Alpha  occ. eigenvalues --   -1.10801  -1.01674  -1.01124  -1.00067  -0.99384
 Alpha  occ. eigenvalues --   -0.98745  -0.95452  -0.93818  -0.85626  -0.82755
 Alpha  occ. eigenvalues --   -0.81978  -0.81920  -0.81252  -0.80636  -0.79923
 Alpha  occ. eigenvalues --   -0.79740  -0.79619  -0.79356  -0.78059  -0.77959
 Alpha  occ. eigenvalues --   -0.76937  -0.75977  -0.75909  -0.74748  -0.74397
 Alpha  occ. eigenvalues --   -0.73885  -0.73109  -0.72698  -0.71001  -0.70729
 Alpha  occ. eigenvalues --   -0.69819  -0.69404  -0.68878  -0.68677  -0.67429
 Alpha  occ. eigenvalues --   -0.67099  -0.66139  -0.65604  -0.65404  -0.65198
 Alpha  occ. eigenvalues --   -0.64767  -0.63092  -0.62338  -0.61973  -0.61460
 Alpha  occ. eigenvalues --   -0.60637  -0.59235  -0.58867  -0.58269  -0.57506
 Alpha  occ. eigenvalues --   -0.56707  -0.56554  -0.56314  -0.56125  -0.55796
 Alpha  occ. eigenvalues --   -0.55042  -0.54902  -0.54181  -0.54066  -0.53029
 Alpha  occ. eigenvalues --   -0.52746  -0.52146  -0.51405  -0.50975  -0.50194
 Alpha  occ. eigenvalues --   -0.49875  -0.49321  -0.48434  -0.48330  -0.48025
 Alpha  occ. eigenvalues --   -0.47689  -0.47515  -0.47272  -0.47126  -0.46848
 Alpha  occ. eigenvalues --   -0.46688  -0.46523  -0.46135  -0.45903  -0.45753
 Alpha  occ. eigenvalues --   -0.45538  -0.45325  -0.45316  -0.44986  -0.44526
 Alpha  occ. eigenvalues --   -0.44499  -0.44260  -0.43967  -0.43874  -0.43558
 Alpha  occ. eigenvalues --   -0.43184  -0.42776  -0.42436  -0.42295  -0.41981
 Alpha  occ. eigenvalues --   -0.41867  -0.41764  -0.41656  -0.41370  -0.41266
 Alpha  occ. eigenvalues --   -0.41069  -0.41027  -0.40767  -0.40651  -0.40215
 Alpha  occ. eigenvalues --   -0.40027  -0.39955  -0.39772  -0.39595  -0.39401
 Alpha  occ. eigenvalues --   -0.39069  -0.38947  -0.38739  -0.38633  -0.38487
 Alpha  occ. eigenvalues --   -0.38337  -0.38034  -0.37947  -0.37625  -0.37516
 Alpha  occ. eigenvalues --   -0.37346  -0.37180  -0.37112  -0.36813  -0.36671
 Alpha  occ. eigenvalues --   -0.36445  -0.36343  -0.36180  -0.35993  -0.35707
 Alpha  occ. eigenvalues --   -0.35616  -0.35436  -0.35322  -0.35214  -0.35046
 Alpha  occ. eigenvalues --   -0.34754  -0.34556  -0.34080  -0.33781  -0.33631
 Alpha  occ. eigenvalues --   -0.33543  -0.32936  -0.32587  -0.32399  -0.32057
 Alpha  occ. eigenvalues --   -0.31994  -0.31186  -0.31085  -0.31060  -0.30890
 Alpha  occ. eigenvalues --   -0.30870  -0.30655  -0.30346  -0.30267  -0.30158
 Alpha  occ. eigenvalues --   -0.29961  -0.28611  -0.28301  -0.27776  -0.27480
 Alpha  occ. eigenvalues --   -0.27357  -0.27043  -0.26662  -0.25746  -0.25142
 Alpha  occ. eigenvalues --   -0.24975  -0.24760  -0.23920  -0.21615  -0.19912
 Alpha  occ. eigenvalues --   -0.19055
 Alpha virt. eigenvalues --   -0.10227  -0.08015  -0.04830  -0.01967  -0.00664
 Alpha virt. eigenvalues --    0.00161   0.01054   0.01723   0.02066   0.02895
 Alpha virt. eigenvalues --    0.02914   0.03727   0.03772   0.04296   0.04524

 Mulliken charges:
               1
     1  C    0.058253
     2  C    0.010959
     3  C   -0.071459
     4  C   -0.048948
     5  N   -0.105821
     6  C   -0.091355
     7  C   -0.049503
     8  C   -0.007943
     9  C   -0.013929
    10  C    0.098294
    11  C    0.068753
    12  C   -0.030368
    13  C    0.113749
    14  O   -0.209386
    15  O   -0.246022
    16  N   -0.017243
    17  C    0.050063
    18  C   -0.086455
    19  C   -0.011517
    20  C    0.007515
    21  C    0.009236
    22  C   -0.059695
    23  C   -0.041542
    24  N   -0.202319
    25  C    0.053106
    26  C   -0.154167
    27  C   -0.090916
    28  C    0.093379
    29  C    0.142588
    30  C   -0.033499
    31  C    0.140376
    32  N    0.046271
    33  C    0.036009
    34  C   -0.138002
    35  C    0.010427
    36  C    0.040131
    37  C    0.015280
    38  C    0.118428
    39  O   -0.199912
    40  C   -0.048241
    41  C    0.155843
    42  O   -0.251874
    43  O   -0.258264
    44  C    0.170359
    45  C    0.265224
    46  C   -0.135818
    47  C   -0.115281
    48  C   -0.018304
    49  C    0.085942
    50  C   -0.056544
    51  C   -0.009715
    52  C   -0.085358
    53  C   -0.077221
    54  C    0.028614
    55  C    0.057849
    56  C   -0.055885
    57  C   -0.015368
    58  C   -0.079383
    59  C    0.077684
    60  C    0.027511
    61  C   -0.104998
    62  C   -0.020688
    63  C    0.100783
    64  C    0.029826
    65  H   -0.078592
    66  H   -0.017801
    67  H   -0.061723
    68  H   -0.021312
    69  H   -0.028457
    70  H   -0.005219
    71  H   -0.001877
    72  H    0.032653
    73  H   -0.027711
    74  H    0.000917
    75  H    0.039982
    76  H    0.048935
    77  H    0.034743
    78  H    0.058525
    79  H    0.040497
    80  H   -0.008250
    81  H    0.031468
    82  H    0.067120
    83  H    0.010664
    84  H    0.018972
    85  H    0.009234
    86  H    0.005481
    87  H    0.001118
    88  H   -0.006899
    89  H   -0.027198
    90  H   -0.035402
    91  H    0.043956
    92  H    0.046101
    93  H    0.050815
    94  H    0.094655
    95  H    0.072430
    96  H    0.034649
    97  H    0.034619
    98  H    0.049129
    99  H    0.015481
   100  H    0.019462
   101  H    0.013948
   102  H    0.049355
   103  H    0.048985
   104  H   -0.005671
   105  H    0.028679
   106  H    0.006789
   107  H    0.015948
   108  H    0.005406
   109  H    0.011078
   110  H    0.010088
   111  H    0.036360
   112  H    0.047859
   113  H    0.060581
   114  H    0.016202
   115  H   -0.004761
   116  H    0.023452
   117  H   -0.054909
   118  H    0.014143
   119  H    0.011321
   120  H   -0.017942
   121  H    0.027530
   122  H    0.016113
   123  H    0.006660
   124  H   -0.015689
   125  H   -0.000018
   126  H    0.018020
   127  H    0.014445
   128  H   -0.011267
   129  H   -0.006595
   130  H   -0.031190
   131  H   -0.037705
   132  H   -0.005026
   133  H   -0.026032
   134  H    0.000757
   135  H    0.010883
   136  H    0.028256
   137  H    0.160240
   138  H    0.123034
 Sum of Mulliken charges =  -0.00000

 Dipole moment (field-independent basis, Debye):
    X=              4.2780    Y=              4.2380    Z=              0.0918  Tot=              6.0225
 Quadrupole moment (field-independent basis, Debye-Ang):
   XX=           -388.5752   YY=           -379.9410   ZZ=           -393.9470
   XY=            -19.5077   XZ=              7.9758   YZ=             -3.2898

 Normal termination of Gaussian 16 at Fri Aug 30 11:26:54 2019.
